Title
81383
    1CHL1    C3    1   5.664   3.422  10.310 -0.2114 -0.0439 -0.1812
    1CHL1    H3    2   5.719   3.519  10.313  0.4034 -0.4101  0.9452
    1CHL1    O3    3   5.621   3.380  10.440  0.5299 -0.0089 -0.1723
    1CHL1   H3'    4   5.554   3.441  10.471  1.0265  0.6273 -0.3343
    1CHL1    C4    5   5.539   3.449  10.221 -0.1360 -0.4224 -0.3047
    1CHL1   H4A    6   5.480   3.355  10.226  1.0954 -1.2829 -1.1681
    1CHL1   H4B    7   5.490   3.539  10.264  2.8181  1.9728 -1.5645
    1CHL1    C5    8   5.574   3.478  10.079 -0.0847 -1.0400 -0.6763
    1CHL1    C6    9   5.533   3.593  10.021  0.6942  0.6261 -0.0024
    1CHL1    H6   10   5.476   3.666  10.081 -0.1191  0.1681 -0.1980
    1CHL1    C7   11   5.559   3.634   9.877  0.1556  1.0121 -0.7187
    1CHL1   H7A   12   5.463   3.664   9.830 -0.4153 -1.8010 -1.5336
    1CHL1   H7B   13   5.639   3.711   9.870  1.3242  0.0477  1.2124
    1CHL1    C8   14   5.605   3.500   9.798  0.4151 -0.7108 -0.1190
    1CHL1    H8   15   5.511   3.441   9.792 -0.0247 -0.3544  2.2594
    1CHL1   C14   16   5.662   3.537   9.665 -1.0741 -0.6737  0.4858
    1CHL1   H14   17   5.748   3.599   9.699 -0.6684 -1.7608  1.5014
    1CHL1   C15   18   5.577   3.626   9.570  0.0741  0.4721 -0.1492
    1CHL1  H15A   19   5.478   3.576   9.562  0.3473  0.0517 -1.0685
    1CHL1  H15B   20   5.590   3.733   9.595  0.7754  0.0789  1.2393
    1CHL1   C16   21   5.646   3.616   9.432 -0.6742 -0.1267  0.2469
    1CHL1  H16A   22   5.569   3.580   9.360 -0.8717  3.0712 -1.3571
    1CHL1  H16B   23   5.681   3.714   9.394 -0.3895 -0.3531 -0.0788
    1CHL1   C17   24   5.773   3.526   9.450 -0.5274 -0.2050 -0.2567
    1CHL1   H17   25   5.854   3.590   9.489  0.3579 -1.4242 -0.0261
    1CHL1   C13   26   5.725   3.433   9.571  0.6905  0.5660 -0.1439
    1CHL1   C18   27   5.607   3.328   9.531 -0.2198 -0.2074  0.1530
    1CHL1  H18A   28   5.556   3.291   9.622 -0.9186  1.3083  0.4113
    1CHL1  H18B   29   5.524   3.376   9.477 -0.5575  1.7238  2.2365
    1CHL1  H18C   30   5.654   3.252   9.464 -0.1415  0.2573 -0.3296
    1CHL1   C12   31   5.839   3.360   9.656  0.1554 -0.2650  0.0634
    1CHL1  H12A   32   5.880   3.274   9.599 -0.1114 -2.2884  2.7076
    1CHL1  H12B   33   5.915   3.441   9.667 -1.0681  0.8003  0.9398
    1CHL1   C11   34   5.784   3.311   9.789  0.2200  0.0244 -0.9332
    1CHL1  H11A   35   5.710   3.231   9.767  0.0057  0.2845 -1.1477
    1CHL1  H11B   36   5.862   3.260   9.851 -0.6304  0.3288  0.4333
    1CHL1    C9   37   5.710   3.423   9.868 -0.6239  1.3612 -0.1409
    1CHL1    H9   38   5.792   3.494   9.889 -0.1539  0.5626  0.8346
    1CHL1   C10   39   5.664   3.370  10.008  0.5894 -0.5977  0.2879
    1CHL1   C19   40   5.570   3.242   9.985  0.5671 -0.9983 -0.7353
    1CHL1  H19A   41   5.496   3.261   9.904 -0.8315 -1.7253  0.3222
    1CHL1  H19B   42   5.629   3.148   9.972  1.3448 -0.3129 -2.5303
    1CHL1  H19C   43   5.506   3.215  10.071  0.3273 -0.0272 -0.6001
    1CHL1    C1   44   5.783   3.343  10.099  0.1244  0.5462  0.4105
    1CHL1   H1A   45   5.835   3.251  10.068 -1.9820 -1.3461  2.1413
    1CHL1   H1B   46   5.842   3.438  10.106 -0.1123  0.6658  0.8189
    1CHL1    C2   47   5.744   3.309  10.248 -0.1204 -0.2558 -0.7007
    1CHL1   H2A   48   5.838   3.288  10.303 -0.2485 -0.7038 -0.6466
    1CHL1   H2B   49   5.677   3.221  10.243  0.4878 -0.7712 -0.0243
    1CHL1   C20   50   5.832   3.441   9.335  0.4345 -0.1554  0.1524
    1CHL1   H20   51   5.874   3.346   9.375 -1.0666 -0.1353  1.9424
    1CHL1   C21   52   5.954   3.516   9.272  1.0923  0.3958  0.3036
    1CHL1  H21A   53   5.923   3.616   9.233 -1.3542  0.3860  1.9483
    1CHL1  H21B   54   6.000   3.462   9.187  0.3512 -2.9454  1.8292
    1CHL1  H21C   55   6.033   3.547   9.343 -0.3266  1.2792  1.5679
    1CHL1   C22   56   5.723   3.412   9.220  0.3996 -0.4779 -0.6496
    1CHL1  H22A   57   5.628   3.365   9.251 -1.3517  0.8285 -3.5566
    1CHL1  H22B   58   5.693   3.509   9.174  0.0065  0.0999  0.7778
    1CHL1   C23   59   5.778   3.319   9.110 -0.7906  0.1999  0.5239
    1CHL1  H23A   60   5.697   3.288   9.040  0.4557 -1.8579 -0.1045
    1CHL1  H23B   61   5.853   3.377   9.051 -0.0692 -1.2415 -0.0178
    1CHL1   C24   62   5.850   3.194   9.165  0.0660  0.6076  0.2403
    1CHL1  H24A   63   5.960   3.208   9.176  0.2977 -1.3946  0.9432
    1CHL1  H24B   64   5.807   3.163   9.262  1.3267 -1.2571  0.2601
    1CHL1   C25   65   5.862   3.070   9.065  0.5824 -0.2237  0.0919
    1CHL1   H25   66   5.754   3.060   9.041 -0.6729  3.4999  3.2374
    1CHL1   C26   67   5.943   3.104   8.941 -0.1453 -0.3979  0.2966
    1CHL1  H26A   68   5.909   3.201   8.897 -0.7555  0.4227  2.4821
    1CHL1  H26B   69   6.052   3.117   8.959 -0.5593  1.7807  1.5894
    1CHL1  H26C   70   5.934   3.018   8.872  5.2392 -0.8755 -0.3030
    1CHL1   C27   71   5.921   2.943   9.136 -0.1252  0.4412 -0.5153
    1CHL1  H27A   72   6.031   2.949   9.145 -0.1772  1.7523 -0.4724
    1CHL1  H27B   73   5.870   2.941   9.235  3.1445  1.6188  1.3264
    1CHL1  H27C   74   5.885   2.854   9.079 -1.3277  0.2237  0.5408
    2CHL1    C3   75   5.546   1.424  10.097  0.6072 -0.0713 -0.1014
    2CHL1    H3   76   5.498   1.324  10.091  1.5262 -0.5172 -0.1709
    2CHL1    O3   77   5.578   1.440  10.236 -0.1629  0.0906  0.1951
    2CHL1   H3'   78   5.607   1.529  10.256  0.3416  1.4639 -5.1922
    2CHL1    C4   79   5.669   1.425  10.003 -0.4501 -0.4941  0.6832
    2CHL1   H4A   80   5.727   1.518  10.023 -1.4225  0.7943 -2.0117
    2CHL1   H4B   81   5.749   1.354  10.031 -0.0481 -0.1131  0.5175
    2CHL1    C5   82   5.633   1.409   9.856  0.1996 -0.2718 -0.1348
    2CHL1    C6   83   5.680   1.302   9.779 -1.0737 -0.8531 -0.2341
    2CHL1    H6   84   5.750   1.236   9.833 -1.0842  1.0091  2.2770
    2CHL1    C7   85   5.647   1.282   9.632  0.4374  0.4955  0.6002
    2CHL1   H7A   86   5.732   1.252   9.567  0.7039  0.0003  1.1731
    2CHL1   H7B   87   5.576   1.196   9.634  1.2964 -0.2647 -0.4061
    2CHL1    C8   88   5.575   1.405   9.576 -0.4624 -0.6197  1.0935
    2CHL1    H8   89   5.652   1.476   9.539 -1.0542 -0.5726 -0.0816
    2CHL1   C14   90   5.498   1.359   9.454  1.1197 -0.1071  0.8902
    2CHL1   H14   91   5.415   1.309   9.509  0.4876  2.2577  2.2492
    2CHL1   C15   92   5.564   1.259   9.349 -0.1715 -0.3256 -0.3106
    2CHL1  H15A   93   5.672   1.257   9.323 -0.7873 -1.7823 -3.1680
    2CHL1  H15B   94   5.537   1.158   9.388  1.9145 -0.3325  1.3378
    2CHL1   C16   95   5.492   1.281   9.215  0.0774  0.7481 -0.3439
    2CHL1  H16A   96   5.551   1.338   9.141 -0.2705 -0.1693 -1.3458
    2CHL1  H16B   97   5.456   1.183   9.178  0.7228  0.9648 -1.6020
    2CHL1   C17   98   5.376   1.368   9.265  0.0484  0.1370 -0.1471
    2CHL1   H17   99   5.313   1.298   9.324  0.6933 -0.3142  0.0084
    2CHL1   C13  100   5.434   1.460   9.370  0.1629 -0.4491 -0.3282
    2CHL1   C18  101   5.536   1.564   9.315 -0.4809 -0.1415 -0.1825
    2CHL1  H18A  102   5.556   1.635   9.398 -1.6273  1.9362 -1.5839
    2CHL1  H18B  103   5.634   1.525   9.279 -0.4320  0.2672 -0.4934
    2CHL1  H18C  104   5.498   1.627   9.232  1.4478 -1.2941 -2.0486
    2CHL1   C12  105   5.330   1.534   9.457  0.3248  0.4710 -0.3313
    2CHL1  H12A  106   5.290   1.620   9.399 -0.2961 -0.6397 -1.6130
    2CHL1  H12B  107   5.245   1.468   9.484  0.1855  0.6153 -0.4141
    2CHL1   C11  108   5.391   1.585   9.592 -0.8897 -0.3388 -0.0593
    2CHL1  H11A  109   5.460   1.668   9.565 -2.3489  0.5985 -1.0233
    2CHL1  H11B  110   5.309   1.619   9.659 -2.6149 -2.2538 -1.0606
    2CHL1    C9  111   5.475   1.475   9.663 -0.2604  0.1810  0.2748
    2CHL1    H9  112   5.395   1.405   9.693 -0.3882 -0.2492 -1.0178
    2CHL1   C10  113   5.533   1.509   9.801  0.7156 -0.3613 -0.7410
    2CHL1   C19  114   5.604   1.641   9.782 -0.2994 -0.3326 -0.2334
    2CHL1  H19A  115   5.669   1.678   9.864 -0.5287  1.4353 -0.7999
    2CHL1  H19B  116   5.673   1.642   9.695 -0.9422 -0.4911 -0.7522
    2CHL1  H19C  117   5.519   1.712   9.771 -0.3571 -0.5468 -1.2004
    2CHL1    C1  118   5.411   1.527   9.904  0.7246  0.6518 -0.1384
    2CHL1   H1A  119   5.348   1.611   9.866 -2.0332 -0.9769  0.5241
    2CHL1   H1B  120   5.340   1.441   9.900 -0.3641  1.5520 -0.5909
    2CHL1    C2  121   5.454   1.540  10.052  0.0518 -0.4201 -0.1899
    2CHL1   H2A  122   5.359   1.546  10.110  0.3483 -0.0306  0.2521
    2CHL1   H2B  123   5.509   1.635  10.067 -2.6861  1.0712  1.0973
    2CHL1   C20  124   5.289   1.432   9.157  0.8070 -0.0715  0.1104
    2CHL1   H20  125   5.224   1.506   9.208 -0.9088 -2.9567  2.4458
    2CHL1   C21  126   5.185   1.317   9.127 -0.1372 -0.5124 -0.3569
    2CHL1  H21A  127   5.101   1.355   9.065  0.1817  0.1341 -0.3981
    2CHL1  H21B  128   5.155   1.260   9.217  0.9155 -2.7244 -1.3327
    2CHL1  H21C  129   5.238   1.245   9.061  1.1927  0.0070  0.1240
    2CHL1   C22  130   5.362   1.498   9.037  0.3829 -0.2751  0.3672
    2CHL1  H22A  131   5.433   1.576   9.070 -0.1099  0.1066  0.5415
    2CHL1  H22B  132   5.416   1.418   8.982  0.2906 -0.1673  0.1150
    2CHL1   C23  133   5.264   1.564   8.940 -0.2854  0.1072  0.5875
    2CHL1  H23A  134   5.199   1.487   8.893 -0.8137  0.5223  0.6175
    2CHL1  H23B  135   5.211   1.643   8.998 -0.1362  1.3024 -0.8251
    2CHL1   C24  136   5.351   1.640   8.838  0.2097 -0.1682 -0.1838
    2CHL1  H24A  137   5.410   1.722   8.886 -0.9497 -0.8248  2.5352
    2CHL1  H24B  138   5.430   1.568   8.806 -0.8252 -1.7012  0.5820
    2CHL1   C25  139   5.285   1.682   8.705  0.0949 -0.2439  0.7703
    2CHL1   H25  140   5.210   1.761   8.726 -0.0801 -0.3035  0.3756
    2CHL1   C26  141   5.392   1.761   8.622  0.5622 -0.3456  0.1357
    2CHL1  H26A  142   5.428   1.844   8.686 -0.4467 -0.8158  1.3501
    2CHL1  H26B  143   5.474   1.692   8.593  0.4342 -0.9856  1.2333
    2CHL1  H26C  144   5.345   1.798   8.529  0.9561  1.3382  0.5792
    2CHL1   C27  145   5.206   1.576   8.621  0.6720 -0.4319  0.1074
    2CHL1  H27A  146   5.146   1.514   8.692 -0.0634 -0.0839 -0.1983
    2CHL1  H27B  147   5.127   1.617   8.555  0.0534 -1.1587  0.3742
    2CHL1  H27C  148   5.271   1.498   8.576 -0.3940 -1.7081  0.6860
    3CHL1    C3  149   6.166   0.798  10.355 -0.0478  0.0084  0.6392
    3CHL1    H3  150   6.162   0.690  10.329 -4.4539  0.3433 -0.9226
    3CHL1    O3  151   6.206   0.812  10.491  0.2275 -0.2713 -0.1605
    3CHL1   H3'  152   6.143   0.761  10.542  0.5488 -0.5247 -0.0113
    3CHL1    C4  153   6.265   0.869  10.261  0.5544 -0.2654 -0.2632
    3CHL1   H4A  154   6.282   0.978  10.274  1.7429 -0.3787 -0.7081
    3CHL1   H4B  155   6.362   0.817  10.280  0.2055 -0.8800 -0.1364
    3CHL1    C5  156   6.227   0.852  10.116 -0.3285  0.3254 -0.1712
    3CHL1    C6  157   6.306   0.790  10.018 -0.0869 -0.6313 -0.5059
    3CHL1    H6  158   6.406   0.751  10.041  1.7058  2.0831 -3.0873
    3CHL1    C7  159   6.263   0.755   9.882  0.0405  0.8856  0.0834
    3CHL1   H7A  160   6.337   0.765   9.799 -1.0352  2.2874 -0.7434
    3CHL1   H7B  161   6.240   0.646   9.879 -0.4828  0.9815  0.6049
    3CHL1    C8  162   6.145   0.847   9.836  0.0650  0.2803 -0.1099
    3CHL1    H8  163   6.195   0.943   9.811 -0.8458  1.2653  1.6545
    3CHL1   C14  164   6.083   0.782   9.711 -0.3979  0.1314 -0.0376
    3CHL1   H14  165   6.038   0.685   9.741 -1.7250  1.3344  2.0442
    3CHL1   C15  166   6.173   0.752   9.586 -0.1650  0.3919  0.2231
    3CHL1  H15A  167   6.236   0.837   9.555 -1.0631  0.3479 -1.9420
    3CHL1  H15B  168   6.232   0.661   9.611  0.4923  1.2309  1.8409
    3CHL1   C16  169   6.068   0.727   9.480  0.2275  0.1533  0.5570
    3CHL1  H16A  170   6.102   0.796   9.400  0.2293 -0.5465 -0.0600
    3CHL1  H16B  171   6.075   0.624   9.438 -0.4564  1.0764 -2.0012
    3CHL1   C17  172   5.937   0.770   9.535  0.0134  0.1679  0.1386
    3CHL1   H17  173   5.889   0.677   9.571 -0.9434 -0.3947 -2.3966
    3CHL1   C13  174   5.968   0.866   9.658 -0.5271  0.7052 -0.3774
    3CHL1   C18  175   6.011   1.003   9.616  0.8957 -0.2036 -0.5055
    3CHL1  H18A  176   5.922   1.057   9.577  1.4938  2.2027  1.2683
    3CHL1  H18B  177   6.043   1.060   9.705 -1.1120 -0.8353  0.6648
    3CHL1  H18C  178   6.086   1.010   9.533 -2.1066  3.0933 -3.2742
    3CHL1   C12  179   5.855   0.882   9.764  0.0020  0.2307  0.1032
    3CHL1  H12A  180   5.787   0.961   9.726  0.3291  0.7169  0.5261
    3CHL1  H12B  181   5.801   0.785   9.775  0.7715 -0.4432 -1.6642
    3CHL1   C11  182   5.908   0.928   9.898 -0.1849  0.1940  0.0787
    3CHL1  H11A  183   5.944   1.032   9.883  1.9361 -0.4781  0.1231
    3CHL1  H11B  184   5.833   0.920   9.979  0.8670  1.2375  1.2060
    3CHL1    C9  185   6.032   0.853   9.941 -0.1294  0.3182 -0.2795
    3CHL1    H9  186   5.993   0.749   9.945 -1.0941  0.6566 -0.6978
    3CHL1   C10  187   6.085   0.901  10.086 -0.8741  0.0230  0.6646
    3CHL1   C19  188   6.081   1.056  10.093  0.1113  0.1128 -0.7302
    3CHL1  H19A  189   6.163   1.095  10.028  1.7264 -1.6817  0.1126
    3CHL1  H19B  190   5.987   1.106  10.064 -1.4811 -1.8271  0.7742
    3CHL1  H19C  191   6.114   1.084  10.196  1.9105 -1.5981 -0.7689
    3CHL1    C1  192   5.985   0.847  10.189 -0.8431  0.0597 -0.3199
    3CHL1   H1A  193   5.886   0.896  10.176 -1.6822 -1.4338  0.1697
    3CHL1   H1B  194   5.975   0.741  10.157  1.4424 -0.4562  0.4715
    3CHL1    C2  195   6.024   0.850  10.340  0.8630 -0.5386  0.6189
    3CHL1   H2A  196   5.947   0.795  10.399 -0.0432 -0.6536 -0.6113
    3CHL1   H2B  197   6.020   0.956  10.370 -1.0753 -0.4667  0.2933
    3CHL1   C20  198   5.842   0.819   9.425  0.2423 -0.0937 -0.3519
    3CHL1   H20  199   5.879   0.911   9.375 -1.7303  0.2079 -1.3702
    3CHL1   C21  200   5.702   0.865   9.483 -0.0264  0.1517  0.5866
    3CHL1  H21A  201   5.648   0.786   9.540 -1.2390 -0.3676 -1.2044
    3CHL1  H21B  202   5.629   0.901   9.407 -0.4958  1.1316  1.4603
    3CHL1  H21C  203   5.708   0.956   9.548 -0.0947  0.4240  0.2169
    3CHL1   C22  204   5.822   0.711   9.325  0.3486  0.3783  0.3094
    3CHL1  H22A  205   5.910   0.650   9.293 -0.4002 -0.2766 -0.5659
    3CHL1  H22B  206   5.743   0.653   9.376 -0.3123  0.3008 -0.7789
    3CHL1   C23  207   5.763   0.763   9.198 -0.5046 -0.4515 -0.1461
    3CHL1  H23A  208   5.722   0.676   9.142 -0.2460 -0.6707  0.0045
    3CHL1  H23B  209   5.676   0.828   9.220  0.4782  0.8032  0.1538
    3CHL1   C24  210   5.857   0.843   9.108 -0.1274  0.7780 -0.1534
    3CHL1  H24A  211   5.934   0.905   9.158  0.2425 -1.5206  2.3415
    3CHL1  H24B  212   5.912   0.765   9.050 -1.7415 -1.0847  0.7112
    3CHL1   C25  213   5.785   0.927   9.005  0.1774 -1.0721  0.7122
    3CHL1   H25  214   5.705   0.869   8.954  1.1828 -1.5136 -0.4228
    3CHL1   C26  215   5.712   1.046   9.071 -0.3484 -0.2567 -0.1956
    3CHL1  H26A  216   5.674   1.113   8.991 -1.1814  0.4114  0.7182
    3CHL1  H26B  217   5.622   1.005   9.122  0.8448 -1.7232  0.8320
    3CHL1  H26C  218   5.780   1.096   9.143  1.0794  0.5621 -2.0381
    3CHL1   C27  219   5.875   0.973   8.886  0.4776  0.1732 -0.1552
    3CHL1  H27A  220   5.948   1.049   8.919  2.3484 -1.5314 -0.1653
    3CHL1  H27B  221   5.925   0.891   8.830 -0.4764 -0.1508 -0.5526
    3CHL1  H27C  222   5.808   1.020   8.811 -0.8489 -1.6473 -0.1921
    4CHL1    C3  223   6.556   1.251  10.494 -0.5276 -0.0905 -0.3501
    4CHL1    H3  224   6.610   1.155  10.479  1.7967  1.2495 -1.1799
    4CHL1    O3  225   6.524   1.273  10.634  0.5398 -0.1228  0.0193
    4CHL1   H3'  226   6.466   1.349  10.626  0.7606  0.0055 -0.3868
    4CHL1    C4  227   6.637   1.370  10.443 -0.4721  0.4672 -0.0933
    4CHL1   H4A  228   6.568   1.451  10.475  1.8382  1.2608  3.4972
    4CHL1   H4B  229   6.736   1.388  10.490  0.0487  3.0005 -1.9485
    4CHL1    C5  230   6.663   1.349  10.300  0.4525 -0.1977 -0.1523
    4CHL1    C6  231   6.784   1.352  10.253 -0.4449 -0.2583  0.3255
    4CHL1    H6  232   6.872   1.365  10.318 -0.8846  1.8705  0.5596
    4CHL1    C7  233   6.823   1.340  10.099  0.2929  0.0369 -0.4775
    4CHL1   H7A  234   6.903   1.411  10.068  2.0418 -3.0514 -3.6990
    4CHL1   H7B  235   6.850   1.238  10.066 -1.2602 -0.7378  0.5226
    4CHL1    C8  236   6.693   1.372  10.011  0.0927  0.1978  0.1028
    4CHL1    H8  237   6.671   1.481  10.017 -0.8899  0.0683 -0.7706
    4CHL1   C14  238   6.723   1.349   9.865  0.0382  0.2431  0.4938
    4CHL1   H14  239   6.730   1.238   9.859 -0.5134  0.2313 -0.1306
    4CHL1   C15  240   6.844   1.413   9.800 -0.5098 -0.2839  0.5784
    4CHL1  H15A  241   6.842   1.524   9.805  1.2423  0.0020 -2.6701
    4CHL1  H15B  242   6.940   1.378   9.843 -1.7802 -4.8111  0.3120
    4CHL1   C16  243   6.822   1.374   9.655 -0.6785  0.6284  0.0649
    4CHL1  H16A  244   6.847   1.460   9.590 -1.7263  0.4550 -0.5885
    4CHL1  H16B  245   6.888   1.291   9.620 -1.7564 -0.1317 -0.2330
    4CHL1   C17  246   6.677   1.324   9.637  0.8652 -0.0979  0.1504
    4CHL1   H17  247   6.668   1.213   9.629  0.4744  0.0242 -1.5465
    4CHL1   C13  248   6.604   1.359   9.769  0.5915 -0.1420 -0.1111
    4CHL1   C18  249   6.558   1.503   9.754 -0.7400 -0.5330  0.0887
    4CHL1  H18A  250   6.640   1.559   9.704 -0.4265  1.8794  2.9641
    4CHL1  H18B  251   6.476   1.493   9.680  2.4834 -1.7127 -3.7023
    4CHL1  H18C  252   6.520   1.547   9.849 -1.0481 -0.9307  0.1513
    4CHL1   C12  253   6.491   1.274   9.821  0.5791  0.0721 -0.1442
    4CHL1  H12A  254   6.402   1.285   9.756  1.2898  0.4750 -1.0688
    4CHL1  H12B  255   6.521   1.168   9.813  0.2518  0.0282 -0.8341
    4CHL1   C11  256   6.452   1.313   9.967  0.4865 -0.0633  0.3061
    4CHL1  H11A  257   6.409   1.415   9.975 -0.2153 -0.4589  1.9642
    4CHL1  H11B  258   6.372   1.242   9.998  0.1416  0.6274  1.0317
    4CHL1    C9  259   6.568   1.304  10.066 -0.2170 -0.4662  0.0601
    4CHL1    H9  260   6.603   1.199  10.074  0.5962 -0.0808  1.9612
    4CHL1   C10  261   6.537   1.343  10.214 -0.6710 -0.1149 -0.2646
    4CHL1   C19  262   6.470   1.484  10.212  0.0933  0.3470  0.2108
    4CHL1  H19A  263   6.362   1.462  10.200 -0.0218  1.8061 -2.0779
    4CHL1  H19B  264   6.487   1.538  10.308  3.5468  1.2972 -0.8085
    4CHL1  H19C  265   6.506   1.554  10.133  2.0138  0.9391  1.5484
    4CHL1    C1  266   6.449   1.234  10.272 -0.0676  0.9856  0.3839
    4CHL1   H1A  267   6.360   1.197  10.217  0.2646 -1.4510  1.3483
    4CHL1   H1B  268   6.504   1.138  10.268 -0.0329  0.8639  2.5268
    4CHL1    C2  269   6.427   1.244  10.417  0.8622 -0.1223  0.3659
    4CHL1   H2A  270   6.368   1.158  10.455  0.3546 -0.1618 -0.5050
    4CHL1   H2B  271   6.359   1.332  10.429 -0.0766 -1.1588  3.7671
    4CHL1   C20  272   6.608   1.357   9.498 -1.1991 -0.3071 -0.3734
    4CHL1   H20  273   6.582   1.465   9.491 -1.2031 -0.3226 -0.6116
    4CHL1   C21  274   6.480   1.279   9.475  0.5586 -0.1753  0.0787
    4CHL1  H21A  275   6.425   1.336   9.397  0.1989  0.1707  0.5798
    4CHL1  H21B  276   6.416   1.262   9.564  0.1955  1.7468  0.2228
    4CHL1  H21C  277   6.508   1.179   9.435 -0.1630 -0.3150 -0.0941
    4CHL1   C22  278   6.696   1.343   9.374 -1.2357 -0.2424  0.9791
    4CHL1  H22A  279   6.773   1.423   9.388  0.0520 -1.0766 -0.8717
    4CHL1  H22B  280   6.736   1.239   9.366 -1.2287 -0.2935  1.6364
    4CHL1   C23  281   6.632   1.374   9.237 -0.0156  0.4233  0.0857
    4CHL1  H23A  282   6.575   1.280   9.219  0.7702  0.1988 -1.3435
    4CHL1  H23B  283   6.563   1.462   9.242  1.2986  1.5105 -0.3652
    4CHL1   C24  284   6.721   1.385   9.112 -0.0883  0.0858  0.3786
    4CHL1  H24A  285   6.736   1.495   9.119 -1.2723  0.4587 -2.1381
    4CHL1  H24B  286   6.818   1.331   9.104  0.4850  1.2034 -0.4667
    4CHL1   C25  287   6.653   1.381   8.971 -0.0786 -0.2219 -0.0441
    4CHL1   H25  288   6.556   1.435   8.980 -0.1543  0.4310 -3.3648
    4CHL1   C26  289   6.732   1.465   8.869  0.0874  0.1281 -0.7751
    4CHL1  H26A  290   6.835   1.427   8.852 -0.6852 -2.4215 -0.2366
    4CHL1  H26B  291   6.688   1.447   8.769  2.6382  2.4461 -2.4412
    4CHL1  H26C  292   6.740   1.574   8.890  1.4032  0.1779 -1.4064
    4CHL1   C27  293   6.619   1.243   8.919 -0.0886  0.6206 -0.4994
    4CHL1  H27A  294   6.712   1.188   8.892 -1.3178 -2.2855  0.7563
    4CHL1  H27B  295   6.570   1.192   9.005  2.6096 -1.4008 -0.0146
    4CHL1  H27C  296   6.550   1.248   8.832  0.0596  1.5758 -0.5655
    5CHL1    C3  297   0.131   6.734  10.115 -0.4963  1.0145  0.5466
    5CHL1    H3  298   0.233   6.703  10.084 -1.1641 -1.7924  0.7979
    5CHL1    O3  299   0.141   6.760  10.258 -0.3402 -0.4836 -0.1113
    5CHL1   H3'  300   0.058   6.796  10.290  0.2891  1.4044 -0.4530
    5CHL1    C4  301   0.080   6.855  10.042  0.5962  0.6001 -0.1859
    5CHL1   H4A  302  -0.016   6.880  10.092 -0.4754 -2.4854 -0.4294
    5CHL1   H4B  303   0.159   6.930  10.065  1.3480 -0.1513 -0.2519
    5CHL1    C5  304   0.047   6.828   9.897 -0.2832 -0.4109  0.4058
    5CHL1    C6  305   0.110   6.907   9.801 -0.3807 -0.0919  0.4994
    5CHL1    H6  306   0.176   6.989   9.832 -1.4159  1.7992 -2.0011
    5CHL1    C7  307   0.102   6.876   9.656  0.4158  0.3116  0.4967
    5CHL1   H7A  308   0.090   6.961   9.585  2.7075 -0.9304 -1.5234
    5CHL1   H7B  309   0.196   6.822   9.631  0.7386  0.5752  1.1227
    5CHL1    C8  310  -0.011   6.772   9.618  0.0868 -0.6819 -0.5392
    5CHL1    H8  311  -0.103   6.835   9.621  0.7033  0.1769  0.7019
    5CHL1   C14  312   0.008   6.717   9.474  0.8731 -0.3392  0.2190
    5CHL1   H14  313   0.102   6.659   9.472  2.9045  2.7355 -0.7007
    5CHL1   C15  314   0.026   6.820   9.362 -0.7182  0.4698  0.2372
    5CHL1  H15A  315  -0.043   6.907   9.369  0.3964  1.4224 -0.1008
    5CHL1  H15B  316   0.132   6.853   9.353 -0.2435 -1.3343 -1.4636
    5CHL1   C16  317   0.001   6.737   9.237  0.3771  0.3220  0.2201
    5CHL1  H16A  318  -0.075   6.783   9.170 -0.9191 -1.0373  0.7051
    5CHL1  H16B  319   0.098   6.729   9.184  0.3331  0.6705  0.0846
    5CHL1   C17  320  -0.051   6.595   9.276 -0.5106 -0.3121 -0.2404
    5CHL1   H17  321   0.045   6.541   9.290  0.6476  1.3606 -1.4580
    5CHL1   C13  322  -0.105   6.615   9.427 -0.1812  0.7624 -0.1458
    5CHL1   C18  323  -0.241   6.691   9.423 -0.1432 -0.1229 -0.0221
    5CHL1  H18A  324  -0.326   6.626   9.392  1.7762 -2.2388 -1.1183
    5CHL1  H18B  325  -0.276   6.745   9.513 -0.8668  0.0556 -0.3945
    5CHL1  H18C  326  -0.237   6.768   9.343 -0.4722 -0.0565  0.0226
    5CHL1   C12  327  -0.107   6.494   9.525 -0.6375 -0.4873 -0.7178
    5CHL1  H12A  328  -0.188   6.421   9.504 -1.0241 -0.7491  1.4081
    5CHL1  H12B  329  -0.009   6.441   9.526  0.9310  2.2039 -0.2004
    5CHL1   C11  330  -0.121   6.544   9.668  0.0108 -0.2838 -0.4069
    5CHL1  H11A  331  -0.224   6.583   9.685  0.1677 -0.8181  2.3076
    5CHL1  H11B  332  -0.101   6.457   9.735 -0.6288  0.6899  1.0914
    5CHL1    C9  333  -0.020   6.655   9.716  0.5681 -0.4103  0.0153
    5CHL1    H9  334   0.082   6.613   9.704  1.0308  0.8072 -0.4257
    5CHL1   C10  335  -0.038   6.700   9.859 -0.1194  0.2315 -0.0157
    5CHL1   C19  336  -0.189   6.737   9.879  0.0042 -0.3054  0.7429
    5CHL1  H19A  337  -0.236   6.792   9.795  1.9084  0.6428  0.2324
    5CHL1  H19B  338  -0.254   6.651   9.902 -0.6775  0.1818  0.6507
    5CHL1  H19C  339  -0.203   6.810   9.962  1.7783 -0.7102  1.4482
    5CHL1    C1  340   0.009   6.585   9.958 -0.4009 -0.1641 -0.0971
    5CHL1   H1A  341  -0.062   6.500   9.966 -1.3489  0.6821  0.7458
    5CHL1   H1B  342   0.101   6.535   9.920 -1.1230 -1.1173 -0.6230
    5CHL1    C2  343   0.042   6.627  10.104 -0.5239  0.6313  0.1971
    5CHL1   H2A  344   0.089   6.535  10.145  0.9255  1.0990 -0.3817
    5CHL1   H2B  345  -0.054   6.638  10.159 -0.3978 -1.4813  0.9268
    5CHL1   C20  346  -0.142   6.525   9.175 -0.0949 -1.1164  0.0452
    5CHL1   H20  347  -0.242   6.572   9.178  0.2815 -0.1830 -1.1267
    5CHL1   C21  348  -0.145   6.378   9.220  0.4537 -0.3832 -0.1012
    5CHL1  H21A  349  -0.186   6.311   9.141 -0.9973 -0.7489  0.9241
    5CHL1  H21B  350  -0.220   6.377   9.301 -0.9190 -0.6957 -1.3241
    5CHL1  H21C  351  -0.047   6.342   9.258  0.1054  1.3400  2.6981
    5CHL1   C22  352  -0.100   6.539   9.027  0.0262 -0.0670 -0.0939
    5CHL1  H22A  353  -0.178   6.478   8.977  1.1544 -0.2840 -1.6845
    5CHL1  H22B  354  -0.116   6.641   8.984  0.5345 -0.5045 -1.3723
    5CHL1   C23  355   0.040   6.490   9.001 -0.0821 -0.0495  0.5258
    5CHL1  H23A  356   0.113   6.545   9.065 -2.3493 -0.2689  3.5267
    5CHL1  H23B  357   0.038   6.383   9.031 -0.6443  0.6043  3.0784
    5CHL1   C24  358   0.070   6.498   8.853 -1.0115 -0.0841 -0.0661
    5CHL1  H24A  359  -0.008   6.458   8.784  0.2533  0.5806 -1.9433
    5CHL1  H24B  360   0.082   6.606   8.832  0.7377  0.1417  1.7726
    5CHL1   C25  361   0.209   6.430   8.818  0.1303 -0.0733 -0.1162
    5CHL1   H25  362   0.293   6.453   8.886  0.8970  0.0763 -1.0936
    5CHL1   C26  363   0.200   6.274   8.835  0.1912  0.5699 -0.3060
    5CHL1  H26A  364   0.283   6.220   8.784 -1.1328 -1.3990 -0.4732
    5CHL1  H26B  365   0.209   6.264   8.945 -2.9472  3.4099  0.3887
    5CHL1  H26C  366   0.101   6.233   8.808 -0.3678  1.1137  0.8691
    5CHL1   C27  367   0.257   6.454   8.675  0.2314  0.1330 -0.4690
    5CHL1  H27A  368   0.164   6.436   8.617 -0.1203  1.4716 -0.3582
    5CHL1  H27B  369   0.282   6.562   8.662  0.4867  0.3546  1.4911
    5CHL1  H27C  370   0.340   6.384   8.657  0.1116  0.2458 -1.5088
    6CHL1    C3  371   3.983   4.991  10.283  0.2363 -0.9581 -0.2467
    6CHL1    H3  372   3.890   4.930  10.282  0.1414 -0.8841 -2.5257
    6CHL1    O3  373   4.004   5.035  10.415  0.6204 -0.4831 -0.4480
    6CHL1   H3'  374   4.059   4.974  10.464  0.2491 -1.3952 -1.1213
    6CHL1    C4  375   4.097   4.888  10.242  0.7471 -0.2374 -0.2182
    6CHL1   H4A  376   4.195   4.940  10.251  0.6963 -0.3431  1.2058
    6CHL1   H4B  377   4.104   4.807  10.318  0.8197 -1.2358 -1.2590
    6CHL1    C5  378   4.072   4.831  10.102  0.1988  0.4377 -0.0328
    6CHL1    C6  379   4.070   4.699  10.081  0.1437  0.5953  0.7599
    6CHL1    H6  380   4.092   4.631  10.165 -1.8688 -0.7350  0.2847
    6CHL1    C7  381   4.075   4.642   9.944 -0.0162 -0.6565 -0.1424
    6CHL1   H7A  382   4.153   4.563   9.944  0.6449 -0.0187  0.0778
    6CHL1   H7B  383   3.986   4.588   9.907 -1.6896  0.8806  1.4376
    6CHL1    C8  384   4.109   4.743   9.838  0.2382  0.3725  0.3012
    6CHL1    H8  385   4.212   4.784   9.848  1.9609 -2.1657 -4.2218
    6CHL1   C14  386   4.098   4.678   9.696 -0.4622  0.5371 -0.6474
    6CHL1   H14  387   3.989   4.663   9.679 -0.5033  1.5498 -1.3084
    6CHL1   C15  388   4.154   4.540   9.667  0.0413 -0.0021 -0.4115
    6CHL1  H15A  389   4.241   4.519   9.732 -1.3055  1.4418  2.0241
    6CHL1  H15B  390   4.077   4.462   9.690  1.0296 -0.4555  1.5376
    6CHL1   C16  391   4.188   4.545   9.521 -0.2700  0.5928 -0.6013
    6CHL1  H16A  392   4.297   4.531   9.510 -0.4276 -0.4778 -0.9825
    6CHL1  H16B  393   4.150   4.461   9.459 -1.9525  2.1717 -1.8269
    6CHL1   C17  394   4.130   4.678   9.462  0.0862  0.2671 -0.3119
    6CHL1   H17  395   4.021   4.657   9.449 -0.6945 -0.7948  5.3056
    6CHL1   C13  396   4.137   4.777   9.581  0.1696 -0.7342  0.2697
    6CHL1   C18  397   4.283   4.820   9.604 -0.2150 -0.2930 -0.4024
    6CHL1  H18A  398   4.324   4.886   9.525 -2.1702  2.4408  0.7385
    6CHL1  H18B  399   4.301   4.874   9.699  1.0193  0.3615 -0.9781
    6CHL1  H18C  400   4.353   4.733   9.605  0.1754  0.0103  0.8873
    6CHL1   C12  401   4.036   4.897   9.591  0.3743  1.2799 -0.6720
    6CHL1  H12A  402   4.067   4.967   9.510 -1.4525  1.0746 -1.5942
    6CHL1  H12B  403   3.932   4.871   9.561  0.9040 -1.1553 -0.5478
    6CHL1   C11  404   4.035   4.971   9.729  0.1105 -0.2784 -0.2760
    6CHL1  H11A  405   4.137   5.015   9.732  0.7149 -1.6275  0.0911
    6CHL1  H11B  406   3.958   5.051   9.735 -0.3547 -0.7799  0.7511
    6CHL1    C9  407   4.025   4.871   9.852  0.2879 -0.4564 -0.7593
    6CHL1    H9  408   3.917   4.845   9.857  0.0744  0.5645  0.4854
    6CHL1   C10  409   4.055   4.937   9.990 -0.0407  1.0871 -0.4334
    6CHL1   C19  410   4.194   5.010   9.981  0.5921 -0.2460 -0.3486
    6CHL1  H19A  411   4.209   5.054  10.081 -2.7807 -1.6141  0.9186
    6CHL1  H19B  412   4.280   4.946   9.949  1.3378 -0.2695  1.5949
    6CHL1  H19C  413   4.189   5.100   9.917 -3.4433 -0.5596 -0.7334
    6CHL1    C1  414   3.937   5.040  10.040 -0.4062  0.9421 -0.6082
    6CHL1   H1A  415   3.921   5.116   9.961  0.4887  3.0019  1.0827
    6CHL1   H1B  416   3.844   4.980  10.041  0.7198 -0.8483 -0.1940
    6CHL1    C2  417   3.960   5.100  10.183  0.5249 -0.2736 -0.0412
    6CHL1   H2A  418   3.876   5.167  10.211  1.8679  1.2760  0.4630
    6CHL1   H2B  419   4.047   5.170  10.186  0.4615 -0.1838  2.9850
    6CHL1   C20  420   4.196   4.720   9.329 -0.6233  1.0904  0.1886
    6CHL1   H20  421   4.303   4.748   9.343  0.0882 -1.1461 -0.4252
    6CHL1   C21  422   4.121   4.840   9.264 -0.4292  0.4196 -0.2645
    6CHL1  H21A  423   4.013   4.815   9.258 -0.2565 -0.1704 -1.1583
    6CHL1  H21B  424   4.151   4.861   9.159 -2.6855  1.1464 -0.7990
    6CHL1  H21C  425   4.151   4.925   9.328 -0.3111 -0.1976  0.5196
    6CHL1   C22  426   4.204   4.596   9.235  0.6200 -0.4648 -0.3315
    6CHL1  H22A  427   4.270   4.520   9.282 -2.4948 -3.2030  0.0059
    6CHL1  H22B  428   4.108   4.541   9.229 -1.3273  2.7836 -1.1062
    6CHL1   C23  429   4.257   4.630   9.091  0.2300  0.3319 -0.5360
    6CHL1  H23A  430   4.182   4.687   9.031  1.1687  3.2734  0.8746
    6CHL1  H23B  431   4.355   4.680   9.105 -0.1914  0.9044  0.4978
    6CHL1   C24  432   4.298   4.501   9.010 -0.1024  0.7429 -0.4153
    6CHL1  H24A  433   4.369   4.430   9.058 -1.2027  0.0050  0.1486
    6CHL1  H24B  434   4.208   4.442   8.985  1.0348 -1.2159 -0.1028
    6CHL1   C25  435   4.371   4.535   8.877 -0.3319  0.2968 -0.0934
    6CHL1   H25  436   4.448   4.613   8.897  0.0992 -0.3580  0.8975
    6CHL1   C26  437   4.445   4.415   8.821  0.5004  0.3098 -0.8784
    6CHL1  H26A  438   4.515   4.381   8.900 -1.8750 -0.9104  0.8359
    6CHL1  H26B  439   4.371   4.333   8.809  1.4098 -0.5891 -0.4627
    6CHL1  H26C  440   4.496   4.431   8.724 -0.2220  0.1395 -1.2956
    6CHL1   C27  441   4.282   4.587   8.764 -0.4846  1.0054 -0.2893
    6CHL1  H27A  442   4.192   4.522   8.760 -1.0144  1.7512 -0.6791
    6CHL1  H27B  443   4.248   4.692   8.772 -0.3605  1.0374 -0.1769
    6CHL1  H27C  444   4.333   4.570   8.667  0.0413  0.9865 -0.0195
    7CHL1    C3  445   1.853   5.735  10.375  0.4916 -0.5937 -1.0091
    7CHL1    H3  446   1.937   5.671  10.340  0.8886 -0.2147 -0.7637
    7CHL1    O3  447   1.841   5.731  10.515  0.0781 -0.0852 -0.2669
    7CHL1   H3'  448   1.801   5.815  10.536  0.5392 -0.0921  0.6673
    7CHL1    C4  449   1.879   5.885  10.343 -0.0643 -0.1870 -0.3705
    7CHL1   H4A  450   1.791   5.944  10.378  0.5149 -0.4857  1.7331
    7CHL1   H4B  451   1.973   5.906  10.399 -0.2669  0.1739 -0.1617
    7CHL1    C5  452   1.897   5.901  10.195  0.2108 -0.0383  0.2665
    7CHL1    C6  453   2.012   5.939  10.137  0.3935 -0.2413  0.8501
    7CHL1    H6  454   2.099   5.965  10.201  1.0658  0.3912 -0.2892
    7CHL1    C7  455   2.032   5.960   9.986 -0.0733 -0.1772 -0.3438
    7CHL1   H7A  456   2.099   6.048   9.985 -1.1651  0.8473  2.9582
    7CHL1   H7B  457   2.092   5.877   9.944 -0.2977  0.2365 -1.4947
    7CHL1    C8  458   1.898   5.973   9.909 -0.6944 -0.5111  0.1176
    7CHL1    H8  459   1.853   6.071   9.935 -1.7371 -1.2499  1.2356
    7CHL1   C14  460   1.918   5.950   9.767 -0.1082  0.7142  0.3783
    7CHL1   H14  461   1.973   5.854   9.759  0.3626  0.9459  0.7766
    7CHL1   C15  462   2.025   6.037   9.693  0.1753 -0.4143 -0.3464
    7CHL1  H15A  463   2.007   6.143   9.723 -0.1881 -0.4735 -0.3584
    7CHL1  H15B  464   2.132   6.015   9.715 -0.0306 -1.0069  0.0985
    7CHL1   C16  465   2.003   6.002   9.549 -0.8012 -0.0835  0.9110
    7CHL1  H16A  466   2.003   6.098   9.494  1.9153 -0.3581  0.2679
    7CHL1  H16B  467   2.093   5.945   9.516  0.7204  2.3650  0.5146
    7CHL1   C17  468   1.863   5.926   9.536 -0.3804  0.4480  0.0438
    7CHL1   H17  469   1.904   5.823   9.534  2.1227  1.3215  1.5867
    7CHL1   C13  470   1.794   5.946   9.673  0.4296  0.0011  0.2852
    7CHL1   C18  471   1.728   6.088   9.662 -0.2926  0.0088  0.3314
    7CHL1  H18A  472   1.661   6.101   9.574 -1.2294 -0.3443  0.9792
    7CHL1  H18B  473   1.683   6.116   9.760 -0.3863 -3.3489  1.3814
    7CHL1  H18C  474   1.803   6.167   9.644 -0.6090 -0.1259 -1.9081
    7CHL1   C12  475   1.702   5.837   9.720 -0.6664 -0.3363  1.0193
    7CHL1  H12A  476   1.608   5.854   9.664  0.3501  1.9085 -0.1594
    7CHL1  H12B  477   1.750   5.738   9.712  0.7461  0.4416 -0.9209
    7CHL1   C11  478   1.668   5.853   9.871  0.7668 -0.1125 -0.3018
    7CHL1  H11A  479   1.596   5.938   9.871  1.6003  0.7102  2.3175
    7CHL1  H11B  480   1.624   5.757   9.907  3.1538 -2.4830 -3.2464
    7CHL1    C9  481   1.799   5.869   9.960 -0.0370  0.5952  0.8029
    7CHL1    H9  482   1.853   5.774   9.941 -1.6321  0.2024 -2.5765
    7CHL1   C10  483   1.769   5.865  10.119  0.4309 -0.0251 -0.1903
    7CHL1   C19  484   1.661   5.977  10.144  0.0661 -0.2535  0.2889
    7CHL1  H19A  485   1.686   6.084  10.127 -1.1542  0.0361  0.2646
    7CHL1  H19B  486   1.571   5.962  10.082  1.0006  1.5789 -1.6474
    7CHL1  H19C  487   1.637   5.969  10.252  2.7665 -0.6705  0.9499
    7CHL1    C1  488   1.726   5.722  10.157 -0.7904 -0.1049  0.3277
    7CHL1   H1A  489   1.624   5.693  10.123 -1.8102  1.1577  2.1184
    7CHL1   H1B  490   1.803   5.657  10.111 -0.1061  0.5858  0.4885
    7CHL1    C2  491   1.717   5.697  10.304  0.0418 -0.1722 -0.5475
    7CHL1   H2A  492   1.708   5.590  10.334  0.9624 -0.3019 -0.6908
    7CHL1   H2B  493   1.631   5.752  10.348 -0.3832 -1.3726  0.1581
    7CHL1   C20  494   1.791   5.939   9.402  0.2655  0.6900 -0.1747
    7CHL1   H20  495   1.756   6.044   9.396 -1.4317  0.2870  1.4866
    7CHL1   C21  496   1.659   5.856   9.397 -0.0420 -0.0989  0.7088
    7CHL1  H21A  497   1.680   5.749   9.418  2.5897 -0.1444 -1.6538
    7CHL1  H21B  498   1.610   5.855   9.297 -2.2636 -0.0223  1.7286
    7CHL1  H21C  499   1.581   5.895   9.467 -0.5559  0.6584 -0.2670
    7CHL1   C22  500   1.883   5.916   9.285  0.1570 -0.2987 -0.2281
    7CHL1  H22A  501   1.958   5.998   9.287  0.0057 -0.1537 -0.4191
    7CHL1  H22B  502   1.929   5.815   9.291  0.5091 -0.0718  1.2058
    7CHL1   C23  503   1.825   5.934   9.145  0.2589 -0.3263  0.1393
    7CHL1  H23A  504   1.733   5.871   9.142 -0.1601  0.2600  0.5014
    7CHL1  H23B  505   1.784   6.035   9.126 -1.2669 -0.9720 -0.1710
    7CHL1   C24  506   1.924   5.918   9.038  0.5638  0.1987  0.8522
    7CHL1  H24A  507   2.009   5.986   9.062  1.5047 -0.4343 -0.5749
    7CHL1  H24B  508   1.965   5.815   9.039  0.3769  0.0761 -0.8407
    7CHL1   C25  509   1.880   5.938   8.884 -0.8027 -0.4654 -0.1031
    7CHL1   H25  510   1.856   6.046   8.878  0.6717  0.0327  1.7006
    7CHL1   C26  511   1.996   5.900   8.787 -0.1195 -0.0476 -0.2155
    7CHL1  H26A  512   1.958   5.913   8.684  0.1454 -1.5388 -0.5212
    7CHL1  H26B  513   2.076   5.973   8.813 -0.6058  0.2464  0.5126
    7CHL1  H26C  514   2.031   5.796   8.801 -2.9091 -1.3516 -2.0466
    7CHL1   C27  515   1.753   5.862   8.850 -0.0099 -0.5404 -0.1900
    7CHL1  H27A  516   1.714   5.857   8.746 -0.9058  0.0321  0.1015
    7CHL1  H27B  517   1.744   5.763   8.900  3.8109 -0.7857  0.3051
    7CHL1  H27C  518   1.668   5.913   8.901  1.6724  1.2775  0.9491
    8CHL1    C3  519   2.067   2.181  10.464 -0.1735  0.2778  1.1360
    8CHL1    H3  520   2.120   2.269  10.420 -0.8090  1.4703  2.6646
    8CHL1    O3  521   2.056   2.205  10.605 -0.2982 -0.0205  0.0950
    8CHL1   H3'  522   2.048   2.128  10.662 -1.6574  2.1605  3.1107
    8CHL1    C4  523   1.934   2.149  10.398 -0.3119 -0.0937  0.3188
    8CHL1   H4A  524   1.886   2.063  10.450  0.0603 -0.0409  0.7657
    8CHL1   H4B  525   1.863   2.234  10.407 -0.3754  0.1583 -2.0629
    8CHL1    C5  526   1.960   2.127  10.244 -0.4699 -0.2085 -0.8856
    8CHL1    C6  527   1.898   2.203  10.157  0.5075  0.6285  0.7522
    8CHL1    H6  528   1.829   2.282  10.189  0.2971  1.0136 -0.5720
    8CHL1    C7  529   1.913   2.195  10.009 -0.1570  0.1950  0.3249
    8CHL1   H7A  530   1.817   2.194   9.954  0.5246  1.2592 -0.9470
    8CHL1   H7B  531   1.971   2.281   9.970  1.6640 -1.6785 -1.3426
    8CHL1    C8  532   1.986   2.067   9.967 -0.6830  0.8014 -0.3751
    8CHL1    H8  533   1.911   1.986   9.966 -1.9173  1.9017 -0.6037
    8CHL1   C14  534   2.035   2.076   9.826 -0.7424 -0.1519  0.7247
    8CHL1   H14  535   2.114   2.154   9.822 -0.3695 -0.5377  0.4626
    8CHL1   C15  536   1.932   2.114   9.714 -0.4311  0.6399  0.3543
    8CHL1  H15A  537   1.841   2.049   9.716  1.2689 -1.8721  0.5338
    8CHL1  H15B  538   1.913   2.223   9.718  0.7615  0.8636  0.1942
    8CHL1   C16  539   2.003   2.082   9.588  0.0762 -0.2792 -0.0279
    8CHL1  H16A  540   1.931   2.018   9.532 -0.8985  1.3937 -0.7673
    8CHL1  H16B  541   2.028   2.165   9.519 -0.0962  0.5683  0.9059
    8CHL1   C17  542   2.123   1.997   9.621  0.0225  0.1344 -0.5073
    8CHL1   H17  543   2.209   2.066   9.631  0.7616 -0.7454 -0.5720
    8CHL1   C13  544   2.106   1.952   9.775 -0.0449  0.0756  0.0384
    8CHL1   C18  545   2.013   1.827   9.768 -0.5144  0.2182  0.2961
    8CHL1  H18A  546   2.067   1.736   9.734 -0.9726  0.2638 -0.5864
    8CHL1  H18B  547   1.983   1.814   9.874  0.5111 -1.9279  0.3776
    8CHL1  H18C  548   1.914   1.842   9.721 -0.7061  2.4897  1.2790
    8CHL1   C12  549   2.230   1.928   9.863  0.1315  0.1771  0.1569
    8CHL1  H12A  550   2.296   1.847   9.824  0.0211 -0.3011  0.9509
    8CHL1  H12B  551   2.287   2.023   9.853 -0.7565  0.5617 -1.8224
    8CHL1   C11  552   2.195   1.916  10.015  0.2088 -0.0076  0.4318
    8CHL1  H11A  553   2.137   1.824  10.039  3.6706 -2.1640  1.1951
    8CHL1  H11B  554   2.291   1.913  10.071  0.4540 -1.0193 -0.0163
    8CHL1    C9  555   2.102   2.032  10.063 -0.6952 -0.2412  0.4119
    8CHL1    H9  556   2.173   2.117  10.055 -0.5940 -0.1895  1.6465
    8CHL1   C10  557   2.065   2.022  10.214  0.1034 -0.5131  0.8916
    8CHL1   C19  558   2.002   1.877  10.248 -0.2150 -0.2037  0.0299
    8CHL1  H19A  559   1.957   1.867  10.349  3.5628  1.4037  2.1074
    8CHL1  H19B  560   1.923   1.850  10.175  0.3551  1.2551 -1.1894
    8CHL1  H19C  561   2.079   1.799  10.232 -0.4626 -0.2195 -1.1157
    8CHL1    C1  562   2.194   2.050  10.297  0.0112  0.1306  0.4014
    8CHL1   H1A  563   2.248   1.954  10.279 -1.9007 -0.8700 -0.2850
    8CHL1   H1B  564   2.243   2.141  10.256 -1.2806  0.5986 -0.1752
    8CHL1    C2  565   2.173   2.067  10.447 -0.2125 -0.2472 -0.0432
    8CHL1   H2A  566   2.274   2.097  10.483  1.9220 -1.5449 -4.2698
    8CHL1   H2B  567   2.152   1.967  10.490 -0.2538 -0.6261 -0.9270
    8CHL1   C20  568   2.152   1.892   9.512 -0.4374  0.1522 -0.3660
    8CHL1   H20  569   2.071   1.817   9.519 -0.6602  0.5455  2.0431
    8CHL1   C21  570   2.281   1.820   9.550 -0.5513  0.3055 -0.6876
    8CHL1  H21A  571   2.363   1.886   9.582 -0.1067  0.1280 -1.4341
    8CHL1  H21B  572   2.321   1.757   9.468 -0.0222  1.4074 -1.2961
    8CHL1  H21C  573   2.266   1.750   9.635 -0.3598 -1.0302 -1.7136
    8CHL1   C22  574   2.171   1.960   9.377  0.0322 -0.6873  0.1895
    8CHL1  H22A  575   2.081   2.020   9.351 -0.1977 -1.2780 -0.3755
    8CHL1  H22B  576   2.273   2.005   9.379  0.5210 -1.7560 -0.1904
    8CHL1   C23  577   2.167   1.854   9.266 -0.6412  0.8222  0.5298
    8CHL1  H23A  578   2.203   1.901   9.172 -0.0648 -0.9021 -0.1474
    8CHL1  H23B  579   2.238   1.769   9.276 -2.5850 -0.8159  0.9983
    8CHL1   C24  580   2.032   1.785   9.234  0.2631 -0.0276  0.4819
    8CHL1  H24A  581   2.013   1.708   9.312  2.3164 -1.8334 -0.7036
    8CHL1  H24B  582   1.949   1.859   9.237  0.8402  0.7284 -1.1549
    8CHL1   C25  583   2.016   1.715   9.102  0.2079  0.2527  0.0846
    8CHL1   H25  584   1.907   1.703   9.085  0.1913 -0.6117  0.7227
    8CHL1   C26  585   2.067   1.798   8.980  0.2603 -0.1839  1.1221
    8CHL1  H26A  586   2.044   1.907   8.985  0.0651 -0.1791  0.2848
    8CHL1  H26B  587   2.178   1.792   8.970  0.2666 -1.6800  1.8218
    8CHL1  H26C  588   2.021   1.756   8.888  1.7240 -0.0157  0.2676
    8CHL1   C27  589   2.073   1.576   9.106 -0.3816  0.5733  0.6402
    8CHL1  H27A  590   2.183   1.588   9.113 -0.1918  0.7901 -1.8199
    8CHL1  H27B  591   2.044   1.513   9.193 -2.8781 -2.1674 -1.8916
    8CHL1  H27C  592   2.038   1.526   9.013 -0.5798  1.6935  0.0940
    9CHL1    C3  593   4.419   5.907  10.219  0.2835  0.4440 -0.3243
    9CHL1    H3  594   4.384   5.802  10.232 -0.0130  0.5139 -0.5412
    9CHL1    O3  595   4.424   5.974  10.347  0.3804  0.0696  0.3814
    9CHL1   H3'  596   4.485   6.045  10.326  1.3031 -1.0821 -1.1302
    9CHL1    C4  597   4.563   5.889  10.164  0.4840  0.3322  0.3481
    9CHL1   H4A  598   4.600   5.994  10.162 -0.3346  0.6589  1.2056
    9CHL1   H4B  599   4.622   5.827  10.235  0.3633 -0.6834 -0.4230
    9CHL1    C5  600   4.559   5.836  10.023  0.2646  0.3737  0.0681
    9CHL1    C6  601   4.608   5.714   9.989 -0.1560 -0.4564  0.0785
    9CHL1    H6  602   4.661   5.649  10.059 -0.7739 -2.2011 -1.0207
    9CHL1    C7  603   4.597   5.656   9.848 -0.2522 -0.5280 -0.2510
    9CHL1   H7A  604   4.688   5.595   9.830  1.6156  1.9999  0.1838
    9CHL1   H7B  605   4.504   5.594   9.845 -1.8392  1.6689  0.8294
    9CHL1    C8  606   4.562   5.765   9.740 -0.1854  0.6994  0.6739
    9CHL1    H8  607   4.654   5.823   9.718  0.0682 -0.3891 -1.4907
    9CHL1   C14  608   4.516   5.694   9.609 -1.0111  0.1987 -0.0871
    9CHL1   H14  609   4.426   5.638   9.643 -1.5375  1.6516  1.0304
    9CHL1   C15  610   4.618   5.599   9.552 -0.4095  0.2628  0.3674
    9CHL1  H15A  611   4.724   5.632   9.538  0.6405 -2.6487  0.8602
    9CHL1  H15B  612   4.632   5.505   9.609  2.8951 -0.7326 -1.7822
    9CHL1   C16  613   4.579   5.573   9.409 -0.2266 -0.2214  0.5739
    9CHL1  H16A  614   4.663   5.586   9.338 -0.3696  0.6223  0.5512
    9CHL1  H16B  615   4.545   5.468   9.394 -0.3185  0.1692 -2.4998
    9CHL1   C17  616   4.461   5.667   9.378 -0.3149  0.2343 -0.1006
    9CHL1   H17  617   4.365   5.616   9.404 -0.4984  0.0298 -1.1057
    9CHL1   C13  618   4.473   5.778   9.491  0.7081 -0.2509 -0.8583
    9CHL1   C18  619   4.585   5.872   9.441  0.2240 -0.8699 -0.1042
    9CHL1  H18A  620   4.616   5.938   9.525 -0.9581 -0.7436  0.2519
    9CHL1  H18B  621   4.676   5.823   9.399 -0.3471 -1.3437 -0.8287
    9CHL1  H18C  622   4.549   5.937   9.359 -0.6173 -0.9124  0.2315
    9CHL1   C12  623   4.349   5.863   9.537  0.4788 -0.4652 -0.9594
    9CHL1  H12A  624   4.320   5.926   9.450  0.3184 -0.9108 -1.2330
    9CHL1  H12B  625   4.271   5.786   9.556  0.3622 -0.1525 -0.1461
    9CHL1   C11  626   4.384   5.937   9.669 -0.0064  0.1488  0.4051
    9CHL1  H11A  627   4.451   6.020   9.638 -2.1903  1.8637  0.0113
    9CHL1  H11B  628   4.286   5.973   9.707 -1.1388 -1.1383 -1.1302
    9CHL1    C9  629   4.450   5.853   9.786  0.0249  0.2771  0.2361
    9CHL1    H9  630   4.375   5.772   9.800 -0.5250 -0.1647 -4.0282
    9CHL1   C10  631   4.472   5.922   9.922  0.0189 -0.1847 -0.8093
    9CHL1   C19  632   4.531   6.058   9.893  0.2651  0.1460 -0.2398
    9CHL1  H19A  633   4.468   6.114   9.820 -0.4119 -1.3767 -0.8729
    9CHL1  H19B  634   4.540   6.118   9.986  0.7240  0.9039 -0.7476
    9CHL1  H19C  635   4.627   6.048   9.838  0.2246  1.1504 -0.5175
    9CHL1    C1  636   4.329   5.947   9.984  0.5386  0.0821  0.0324
    9CHL1   H1A  637   4.286   6.028   9.922  1.3841 -0.3648 -1.1847
    9CHL1   H1B  638   4.273   5.851   9.977  0.9663 -0.1533 -0.2240
    9CHL1    C2  639   4.329   5.994  10.130 -0.1411 -0.2471  1.1963
    9CHL1   H2A  640   4.226   5.995  10.172 -2.2549  1.6683 -3.3513
    9CHL1   H2B  641   4.362   6.100  10.143  1.4322 -0.6537  0.7189
    9CHL1   C20  642   4.457   5.698   9.225 -0.1508  0.4779 -0.1090
    9CHL1   H20  643   4.534   5.774   9.199 -1.3538  0.9642 -2.5380
    9CHL1   C21  644   4.319   5.760   9.199 -0.6390  0.0895 -0.3560
    9CHL1  H21A  645   4.243   5.682   9.221 -1.2735  0.9898  0.7271
    9CHL1  H21B  646   4.315   5.814   9.102  0.8721  1.4441  0.2985
    9CHL1  H21C  647   4.310   5.839   9.276  1.5155  2.0203 -1.9547
    9CHL1   C22  648   4.489   5.580   9.123  0.4334 -0.1931 -0.4165
    9CHL1  H22A  649   4.595   5.549   9.132  0.1293 -1.3644 -0.5818
    9CHL1  H22B  650   4.427   5.496   9.162  1.1492 -0.1648  0.8142
    9CHL1   C23  651   4.461   5.619   8.978 -0.0548 -0.3464  0.0000
    9CHL1  H23A  652   4.351   5.638   8.971 -0.0570  0.3127  1.3188
    9CHL1  H23B  653   4.503   5.721   8.967 -0.2641 -0.0821  1.3895
    9CHL1   C24  654   4.505   5.518   8.876  0.5963  0.2500 -0.0245
    9CHL1  H24A  655   4.614   5.507   8.888  0.3506 -2.3732  0.3307
    9CHL1  H24B  656   4.464   5.420   8.910  0.9347  0.0387 -0.2187
    9CHL1   C25  657   4.463   5.539   8.724 -0.1499  0.5850 -0.5259
    9CHL1   H25  658   4.480   5.645   8.694 -0.9522  0.7935 -0.2879
    9CHL1   C26  659   4.548   5.441   8.632  0.6335 -0.1584  0.0113
    9CHL1  H26A  660   4.656   5.461   8.644  0.5300 -0.2870  1.2486
    9CHL1  H26B  661   4.547   5.331   8.645  0.5569 -0.7049 -3.4612
    9CHL1  H26C  662   4.534   5.456   8.522  2.5431 -1.8757 -0.5153
    9CHL1   C27  663   4.313   5.517   8.696  0.4845 -0.5940 -0.1366
    9CHL1  H27A  664   4.272   5.423   8.741 -0.0064 -0.0604  0.5635
    9CHL1  H27B  665   4.250   5.595   8.744  0.0469 -1.5798  0.9658
    9CHL1  H27C  666   4.304   5.509   8.586 -1.8775 -1.1952  0.0238
   10CHL1    C3  667   3.827   3.480  10.063  0.4894  0.1025  0.0242
   10CHL1    H3  668   3.869   3.377  10.055 -0.0708 -0.4823  3.2608
   10CHL1    O3  669   3.776   3.492  10.197 -0.3932 -0.1501  0.4232
   10CHL1   H3'  670   3.748   3.583  10.196  0.9449  0.2872  0.8144
   10CHL1    C4  671   3.923   3.590  10.027  0.2399  0.2114  0.7243
   10CHL1   H4A  672   3.879   3.692  10.029  0.2364  0.2919 -1.1134
   10CHL1   H4B  673   4.010   3.581  10.095  0.3789  1.5964  0.7713
   10CHL1    C5  674   3.967   3.561   9.880  0.1340 -0.3599  0.7474
   10CHL1    C6  675   4.096   3.550   9.847 -0.1161 -0.4901 -0.5550
   10CHL1    H6  676   4.169   3.559   9.928  0.2915  0.5432 -1.0271
   10CHL1    C7  677   4.143   3.527   9.709  0.7456 -0.5649 -1.0902
   10CHL1   H7A  678   4.243   3.573   9.691 -0.8908  3.3691 -1.0165
   10CHL1   H7B  679   4.158   3.417   9.704  0.6505 -0.6216 -0.2671
   10CHL1    C8  680   4.043   3.574   9.610  0.6641 -0.1567  0.2133
   10CHL1    H8  681   4.035   3.685   9.605  1.8099 -0.0321  0.6411
   10CHL1   C14  682   4.089   3.533   9.471 -0.0842 -0.2093 -0.2183
   10CHL1   H14  683   4.120   3.427   9.484 -0.4886 -0.2227  0.7098
   10CHL1   C15  684   4.221   3.595   9.425 -0.0637 -0.4843  0.0945
   10CHL1  H15A  685   4.226   3.706   9.426  0.4705 -0.4859 -0.9839
   10CHL1  H15B  686   4.311   3.554   9.476 -0.9956  0.8548  3.0147
   10CHL1   C16  687   4.221   3.554   9.275  0.3625  0.2897  0.3074
   10CHL1  H16A  688   4.259   3.640   9.216 -0.2003  1.4537  1.5676
   10CHL1  H16B  689   4.298   3.476   9.263  0.4000  0.5235 -1.1972
   10CHL1   C17  690   4.077   3.510   9.239 -0.2088  0.4567  0.3779
   10CHL1   H17  691   4.072   3.399   9.247  0.1697  0.4027 -0.0743
   10CHL1   C13  692   3.993   3.560   9.353 -0.0679 -0.4355 -0.6937
   10CHL1   C18  693   3.968   3.715   9.329 -0.9820 -0.3896  0.2446
   10CHL1  H18A  694   4.053   3.764   9.277 -0.8779 -0.4661  0.3419
   10CHL1  H18B  695   3.878   3.747   9.272  1.8492  3.0327 -2.8612
   10CHL1  H18C  696   3.969   3.760   9.431  1.7725 -0.1739  0.1877
   10CHL1   C12  697   3.862   3.482   9.393 -0.0981  0.4815  0.3553
   10CHL1  H12A  698   3.783   3.500   9.318  1.2516  0.1015 -1.2335
   10CHL1  H12B  699   3.888   3.376   9.369  1.4032  1.0014 -0.4514
   10CHL1   C11  700   3.803   3.526   9.524 -0.5383  0.6080  0.2012
   10CHL1  H11A  701   3.786   3.634   9.509  1.3904  0.9613  0.2859
   10CHL1  H11B  702   3.710   3.471   9.551 -0.9845  1.8874  1.3605
   10CHL1    C9  703   3.904   3.510   9.637 -0.8460 -0.2856 -0.3819
   10CHL1    H9  704   3.923   3.401   9.645 -2.8056 -0.6390  0.0570
   10CHL1   C10  705   3.852   3.547   9.778 -0.6875 -0.1239  0.6599
   10CHL1   C19  706   3.792   3.689   9.783  0.5828 -0.4796  0.6031
   10CHL1  H19A  707   3.860   3.757   9.728  0.4579 -0.5180  0.4018
   10CHL1  H19B  708   3.693   3.686   9.732  1.6280 -0.7681 -1.5084
   10CHL1  H19C  709   3.772   3.733   9.883 -1.0549 -1.0590  0.5648
   10CHL1    C1  710   3.742   3.443   9.822 -0.6166  0.8387 -0.9274
   10CHL1   H1A  711   3.652   3.442   9.757 -1.0996 -1.2115 -0.2872
   10CHL1   H1B  712   3.784   3.341   9.814 -1.3240  0.5197 -0.6563
   10CHL1    C2  713   3.701   3.470   9.967 -0.7889  0.8251 -0.3177
   10CHL1   H2A  714   3.656   3.374   9.999  3.8104 -1.8554 -1.0910
   10CHL1   H2B  715   3.641   3.564   9.972 -1.0004  0.8012 -1.8129
   10CHL1   C20  716   4.041   3.540   9.094  0.0210  0.4442 -0.0191
   10CHL1   H20  717   4.043   3.650   9.079  1.0549  0.4456  0.0237
   10CHL1   C21  718   3.893   3.499   9.073  0.3786 -0.3869 -1.2638
   10CHL1  H21A  719   3.874   3.501   8.964 -0.4777  0.5948 -1.1202
   10CHL1  H21B  720   3.823   3.569   9.124  0.8837 -1.2650  0.7419
   10CHL1  H21C  721   3.877   3.392   9.096  1.8647 -0.5179 -0.7576
   10CHL1   C22  722   4.131   3.450   9.006 -0.0001  0.1584 -0.0482
   10CHL1  H22A  723   4.234   3.475   9.038 -0.3847 -0.7009  2.0191
   10CHL1  H22B  724   4.128   3.340   9.016 -0.6817  0.3285  2.1177
   10CHL1   C23  725   4.130   3.481   8.855  0.6089  0.2405  0.4798
   10CHL1  H23A  726   4.041   3.444   8.799 -0.8870  1.9323  1.5913
   10CHL1  H23B  727   4.112   3.589   8.835 -3.4858 -0.3810 -0.1948
   10CHL1   C24  728   4.269   3.445   8.791  0.2568 -0.4527 -0.0837
   10CHL1  H24A  729   4.270   3.478   8.685 -4.5592 -0.0253 -0.2096
   10CHL1  H24B  730   4.345   3.492   8.857  0.0329  0.1813 -0.2671
   10CHL1   C25  731   4.301   3.289   8.786  0.1266  0.0795  0.2579
   10CHL1   H25  732   4.301   3.244   8.888 -0.7339  0.9280  0.6539
   10CHL1   C26  733   4.209   3.206   8.696 -0.2880  0.3187  0.3849
   10CHL1  H26A  734   4.227   3.098   8.713  2.2715 -0.0657 -3.4248
   10CHL1  H26B  735   4.102   3.231   8.715 -0.1341 -0.5167  2.5718
   10CHL1  H26C  736   4.233   3.227   8.589  1.1906  0.1277  0.6608
   10CHL1   C27  737   4.449   3.262   8.749  1.0584 -0.8812  0.2599
   10CHL1  H27A  738   4.526   3.318   8.807  1.6541 -0.5498 -0.8354
   10CHL1  H27B  739   4.467   3.152   8.749 -0.5157 -1.1937 -1.5540
   10CHL1  H27C  740   4.448   3.295   8.643  1.9621 -0.3456  0.4135
   11CHL1    C3  741   0.469   3.914  10.088  0.5534 -0.3416 -0.5645
   11CHL1    H3  742   0.441   3.806  10.092 -0.3222 -0.1028  2.9125
   11CHL1    O3  743   0.473   3.956  10.223  0.3092  0.2591 -0.2084
   11CHL1   H3'  744   0.389   3.927  10.260  0.5680 -0.3062 -0.0478
   11CHL1    C4  745   0.605   3.928  10.020 -0.2820  0.6498 -0.1078
   11CHL1   H4A  746   0.648   4.027  10.048  0.2038  0.3809  0.1004
   11CHL1   H4B  747   0.670   3.859  10.078 -0.9095 -0.7474 -1.0211
   11CHL1    C5  748   0.631   3.918   9.866 -0.6923 -0.2466 -0.4980
   11CHL1    C6  749   0.721   3.842   9.806 -0.1053 -0.0192 -0.6723
   11CHL1    H6  750   0.780   3.771   9.865 -3.2650 -3.1337 -0.9177
   11CHL1    C7  751   0.740   3.827   9.657 -0.0374 -0.2720 -0.1277
   11CHL1   H7A  752   0.844   3.836   9.620 -0.7732  1.2563 -1.9801
   11CHL1   H7B  753   0.702   3.728   9.624  0.5853 -1.4142  2.3693
   11CHL1    C8  754   0.654   3.934   9.580  0.0797 -0.3408  0.2470
   11CHL1    H8  755   0.709   4.030   9.578  0.1485 -0.3249  1.9226
   11CHL1   C14  756   0.639   3.900   9.428 -0.5746 -0.1647  0.0471
   11CHL1   H14  757   0.576   3.809   9.417 -0.9084  0.0021  0.5083
   11CHL1   C15  758   0.772   3.866   9.357  0.2279 -0.1234 -0.6939
   11CHL1  H15A  759   0.836   3.931   9.420  0.2490 -1.5815  0.8508
   11CHL1  H15B  760   0.823   3.770   9.375  0.2565  0.2462  1.3984
   11CHL1   C16  761   0.756   3.918   9.211 -0.9704  0.1514 -0.1472
   11CHL1  H16A  762   0.823   4.000   9.178 -0.4806 -1.0575 -2.3100
   11CHL1  H16B  763   0.783   3.835   9.143 -2.1787 -0.5305  0.1701
   11CHL1   C17  764   0.606   3.965   9.207 -0.4199 -0.1923  0.3883
   11CHL1   H17  765   0.549   3.873   9.183 -0.3949 -0.1322  0.0969
   11CHL1   C13  766   0.574   4.007   9.350 -0.1782 -1.2387  0.5661
   11CHL1   C18  767   0.638   4.146   9.368 -1.2041 -0.4029 -0.7911
   11CHL1  H18A  768   0.736   4.157   9.317 -0.2769  2.2539  1.2981
   11CHL1  H18B  769   0.566   4.225   9.338 -1.7563 -0.9885 -1.0300
   11CHL1  H18C  770   0.646   4.177   9.475 -1.7894 -1.7855 -0.3246
   11CHL1   C12  771   0.423   4.006   9.395 -0.5669 -0.5786  0.3729
   11CHL1  H12A  772   0.367   4.089   9.346  2.7093  1.1239 -0.8589
   11CHL1  H12B  773   0.381   3.906   9.371 -1.1029 -0.5333  1.1144
   11CHL1   C11  774   0.417   4.037   9.540 -0.2726 -0.0719 -0.2237
   11CHL1  H11A  775   0.446   4.144   9.551  2.3114 -0.5809 -1.4561
   11CHL1  H11B  776   0.313   4.025   9.578 -0.4072  0.7945 -0.2850
   11CHL1    C9  777   0.514   3.950   9.639 -0.1593  0.3902 -0.1249
   11CHL1    H9  778   0.468   3.849   9.634 -1.1164  0.8124 -0.0235
   11CHL1   C10  779   0.518   3.996   9.788 -0.4373 -1.3820 -0.7853
   11CHL1   C19  780   0.544   4.149   9.782 -0.1006 -0.2784  0.1669
   11CHL1  H19A  781   0.569   4.192   9.881  1.9496 -0.0369 -0.4005
   11CHL1  H19B  782   0.624   4.177   9.710 -1.4323  1.8031 -0.5870
   11CHL1  H19C  783   0.453   4.199   9.742 -0.2091 -0.6517 -0.0612
   11CHL1    C1  784   0.380   3.969   9.862  0.1379  0.4049 -0.6887
   11CHL1   H1A  785   0.318   4.037   9.799  1.9419  0.9456 -1.9884
   11CHL1   H1B  786   0.351   3.865   9.836  1.1837 -0.4446  1.3299
   11CHL1    C2  787   0.361   3.997  10.012 -0.3156 -0.3387 -0.4602
   11CHL1   H2A  788   0.260   3.974  10.052  0.2984 -0.3080  1.1879
   11CHL1   H2B  789   0.383   4.105  10.023 -1.5870  0.4322 -3.9284
   11CHL1   C20  790   0.595   4.058   9.079 -1.4779 -0.5685  0.0392
   11CHL1   H20  791   0.658   4.148   9.095 -1.1562 -0.3938 -1.9563
   11CHL1   C21  792   0.453   4.104   9.066  0.3668  0.1497  0.8782
   11CHL1  H21A  793   0.376   4.024   9.068  2.9943 -2.5274  0.1047
   11CHL1  H21B  794   0.435   4.157   8.970 -1.4035 -0.3694  0.8809
   11CHL1  H21C  795   0.434   4.182   9.143 -1.1042  1.2493 -0.5301
   11CHL1   C22  796   0.642   3.985   8.944  0.5701  0.0089 -0.6704
   11CHL1  H22A  797   0.742   3.936   8.956 -0.1937 -1.2756  0.9754
   11CHL1  H22B  798   0.575   3.897   8.932 -0.5272  0.6346  0.6116
   11CHL1   C23  799   0.642   4.069   8.817 -0.2024  0.1208 -0.0078
   11CHL1  H23A  800   0.560   4.143   8.810 -1.4653 -1.2946 -0.8124
   11CHL1  H23B  801   0.730   4.136   8.811  0.6137 -0.9563 -0.4862
   11CHL1   C24  802   0.623   3.979   8.691  1.0570 -0.7598 -0.2417
   11CHL1  H24A  803   0.726   3.945   8.664  2.2675  0.5021  2.3728
   11CHL1  H24B  804   0.569   3.885   8.716 -1.2222  0.4256 -0.4742
   11CHL1   C25  805   0.566   4.052   8.572  0.4349 -0.4304  0.9207
   11CHL1   H25  806   0.474   4.108   8.598 -0.0791 -0.8147 -0.0042
   11CHL1   C26  807   0.661   4.169   8.534  0.9655  0.2567  0.1018
   11CHL1  H26A  808   0.748   4.111   8.497 -0.3364 -0.6653 -1.7220
   11CHL1  H26B  809   0.610   4.232   8.458 -2.0111  0.8419  2.3932
   11CHL1  H26C  810   0.683   4.241   8.616  1.0315  1.5732 -1.0362
   11CHL1   C27  811   0.543   3.961   8.444  0.6536 -0.1505  0.2099
   11CHL1  H27A  812   0.473   4.013   8.375  1.6821  2.6835  1.1687
   11CHL1  H27B  813   0.638   3.950   8.387  0.7390 -0.2030  0.3622
   11CHL1  H27C  814   0.505   3.860   8.470  3.2966 -1.9241 -2.1365
   12CHL1    C3  815   3.240   1.325  10.204  0.0916  0.1654  0.2440
   12CHL1    H3  816   3.131   1.317  10.188  0.4088 -1.5387 -1.5721
   12CHL1    O3  817   3.271   1.334  10.345 -0.0421 -0.2465 -0.2811
   12CHL1   H3'  818   3.223   1.260  10.384  0.5513  0.6749  2.4064
   12CHL1    C4  819   3.311   1.209  10.141 -0.0062  0.4044  0.0037
   12CHL1   H4A  820   3.420   1.222  10.156  0.8540 -2.0659 -2.9729
   12CHL1   H4B  821   3.282   1.113  10.188  1.6632 -0.2719 -0.2777
   12CHL1    C5  822   3.297   1.200   9.984 -0.7021 -0.3683 -0.0338
   12CHL1    C6  823   3.243   1.098   9.920  0.5144  0.0666 -0.5183
   12CHL1    H6  824   3.205   1.012   9.977  1.9667  1.3095  2.5599
   12CHL1    C7  825   3.225   1.078   9.776 -0.0223 -0.4650  0.2290
   12CHL1   H7A  826   3.236   0.972   9.746  0.4834  0.1463 -1.8698
   12CHL1   H7B  827   3.120   1.096   9.742 -0.1787 -1.2056  0.3186
   12CHL1    C8  828   3.305   1.179   9.694  0.2682  0.0001  0.3561
   12CHL1    H8  829   3.411   1.147   9.708 -0.0934 -0.3985  2.5572
   12CHL1   C14  830   3.256   1.183   9.549 -0.5839 -0.2255  0.1225
   12CHL1   H14  831   3.149   1.211   9.561 -0.3112  0.0171  2.6304
   12CHL1   C15  832   3.247   1.047   9.479  0.1370 -0.7033  0.7132
   12CHL1  H15A  833   3.345   0.998   9.495  1.2850  0.5068 -1.8848
   12CHL1  H15B  834   3.162   0.984   9.510  0.5073 -1.2114  0.7025
   12CHL1   C16  835   3.239   1.094   9.328  0.6327  0.4884  0.3374
   12CHL1  H16A  836   3.319   1.047   9.268 -0.0980  0.2634 -0.4799
   12CHL1  H16B  837   3.135   1.080   9.292  0.3231 -1.8239  1.8854
   12CHL1   C17  838   3.253   1.249   9.332 -0.0182  0.1970 -0.0558
   12CHL1   H17  839   3.152   1.293   9.348  1.4253  2.8046  3.1339
   12CHL1   C13  840   3.320   1.283   9.456 -0.3204 -0.2138  0.8148
   12CHL1   C18  841   3.471   1.247   9.432 -0.0083 -0.1396 -0.4066
   12CHL1  H18A  842   3.484   1.155   9.371  0.0980 -1.1277  1.0714
   12CHL1  H18B  843   3.520   1.327   9.373 -0.3026 -1.1932 -2.1617
   12CHL1  H18C  844   3.518   1.232   9.531  1.3969  0.1600 -1.0027
   12CHL1   C12  845   3.317   1.427   9.515  0.0641  0.5908  0.0469
   12CHL1  H12A  846   3.385   1.491   9.455  2.5206 -2.5402 -0.7444
   12CHL1  H12B  847   3.218   1.478   9.509  0.2884  1.1485  0.8333
   12CHL1   C11  848   3.364   1.429   9.658 -0.8707  0.0052  0.7288
   12CHL1  H11A  849   3.470   1.396   9.647 -1.0954 -0.4339 -0.2118
   12CHL1  H11B  850   3.367   1.528   9.708  3.5154 -0.0087  0.8485
   12CHL1    C9  851   3.303   1.319   9.755  0.3697  0.0786  0.2907
   12CHL1    H9  852   3.196   1.346   9.743  0.5475 -0.4253 -4.1406
   12CHL1   C10  853   3.343   1.323   9.904  0.3481 -0.3456  0.0173
   12CHL1   C19  854   3.492   1.338   9.910 -0.6506  0.3180  0.1518
   12CHL1  H19A  855   3.520   1.431   9.857  1.9783 -0.4771  0.0171
   12CHL1  H19B  856   3.529   1.334  10.015  0.6272 -1.8910 -0.3182
   12CHL1  H19C  857   3.547   1.259   9.854  0.8780  2.2331 -1.1942
   12CHL1    C1  858   3.264   1.439   9.976  0.2059  0.5488 -0.0155
   12CHL1   H1A  859   3.299   1.533   9.928  2.2063 -0.6903 -1.1331
   12CHL1   H1B  860   3.156   1.434   9.950 -0.2697 -0.0274  1.9439
   12CHL1    C2  861   3.282   1.450  10.129  0.0612  0.2303  0.1501
   12CHL1   H2A  862   3.228   1.541  10.163 -2.6914 -0.6648 -1.4949
   12CHL1   H2B  863   3.386   1.483  10.149  0.1439 -0.4766  0.9494
   12CHL1   C20  864   3.298   1.304   9.185 -0.3582 -0.0498 -0.2760
   12CHL1   H20  865   3.400   1.264   9.170 -0.1191 -0.3895  1.8938
   12CHL1   C21  866   3.296   1.460   9.174 -0.5142 -0.0523 -0.0019
   12CHL1  H21A  867   3.194   1.503   9.162 -1.6398 -2.0127  1.8594
   12CHL1  H21B  868   3.370   1.492   9.098  0.9119 -0.0659  1.3226
   12CHL1  H21C  869   3.341   1.513   9.261 -1.5734  1.0107 -0.0713
   12CHL1   C22  870   3.203   1.248   9.068 -0.4212  0.1816 -0.2431
   12CHL1  H22A  871   3.193   1.138   9.078 -0.0577  0.2143  0.6183
   12CHL1  H22B  872   3.102   1.290   9.085 -0.9760 -1.5320  0.9950
   12CHL1   C23  873   3.263   1.263   8.923  0.0746 -0.4260  0.4226
   12CHL1  H23A  874   3.227   1.361   8.884 -1.1702 -0.4846  1.3541
   12CHL1  H23B  875   3.374   1.266   8.925  0.0503  1.0302  0.2929
   12CHL1   C24  876   3.218   1.155   8.818  0.0636  0.3186  0.1005
   12CHL1  H24A  877   3.108   1.171   8.817 -0.2622 -1.6105  0.6038
   12CHL1  H24B  878   3.254   1.186   8.717 -1.6043 -0.6178 -0.8206
   12CHL1   C25  879   3.261   1.008   8.845 -0.4601 -0.0178  0.7790
   12CHL1   H25  880   3.226   0.980   8.947 -2.3800 -0.0862  0.1327
   12CHL1   C26  881   3.192   0.917   8.742 -0.4859 -0.3156 -0.1396
   12CHL1  H26A  882   3.083   0.938   8.740 -0.3335  0.6557 -2.5974
   12CHL1  H26B  883   3.239   0.927   8.642  1.5738  0.0969  0.8201
   12CHL1  H26C  884   3.212   0.813   8.776  0.5832  0.8075  3.0505
   12CHL1   C27  885   3.415   1.001   8.831 -0.6339  0.1618  0.8914
   12CHL1  H27A  886   3.448   0.895   8.833 -1.4947 -0.1683 -0.7121
   12CHL1  H27B  887   3.440   1.037   8.729 -0.3901 -1.6249  0.2761
   12CHL1  H27C  888   3.477   1.071   8.891  2.1091 -2.2818  1.1074
   13CHL1    C3  889   1.758   3.049   9.958  0.3057  0.5382  0.1747
   13CHL1    H3  890   1.861   3.051  10.001 -0.6968  0.5293  2.8051
   13CHL1    O3  891   1.664   3.051  10.065 -0.0710 -0.3759 -0.4476
   13CHL1   H3'  892   1.674   3.136  10.109 -1.2526 -1.0058  1.1319
   13CHL1    C4  893   1.747   3.179   9.889  0.5500 -0.2205 -0.1059
   13CHL1   H4A  894   1.640   3.202   9.872  0.0521 -2.2238 -0.0090
   13CHL1   H4B  895   1.775   3.268   9.949  1.1066  1.6916 -2.9904
   13CHL1    C5  896   1.818   3.190   9.763  0.0492 -0.1998 -0.1381
   13CHL1    C6  897   1.915   3.279   9.739 -0.3029  0.0465 -0.2734
   13CHL1    H6  898   1.940   3.352   9.818  0.1178 -0.4017  0.0083
   13CHL1    C7  899   1.981   3.287   9.604 -0.1492 -0.6947  0.2994
   13CHL1   H7A  900   2.000   3.395   9.585  1.2262 -1.0391 -0.4434
   13CHL1   H7B  901   2.084   3.245   9.611 -0.6117 -1.8050  0.7718
   13CHL1    C8  902   1.909   3.211   9.490 -0.1247 -0.1724  0.2401
   13CHL1    H8  903   1.810   3.259   9.478  0.6500  1.3302 -0.3755
   13CHL1   C14  904   1.989   3.206   9.363  0.1375  0.6472  0.2347
   13CHL1   H14  905   2.084   3.153   9.385  0.5817  1.1222 -0.5050
   13CHL1   C15  906   2.047   3.334   9.301 -0.1165  0.0781 -0.3927
   13CHL1  H15A  907   1.962   3.404   9.289 -0.9633 -0.4091  2.2266
   13CHL1  H15B  908   2.118   3.384   9.371 -1.0305  0.3057  0.3858
   13CHL1   C16  909   2.105   3.285   9.169 -0.2543 -0.0428  0.2517
   13CHL1  H16A  910   2.074   3.349   9.084 -0.3696 -1.5455 -0.8827
   13CHL1  H16B  911   2.211   3.316   9.173 -0.6421  1.3269  0.4278
   13CHL1   C17  912   2.055   3.143   9.147 -0.1628 -1.1329 -0.6882
   13CHL1   H17  913   2.141   3.092   9.197  0.9182  2.3931  1.4222
   13CHL1   C13  914   1.935   3.126   9.248 -0.3201 -0.2020  0.3383
   13CHL1   C18  915   1.808   3.195   9.190 -0.2085 -0.8700  0.2373
   13CHL1  H18A  916   1.816   3.294   9.141 -1.7530 -0.0363  1.6036
   13CHL1  H18B  917   1.778   3.133   9.103 -1.3737  0.0467 -0.0263
   13CHL1  H18C  918   1.729   3.200   9.268  0.3682  1.6499  0.7535
   13CHL1   C12  919   1.898   2.980   9.293 -0.5597 -0.1242  0.4644
   13CHL1  H12A  920   1.829   2.939   9.216 -0.4450  0.5938 -0.0328
   13CHL1  H12B  921   1.995   2.926   9.299 -0.4906 -0.0621 -0.0703
   13CHL1   C11  922   1.830   2.978   9.430 -0.4203  0.3682  0.0005
   13CHL1  H11A  923   1.728   3.015   9.406 -0.2038  1.0367  0.0871
   13CHL1  H11B  924   1.817   2.877   9.474 -1.3418  0.1711 -0.6854
   13CHL1    C9  925   1.889   3.070   9.541  0.0782 -0.2223 -0.8475
   13CHL1    H9  926   1.983   3.022   9.574 -1.1741 -0.8132  2.2211
   13CHL1   C10  927   1.799   3.074   9.668  0.5779 -0.1350  0.3399
   13CHL1   C19  928   1.654   3.082   9.617  0.2824  0.2861  0.6320
   13CHL1  H19A  929   1.624   2.993   9.559  0.4631  0.5115  0.1854
   13CHL1  H19B  930   1.579   3.084   9.700  0.1038  0.0406  0.4754
   13CHL1  H19C  931   1.638   3.181   9.568 -1.3905  1.8926  4.0593
   13CHL1    C1  932   1.827   2.935   9.744 -0.4606  0.1995 -0.2574
   13CHL1   H1A  933   1.811   2.844   9.682 -0.0309 -0.4878  0.6160
   13CHL1   H1B  934   1.937   2.932   9.764  0.0919  0.2784 -2.8446
   13CHL1    C2  935   1.750   2.925   9.878  0.1866  0.8752  0.3655
   13CHL1   H2A  936   1.805   2.841   9.926 -1.1402 -0.1472  0.1664
   13CHL1   H2B  937   1.642   2.905   9.862  0.7833 -1.8763 -0.8414
   13CHL1   C20  938   2.054   3.092   9.005  0.0532 -0.4019 -0.3927
   13CHL1   H20  939   1.980   3.152   8.948  0.1812 -1.7329 -2.0140
   13CHL1   C21  940   2.016   2.943   9.001 -0.7026 -0.2963 -0.2348
   13CHL1  H21A  941   2.078   2.881   9.068 -0.7077  0.8210  0.8360
   13CHL1  H21B  942   2.029   2.905   8.897 -1.8300 -0.4586 -0.3219
   13CHL1  H21C  943   1.910   2.923   9.028 -1.9672  1.3188 -3.4173
   13CHL1   C22  944   2.196   3.109   8.937  0.7208  0.2059 -0.3934
   13CHL1  H22A  945   2.229   3.215   8.923 -0.8233  0.7500 -0.1214
   13CHL1  H22B  946   2.282   3.068   8.994  0.0889  1.0713  1.2574
   13CHL1   C23  947   2.203   3.061   8.798 -0.0032 -0.4385 -0.1796
   13CHL1  H23A  948   2.212   2.951   8.810  0.7407 -0.1028  3.4258
   13CHL1  H23B  949   2.111   3.078   8.737 -1.9724 -2.7937  1.8965
   13CHL1   C24  950   2.318   3.130   8.717  0.9315  0.6914  0.0803
   13CHL1  H24A  951   2.268   3.227   8.699  0.2010 -0.0569 -2.3210
   13CHL1  H24B  952   2.417   3.131   8.766  0.6995  1.0982  0.5510
   13CHL1   C25  953   2.342   3.055   8.590 -0.4465  0.0893  0.0166
   13CHL1   H25  954   2.247   3.046   8.533 -3.3750  2.9734  3.9199
   13CHL1   C26  955   2.430   3.144   8.507 -0.7427  0.0404 -0.0698
   13CHL1  H26A  956   2.375   3.240   8.499  0.6386  0.9515  0.7228
   13CHL1  H26B  957   2.535   3.167   8.538  0.2810 -2.1244 -1.7310
   13CHL1  H26C  958   2.442   3.111   8.402 -0.8587  0.4609 -0.2159
   13CHL1   C27  959   2.410   2.914   8.608  0.1349  0.6689  0.4441
   13CHL1  H27A  960   2.425   2.874   8.505  0.3153  1.3027  0.2179
   13CHL1  H27B  961   2.510   2.925   8.654  1.0792  1.6479 -1.6574
   13CHL1  H27C  962   2.341   2.848   8.664  0.7565  0.0104  0.4441
   14CHL1    C3  963   1.051   0.632  10.333 -0.3409  0.0528 -0.1085
   14CHL1    H3  964   1.141   0.638  10.269  0.7215 -2.9674  0.9508
   14CHL1    O3  965   1.076   0.709  10.451 -0.0074 -0.4379 -0.5933
   14CHL1   H3'  966   0.996   0.702  10.504 -0.0725  0.6919 -0.5055
   14CHL1    C4  967   0.930   0.695  10.261  0.4519 -0.0474 -0.0865
   14CHL1   H4A  968   0.837   0.707  10.322 -1.7140 -0.3470 -3.0892
   14CHL1   H4B  969   0.951   0.801  10.235 -1.2794  0.1849 -0.7263
   14CHL1    C5  970   0.895   0.613  10.142  0.6723  0.2990  0.6126
   14CHL1    C6  971   0.877   0.668  10.025 -0.2548  0.2612  0.1575
   14CHL1    H6  972   0.883   0.778  10.018  0.1808  0.1506 -2.4852
   14CHL1    C7  973   0.832   0.597   9.899  0.5257 -0.2795  0.1242
   14CHL1   H7A  974   0.763   0.664   9.843  0.6623 -0.3797 -0.1612
   14CHL1   H7B  975   0.912   0.584   9.824 -0.8023  0.2661 -1.4470
   14CHL1    C8  976   0.763   0.460   9.924 -0.4252  0.3099  0.3135
   14CHL1    H8  977   0.659   0.469   9.961 -0.6426  0.5836 -0.3604
   14CHL1   C14  978   0.767   0.378   9.802  0.1336  0.6153 -0.1143
   14CHL1   H14  979   0.872   0.350   9.777  0.2868 -0.3817  1.5214
   14CHL1   C15  980   0.716   0.448   9.673  0.4143 -0.8534  0.1781
   14CHL1  H15A  981   0.633   0.518   9.695  2.4474  1.9799 -0.5350
   14CHL1  H15B  982   0.798   0.508   9.628 -0.0303  1.8367  2.6916
   14CHL1   C16  983   0.678   0.334   9.586 -0.6097  0.1758 -0.2918
   14CHL1  H16A  984   0.577   0.343   9.541  0.7700  0.9373 -3.5104
   14CHL1  H16B  985   0.741   0.353   9.496 -2.3969 -3.0204 -2.4323
   14CHL1   C17  986   0.697   0.200   9.669 -0.2023 -0.0284  0.2490
   14CHL1   H17  987   0.800   0.164   9.648 -0.6072 -0.3794 -1.2051
   14CHL1   C13  988   0.693   0.243   9.817 -0.4082 -0.4934 -0.1231
   14CHL1   C18  989   0.544   0.270   9.857  0.2389 -0.3936 -0.7319
   14CHL1  H18A  990   0.538   0.305   9.962 -0.3128 -0.0211 -0.8888
   14CHL1  H18B  991   0.495   0.345   9.792 -1.2876 -0.8247 -0.1149
   14CHL1  H18C  992   0.481   0.179   9.850 -0.9510  0.3905 -0.5260
   14CHL1   C12  993   0.778   0.158   9.915 -0.3250 -0.3231  0.2471
   14CHL1  H12A  994   0.735   0.060   9.943 -1.4938  0.1946  0.3237
   14CHL1  H12B  995   0.876   0.132   9.870  0.0313 -0.4879  1.1183
   14CHL1   C11  996   0.796   0.235  10.046  0.5797 -0.0706  0.3956
   14CHL1  H11A  997   0.703   0.245  10.106 -0.3417  2.6509 -1.3007
   14CHL1  H11B  998   0.870   0.187  10.113  1.2759  1.5437  0.8487
   14CHL1    C9  999   0.839   0.382  10.030 -0.5411  0.0139 -0.0724
   14CHL1    H9 1000   0.941   0.380   9.986 -1.0596  1.3825 -1.4369
   14CHL1   C10 1001   0.871   0.459  10.164 -0.1188 -0.0349 -0.7975
   14CHL1   C19 1002   0.744   0.451  10.256 -0.4218 -0.4487  0.4394
   14CHL1  H19A 1003   0.732   0.346  10.291  3.1431 -0.7746  1.0604
   14CHL1  H19B 1004   0.752   0.513  10.348 -0.7945 -0.3187  0.3843
   14CHL1  H19C 1005   0.657   0.479  10.193  0.7013  0.4962 -0.7330
   14CHL1    C1 1006   1.008   0.415  10.229  0.3474 -0.1475 -0.1453
   14CHL1   H1A 1007   1.006   0.307  10.253  0.8535  0.0070  0.6584
   14CHL1   H1B 1008   1.091   0.437  10.159 -0.1193 -0.4919 -0.8170
   14CHL1    C2 1009   1.034   0.478  10.366  0.1006 -1.1695 -0.5180
   14CHL1   H2A 1010   1.133   0.451  10.408  0.0473 -1.5886 -0.6603
   14CHL1   H2B 1011   0.956   0.459  10.444 -0.9757  0.1851 -1.2165
   14CHL1   C20 1012   0.607   0.097   9.610 -0.5340 -0.4864 -0.5213
   14CHL1   H20 1013   0.503   0.129   9.591 -0.1817  0.2835 -1.2323
   14CHL1   C21 1014   0.601  -0.029   9.693 -0.1361 -1.2045  0.0965
   14CHL1  H21A 1015   0.531  -0.096   9.638 -0.2735 -1.0240  0.0526
   14CHL1  H21B 1016   0.560  -0.014   9.795  4.8465 -1.7830  2.5160
   14CHL1  H21C 1017   0.706  -0.064   9.702 -0.2828 -1.3606  1.5119
   14CHL1   C22 1018   0.663   0.059   9.470 -0.1050 -0.4227  0.7621
   14CHL1  H22A 1019   0.673   0.151   9.409 -2.6113  0.3614  1.4297
   14CHL1  H22B 1020   0.760   0.006   9.483  0.2481  0.2239  0.7695
   14CHL1   C23 1021   0.563  -0.025   9.390  0.4882  0.3626  0.8673
   14CHL1  H23A 1022   0.557  -0.129   9.430  0.3685 -0.6139 -1.5367
   14CHL1  H23B 1023   0.459   0.012   9.394  0.2601 -0.1422 -0.0302
   14CHL1   C24 1024   0.591  -0.044   9.236 -0.3053  0.1200 -0.3803
   14CHL1  H24A 1025   0.582   0.051   9.179 -1.8911  1.4562  1.9202
   14CHL1  H24B 1026   0.700  -0.068   9.231 -0.5957 -1.4685  0.2171
   14CHL1   C25 1027   0.519  -0.155   9.153 -0.2865 -0.2442 -0.2189
   14CHL1   H25 1028   0.524  -0.248   9.214  0.6848  1.1858  2.0169
   14CHL1   C26 1029   0.365  -0.125   9.151 -0.7752  0.4279  0.2781
   14CHL1  H26A 1030   0.333  -0.089   9.251  1.1671 -0.4758  1.2772
   14CHL1  H26B 1031   0.352  -0.046   9.074  1.0800  0.5518  0.0506
   14CHL1  H26C 1032   0.300  -0.210   9.120  0.5188 -0.4468 -0.1474
   14CHL1   C27 1033   0.582  -0.190   9.013  0.6371 -0.4816 -0.0674
   14CHL1  H27A 1034   0.532  -0.277   8.965  0.1894  0.5523 -1.5295
   14CHL1  H27B 1035   0.555  -0.101   8.952 -4.1114 -2.3290 -1.0901
   14CHL1  H27C 1036   0.685  -0.224   9.037  0.2143  0.2716  3.4923
   15CHL1    C3 1037   0.049   6.017  10.321 -0.3125  0.5010 -0.0640
   15CHL1    H3 1038   0.157   6.030  10.298  0.8883 -2.0137  3.1710
   15CHL1    O3 1039   0.045   6.044  10.457  0.5271  0.3006 -0.1212
   15CHL1   H3' 1040  -0.043   6.014  10.483  0.9551 -0.5769  0.3497
   15CHL1    C4 1041  -0.030   6.121  10.242 -0.6149 -0.1073 -0.5516
   15CHL1   H4A 1042  -0.137   6.126  10.270 -0.6343 -1.7099 -0.2403
   15CHL1   H4B 1043   0.012   6.221  10.268  0.4706 -1.1483  2.0096
   15CHL1    C5 1044  -0.028   6.098  10.091  0.5951  0.0588 -0.1145
   15CHL1    C6 1045   0.022   6.186  10.004  0.4826 -0.5839  0.7367
   15CHL1    H6 1046   0.057   6.285  10.037  0.7572 -0.0241 -1.1209
   15CHL1    C7 1047   0.019   6.163   9.858 -0.2922 -0.3824 -0.1334
   15CHL1   H7A 1048  -0.014   6.250   9.797  3.0111  1.1873  0.0822
   15CHL1   H7B 1049   0.127   6.164   9.832 -0.2609  1.1161 -0.0437
   15CHL1    C8 1050  -0.059   6.042   9.805  0.2988  0.0000  0.0409
   15CHL1    H8 1051  -0.167   6.066   9.812 -0.0509 -0.1259 -3.4935
   15CHL1   C14 1052  -0.015   6.007   9.660  0.4862 -0.5531 -1.0605
   15CHL1   H14 1053   0.094   5.984   9.660  0.4341 -1.0145  1.2236
   15CHL1   C15 1054  -0.021   6.111   9.541  0.4083 -0.3980  0.2124
   15CHL1  H15A 1055  -0.116   6.170   9.545  0.3534 -0.4839  0.1859
   15CHL1  H15B 1056   0.072   6.170   9.539  0.9181 -1.2119 -0.5493
   15CHL1   C16 1057  -0.018   6.025   9.417  0.7041  0.3669 -0.5066
   15CHL1  H16A 1058  -0.114   6.053   9.368 -0.0508 -2.7975 -1.0378
   15CHL1  H16B 1059   0.065   6.033   9.344  0.1794 -1.2074 -1.3104
   15CHL1   C17 1060  -0.019   5.875   9.463 -0.5305 -0.2704 -0.2148
   15CHL1   H17 1061   0.090   5.860   9.482 -0.0155  1.5401 -1.5084
   15CHL1   C13 1062  -0.080   5.879   9.604  0.1340 -0.8009  0.7436
   15CHL1   C18 1063  -0.231   5.891   9.584 -0.4015  0.3326 -0.0645
   15CHL1  H18A 1064  -0.292   5.910   9.675 -2.2332  0.1146 -1.1997
   15CHL1  H18B 1065  -0.262   5.974   9.517 -2.8036 -1.1389 -0.9073
   15CHL1  H18C 1066  -0.275   5.798   9.540 -1.6070  0.8381  0.0376
   15CHL1   C12 1067  -0.049   5.764   9.693 -0.7365 -0.2290 -0.0505
   15CHL1  H12A 1068  -0.115   5.678   9.670 -1.0301 -0.5861  1.9211
   15CHL1  H12B 1069   0.059   5.737   9.696 -0.5926  0.2884  2.8297
   15CHL1   C11 1070  -0.094   5.788   9.840  0.0271  0.1154 -0.0293
   15CHL1  H11A 1071  -0.204   5.786   9.852 -0.0592 -0.1145 -0.8371
   15CHL1  H11B 1072  -0.041   5.716   9.906  1.0814 -1.6511 -2.6589
   15CHL1    C9 1073  -0.039   5.920   9.898 -0.5003 -0.2835  0.4206
   15CHL1    H9 1074   0.070   5.898   9.897 -0.6253 -1.2959 -2.8054
   15CHL1   C10 1075  -0.073   5.954  10.049 -0.1247  1.0260  0.6198
   15CHL1   C19 1076  -0.226   5.945  10.070  0.0195 -0.5290 -0.1765
   15CHL1  H19A 1077  -0.260   5.970  10.173 -1.7632 -1.1524 -0.5643
   15CHL1  H19B 1078  -0.278   6.008   9.995 -0.1235  1.5502  1.5916
   15CHL1  H19C 1079  -0.260   5.839  10.065 -0.6390 -0.2989 -0.6844
   15CHL1    C1 1080  -0.006   5.847  10.139  0.3574 -0.1120  0.2609
   15CHL1   H1A 1081  -0.047   5.745  10.126  0.8568 -0.3760  0.6869
   15CHL1   H1B 1082   0.101   5.858  10.110 -0.0557 -0.5082 -1.4787
   15CHL1    C2 1083  -0.011   5.884  10.292  0.1371  0.2668  0.2464
   15CHL1   H2A 1084   0.037   5.810  10.359 -0.9736  0.6593  1.5199
   15CHL1   H2B 1085  -0.114   5.869  10.333  0.9100 -1.9061  1.5633
   15CHL1   C20 1086  -0.055   5.761   9.372 -0.0324  0.0897  0.1054
   15CHL1   H20 1087  -0.103   5.680   9.431  0.6176  2.0890  3.6435
   15CHL1   C21 1088   0.076   5.704   9.313 -0.0057  0.0905 -0.4519
   15CHL1  H21A 1089   0.132   5.775   9.248  0.4349 -0.3990 -0.6128
   15CHL1  H21B 1090   0.050   5.615   9.252  2.0667 -2.0778  1.5937
   15CHL1  H21C 1091   0.147   5.678   9.395  0.0911  0.7115 -0.3357
   15CHL1   C22 1092  -0.158   5.802   9.254  0.3683 -0.1315  0.0030
   15CHL1  H22A 1093  -0.238   5.870   9.290 -0.3549  0.0767 -1.8752
   15CHL1  H22B 1094  -0.109   5.858   9.172  0.6577 -0.9244 -0.3714
   15CHL1   C23 1095  -0.225   5.681   9.184  0.2910  0.4529  0.1254
   15CHL1  H23A 1096  -0.141   5.623   9.142 -1.3998 -1.1677 -1.1808
   15CHL1  H23B 1097  -0.261   5.614   9.265  1.7523  0.8800  1.1641
   15CHL1   C24 1098  -0.324   5.726   9.078  0.1142 -0.2595 -0.5234
   15CHL1  H24A 1099  -0.411   5.763   9.135  1.9390  1.3614  1.3795
   15CHL1  H24B 1100  -0.288   5.808   9.012  1.8127 -1.4745 -1.2039
   15CHL1   C25 1101  -0.390   5.626   8.982  0.0698 -0.0136 -0.2748
   15CHL1   H25 1102  -0.427   5.538   9.040  2.1509 -0.6915  0.0994
   15CHL1   C26 1103  -0.511   5.687   8.900 -0.5019 -0.2178 -0.3879
   15CHL1  H26A 1104  -0.467   5.773   8.846  1.1180  1.0398  2.6906
   15CHL1  H26B 1105  -0.535   5.609   8.824 -0.7949 -0.0287 -0.4902
   15CHL1  H26C 1106  -0.588   5.715   8.975  1.6888  1.5434  1.3367
   15CHL1   C27 1107  -0.271   5.580   8.891 -0.3423 -0.2107  0.2760
   15CHL1  H27A 1108  -0.212   5.663   8.848  0.9205 -0.8112  0.8083
   15CHL1  H27B 1109  -0.202   5.519   8.953  0.4115 -0.0913 -0.4228
   15CHL1  H27C 1110  -0.323   5.515   8.816  0.3750 -1.0496  0.4922
   16CHL1    C3 1111   0.861   5.267  10.308 -0.7438 -1.0361  0.4419
   16CHL1    H3 1112   0.916   5.171  10.313  2.3785  0.6031  0.3004
   16CHL1    O3 1113   0.883   5.324  10.435  0.2545 -0.4479 -0.1679
   16CHL1   H3' 1114   0.857   5.416  10.422  1.6586 -0.1190 -0.7730
   16CHL1    C4 1115   0.939   5.353  10.208 -0.1527 -0.2131 -0.6817
   16CHL1   H4A 1116   0.916   5.462  10.212 -0.2017 -0.2652  0.9303
   16CHL1   H4B 1117   1.044   5.355  10.242  0.1434 -1.1841 -1.4907
   16CHL1    C5 1118   0.923   5.305  10.067 -0.0368  0.6032  0.6195
   16CHL1    C6 1119   1.030   5.274   9.993 -0.0418 -0.1467 -0.5958
   16CHL1    H6 1120   1.130   5.282  10.039 -0.7060  0.4307  0.8288
   16CHL1    C7 1121   1.024   5.229   9.852  0.6606 -0.4424 -0.0123
   16CHL1   H7A 1122   1.097   5.291   9.796  1.4575  1.5266  2.9450
   16CHL1   H7B 1123   1.044   5.120   9.837  4.5288  0.3109 -1.5447
   16CHL1    C8 1124   0.888   5.266   9.786 -0.3931 -0.5031  0.6625
   16CHL1    H8 1125   0.872   5.376   9.775  0.4965 -0.4972 -0.8191
   16CHL1   C14 1126   0.878   5.193   9.644 -0.1573  0.4629 -0.4779
   16CHL1   H14 1127   0.883   5.084   9.663  1.2746  0.5926  0.0116
   16CHL1   C15 1128   0.983   5.224   9.531 -0.4168 -0.1706 -0.3469
   16CHL1  H15A 1129   1.006   5.332   9.541  0.1418 -0.3587  0.5549
   16CHL1  H15B 1130   1.071   5.161   9.557 -0.0669  0.8265  0.9766
   16CHL1   C16 1131   0.900   5.194   9.403  0.3497  0.3060  0.5276
   16CHL1  H16A 1132   0.890   5.294   9.355 -0.2122 -0.9436 -2.1489
   16CHL1  H16B 1133   0.961   5.130   9.336  0.2436  1.8683 -1.1426
   16CHL1   C17 1134   0.764   5.144   9.442 -0.5765  0.5648 -0.8035
   16CHL1   H17 1135   0.775   5.038   9.473 -2.1977  0.5672 -0.1120
   16CHL1   C13 1136   0.741   5.215   9.578 -0.5025 -0.4180  0.6626
   16CHL1   C18 1137   0.717   5.363   9.558  0.4050 -0.1747  0.1225
   16CHL1  H18A 1138   0.735   5.422   9.650  0.6597 -1.4924  0.9486
   16CHL1  H18B 1139   0.773   5.412   9.476 -0.4439 -0.0467 -0.3952
   16CHL1  H18C 1140   0.608   5.365   9.537  0.3508  1.7011  0.4650
   16CHL1   C12 1141   0.633   5.157   9.676  0.0310 -0.2152 -0.1365
   16CHL1  H12A 1142   0.531   5.176   9.635 -0.2768 -2.0884 -0.3706
   16CHL1  H12B 1143   0.656   5.048   9.676  3.8792  0.4587  0.7903
   16CHL1   C11 1144   0.638   5.211   9.815  0.1106  0.4288 -0.1374
   16CHL1  H11A 1145   0.594   5.312   9.803 -2.1484 -0.2381  1.6867
   16CHL1  H11B 1146   0.563   5.153   9.874  0.1900  1.2030  0.7472
   16CHL1    C9 1147   0.780   5.217   9.878 -0.0240 -0.0909 -0.5709
   16CHL1    H9 1148   0.810   5.112   9.899 -4.5532 -1.2058  1.3906
   16CHL1   C10 1149   0.778   5.290  10.017 -0.1377 -0.5996 -1.1866
   16CHL1   C19 1150   0.708   5.423   9.992 -0.9956 -0.3884  0.0206
   16CHL1  H19A 1151   0.604   5.407   9.959 -0.8582 -2.6781  0.5504
   16CHL1  H19B 1152   0.707   5.485  10.085  1.5585 -0.3120  0.0673
   16CHL1  H19C 1153   0.764   5.491   9.924 -0.7330  0.8453  1.4035
   16CHL1    C1 1154   0.695   5.212  10.125 -0.2910  0.3639 -0.2887
   16CHL1   H1A 1155   0.590   5.231  10.094  0.1632  0.9581 -1.5139
   16CHL1   H1B 1156   0.722   5.106  10.144  1.2231  0.8038  0.1992
   16CHL1    C2 1157   0.718   5.269  10.269  0.5721 -0.4661  0.1901
   16CHL1   H2A 1158   0.656   5.206  10.336 -0.0849 -0.7073 -0.6197
   16CHL1   H2B 1159   0.673   5.370  10.267 -0.7214 -1.0346 -0.4694
   16CHL1   C20 1160   0.654   5.154   9.331 -0.3539 -0.4638 -0.2562
   16CHL1   H20 1161   0.606   5.253   9.335 -0.6610 -0.6084 -0.3750
   16CHL1   C21 1162   0.555   5.041   9.351  0.4641  1.0326  0.0753
   16CHL1  H21A 1163   0.603   4.945   9.324  0.9787  1.1776  0.4557
   16CHL1  H21B 1164   0.461   5.059   9.294 -1.2222  0.3086  2.4644
   16CHL1  H21C 1165   0.516   5.051   9.455 -1.7771 -0.2117 -0.5721
   16CHL1   C22 1166   0.713   5.134   9.188 -0.0530  0.2167 -0.3758
   16CHL1  H22A 1167   0.810   5.180   9.157  0.6708 -0.2157  1.1188
   16CHL1  H22B 1168   0.753   5.030   9.188  0.1856  0.3035 -0.9050
   16CHL1   C23 1169   0.612   5.164   9.075 -1.1160  0.3196 -0.0410
   16CHL1  H23A 1170   0.514   5.117   9.097 -0.9215  0.1593  0.5053
   16CHL1  H23B 1171   0.602   5.274   9.069  0.6311  0.4412 -1.5710
   16CHL1   C24 1172   0.665   5.111   8.940  0.7998 -0.5136 -0.4246
   16CHL1  H24A 1173   0.748   5.175   8.904 -0.0883 -0.0170 -1.6198
   16CHL1  H24B 1174   0.698   5.005   8.948  0.3588 -0.6273 -0.0437
   16CHL1   C25 1175   0.557   5.117   8.825 -0.2114 -0.0960  0.1826
   16CHL1   H25 1176   0.471   5.068   8.875 -0.8825 -0.5963 -1.3994
   16CHL1   C26 1177   0.491   5.251   8.795 -0.7318 -0.2402  0.3778
   16CHL1  H26A 1178   0.405   5.232   8.728  1.1843 -0.6073 -2.1424
   16CHL1  H26B 1179   0.461   5.304   8.888 -0.8153  1.0206 -0.3558
   16CHL1  H26C 1180   0.569   5.313   8.746  0.2938 -3.1880 -2.0600
   16CHL1   C27 1181   0.622   5.046   8.706  0.3055  0.1033  0.0506
   16CHL1  H27A 1182   0.566   5.045   8.610  1.0437 -2.0898 -0.4126
   16CHL1  H27B 1183   0.726   5.075   8.684  0.9066 -2.2156 -0.4343
   16CHL1  H27C 1184   0.637   4.942   8.743  1.0487  0.2387  0.1305
   17CHL1    C3 1185   4.766   3.344  10.571  0.1948 -0.2646  0.3533
   17CHL1    H3 1186   4.852   3.412  10.557  0.8971 -0.9393  1.2607
   17CHL1    O3 1187   4.761   3.310  10.706  0.3552 -0.1382 -0.5555
   17CHL1   H3' 1188   4.683   3.254  10.711 -0.6210  1.2323  0.0230
   17CHL1    C4 1189   4.640   3.419  10.523 -0.2756 -0.0342 -0.1603
   17CHL1   H4A 1190   4.556   3.352  10.547  0.8110 -0.6322  2.2181
   17CHL1   H4B 1191   4.627   3.515  10.576 -1.3950  0.3521 -1.1031
   17CHL1    C5 1192   4.657   3.450  10.375 -0.3944 -0.0235 -0.3137
   17CHL1    C6 1193   4.636   3.577  10.334  0.2629 -0.0282  0.1402
   17CHL1    H6 1194   4.610   3.654  10.408  0.4708 -0.2782  0.4745
   17CHL1    C7 1195   4.644   3.627  10.192  0.6424  0.3013  0.6023
   17CHL1   H7A 1196   4.564   3.701  10.172  0.6162  0.2629  0.5639
   17CHL1   H7B 1197   4.744   3.673  10.172  0.2361  0.5163 -1.0844
   17CHL1    C8 1198   4.624   3.510  10.094  0.1154 -0.3227  0.1832
   17CHL1    H8 1199   4.518   3.476  10.094 -0.6889  1.6118 -3.4771
   17CHL1   C14 1200   4.662   3.550   9.948 -0.4768  0.2113  0.3325
   17CHL1   H14 1201   4.768   3.584   9.951 -0.3891  0.1774 -1.4214
   17CHL1   C15 1202   4.598   3.674   9.880  0.1459  0.4271  0.9131
   17CHL1  H15A 1203   4.491   3.694   9.898  0.3490  2.6083  0.0721
   17CHL1  H15B 1204   4.645   3.766   9.922  0.4574  1.2725 -1.1504
   17CHL1   C16 1205   4.630   3.658   9.727 -0.3830 -0.8353 -0.6200
   17CHL1  H16A 1206   4.541   3.668   9.660  0.0226 -0.7862 -1.1548
   17CHL1  H16B 1207   4.715   3.722   9.696  0.2294 -0.6645  1.2593
   17CHL1   C17 1208   4.686   3.516   9.706  0.3165  0.5701  0.1459
   17CHL1   H17 1209   4.796   3.528   9.701  0.5363 -1.0463  0.4782
   17CHL1   C13 1210   4.655   3.440   9.841 -0.0662 -0.2418  0.0077
   17CHL1   C18 1211   4.506   3.383   9.839 -0.0767  0.3478  0.1744
   17CHL1  H18A 1212   4.434   3.460   9.804 -0.0372  0.9656  1.3858
   17CHL1  H18B 1213   4.481   3.293   9.779  2.2501 -0.4059  0.2024
   17CHL1  H18C 1214   4.479   3.354   9.943 -1.2281 -0.5060 -0.3435
   17CHL1   C12 1215   4.756   3.331   9.887 -0.4150  0.3857 -0.1401
   17CHL1  H12A 1216   4.740   3.244   9.819  1.1526  2.1134 -2.8869
   17CHL1  H12B 1217   4.861   3.366   9.878  0.3236 -1.4974  0.4812
   17CHL1   C11 1218   4.734   3.286  10.037  0.0395  0.2513 -0.8687
   17CHL1  H11A 1219   4.637   3.231  10.030 -1.0351  1.7563  1.1037
   17CHL1  H11B 1220   4.816   3.217  10.066  1.5759  1.9017 -1.1376
   17CHL1    C9 1221   4.714   3.397  10.142 -0.6419  0.1647 -0.0199
   17CHL1    H9 1222   4.818   3.435  10.144 -1.0015  1.2648 -0.7729
   17CHL1   C10 1223   4.684   3.336  10.278  0.2902 -0.3432 -0.3938
   17CHL1   C19 1224   4.563   3.245  10.275  0.2274 -0.7671 -0.2321
   17CHL1  H19A 1225   4.473   3.290  10.228  0.4117  2.2054  1.9880
   17CHL1  H19B 1226   4.585   3.157  10.212  1.7909  1.2772 -2.7079
   17CHL1  H19C 1227   4.537   3.219  10.381  2.8840  1.5929  1.1157
   17CHL1    C1 1228   4.806   3.253  10.328 -1.2591  0.5451  0.0020
   17CHL1   H1A 1229   4.815   3.159  10.270  1.6839  0.8443 -0.1894
   17CHL1   H1B 1230   4.907   3.297  10.312 -0.5977 -0.6024  0.9070
   17CHL1    C2 1231   4.799   3.220  10.482 -0.2475 -0.2892 -0.0361
   17CHL1   H2A 1232   4.895   3.176  10.516 -0.5315 -2.3256 -1.7023
   17CHL1   H2B 1233   4.721   3.143  10.502 -2.4299  1.7588 -0.1483
   17CHL1   C20 1234   4.638   3.457   9.568  0.4723 -0.3588  0.0685
   17CHL1   H20 1235   4.529   3.440   9.580  0.7391 -0.2320  3.5434
   17CHL1   C21 1236   4.698   3.317   9.547  0.3351 -0.1525  0.4900
   17CHL1  H21A 1237   4.801   3.325   9.589  1.0465 -0.4736 -1.1290
   17CHL1  H21B 1238   4.714   3.285   9.442  0.0375  2.4537 -0.4148
   17CHL1  H21C 1239   4.638   3.240   9.600  0.0760  0.8033  1.6296
   17CHL1   C22 1240   4.666   3.549   9.440  0.3103  0.1214 -0.2663
   17CHL1  H22A 1241   4.637   3.654   9.463 -1.4315 -0.7477  1.7967
   17CHL1  H22B 1242   4.777   3.537   9.439  0.0011 -4.3013  0.2673
   17CHL1   C23 1243   4.599   3.495   9.317  0.2620  0.1969 -0.6770
   17CHL1  H23A 1244   4.605   3.384   9.309 -0.0767 -0.1005  2.1483
   17CHL1  H23B 1245   4.490   3.518   9.308  0.0097 -0.4234  0.5606
   17CHL1   C24 1246   4.650   3.544   9.184 -0.6017 -0.5421  0.2675
   17CHL1  H24A 1247   4.582   3.501   9.107  1.8724  0.7137 -2.8202
   17CHL1  H24B 1248   4.643   3.654   9.173  2.4788 -0.3695 -0.9339
   17CHL1   C25 1249   4.797   3.509   9.140 -0.4492  0.7637  0.0112
   17CHL1   H25 1250   4.873   3.554   9.208  0.3162  1.2006 -1.0937
   17CHL1   C26 1251   4.815   3.352   9.149  0.2872  0.1454  0.4462
   17CHL1  H26A 1252   4.809   3.304   9.249  1.9196 -0.6856  0.1759
   17CHL1  H26B 1253   4.739   3.297   9.088  0.6868 -0.0892  0.1537
   17CHL1  H26C 1254   4.912   3.325   9.101 -0.0150 -0.0023 -0.0969
   17CHL1   C27 1255   4.822   3.548   8.995  0.3967 -0.2198  0.0279
   17CHL1  H27A 1256   4.902   3.488   8.947  0.1357  1.5587 -2.9180
   17CHL1  H27B 1257   4.733   3.529   8.931  0.2447 -2.2328  0.7817
   17CHL1  H27C 1258   4.850   3.655   8.992  0.5826 -0.2284  1.2104
   18CHL1    C3 1259   3.422   2.735  10.224  0.2513  0.2145  0.0233
   18CHL1    H3 1260   3.468   2.832  10.196  0.4230  0.1088 -0.0630
   18CHL1    O3 1261   3.374   2.729  10.364  0.5041 -0.3053 -0.4544
   18CHL1   H3' 1262   3.453   2.738  10.416 -1.9788  2.1742  3.3997
   18CHL1    C4 1263   3.301   2.700  10.128  0.7979 -0.3183  0.4787
   18CHL1   H4A 1264   3.268   2.596  10.149  1.2810 -0.5394  0.1595
   18CHL1   H4B 1265   3.216   2.766  10.156  1.2670 -0.6736  3.0847
   18CHL1    C5 1266   3.334   2.696   9.984 -0.0777 -0.5823  0.0926
   18CHL1    C6 1267   3.253   2.757   9.898 -0.1633  0.2947 -0.1414
   18CHL1    H6 1268   3.165   2.810   9.936  1.6116  2.2775  1.4857
   18CHL1    C7 1269   3.284   2.754   9.755  0.2682 -0.0456 -0.0036
   18CHL1   H7A 1270   3.186   2.737   9.706  0.6432 -0.8099 -0.5318
   18CHL1   H7B 1271   3.330   2.852   9.730  1.0414 -0.0420  1.3260
   18CHL1    C8 1272   3.386   2.658   9.713  0.0055  0.4800  0.1008
   18CHL1    H8 1273   3.336   2.559   9.710 -1.6641  1.2246  1.4954
   18CHL1   C14 1274   3.442   2.697   9.578 -0.0707  0.5564  0.5197
   18CHL1   H14 1275   3.501   2.789   9.599 -0.6396  1.3878 -1.3126
   18CHL1   C15 1276   3.341   2.744   9.473 -0.0790 -0.2176 -0.0183
   18CHL1  H15A 1277   3.258   2.676   9.444  1.0098 -1.9047  0.6658
   18CHL1  H15B 1278   3.300   2.842   9.505  1.2657  0.1140  0.7976
   18CHL1   C16 1279   3.432   2.760   9.351 -0.2546  0.1950 -0.1232
   18CHL1  H16A 1280   3.378   2.718   9.264  0.0822 -0.1733 -0.1553
   18CHL1  H16B 1281   3.457   2.866   9.331 -0.9237  0.2986 -0.4412
   18CHL1   C17 1282   3.562   2.679   9.380 -0.4820 -0.1078  0.2199
   18CHL1   H17 1283   3.637   2.754   9.412 -0.3990 -0.2014  0.2441
   18CHL1   C13 1284   3.536   2.596   9.511 -0.1927  0.2842  0.8992
   18CHL1   C18 1285   3.452   2.467   9.483 -0.0222  0.1667  0.8702
   18CHL1  H18A 1286   3.508   2.404   9.411  1.2019  0.9319  1.1184
   18CHL1  H18B 1287   3.432   2.397   9.567  0.2083 -3.0381 -1.5977
   18CHL1  H18C 1288   3.350   2.490   9.445  0.6827  5.3494  1.3395
   18CHL1   C12 1289   3.652   2.574   9.610  0.4132  0.2284  0.3872
   18CHL1  H12A 1290   3.732   2.505   9.573  0.4328  1.2368 -1.5582
   18CHL1  H12B 1291   3.703   2.672   9.617  1.5120 -0.3706  1.0928
   18CHL1   C11 1292   3.603   2.529   9.746  0.1360 -0.2175  0.6237
   18CHL1  H11A 1293   3.563   2.426   9.730  0.9285 -0.1073 -3.0676
   18CHL1  H11B 1294   3.688   2.530   9.817 -0.9307 -2.1748  2.0340
   18CHL1    C9 1295   3.507   2.636   9.807 -0.3287 -1.1456  0.6096
   18CHL1    H9 1296   3.568   2.729   9.804 -0.3360 -1.1486  0.2520
   18CHL1   C10 1297   3.456   2.614   9.949  0.2715 -0.4841 -0.4496
   18CHL1   C19 1298   3.412   2.461   9.960  0.3388 -0.6372 -0.4436
   18CHL1  H19A 1299   3.363   2.447  10.058 -0.1540  0.5050 -0.5069
   18CHL1  H19B 1300   3.332   2.433   9.888 -1.8736 -0.6418  1.8996
   18CHL1  H19C 1301   3.494   2.386   9.962  1.2937  0.3607 -0.6673
   18CHL1    C1 1302   3.573   2.641  10.053  0.2164  0.1338  0.0641
   18CHL1   H1A 1303   3.655   2.568  10.034 -1.4263 -2.1283  1.1729
   18CHL1   H1B 1304   3.607   2.745  10.034 -1.1451  0.0609 -3.3589
   18CHL1    C2 1305   3.536   2.639  10.201 -0.1935 -0.2060 -0.1126
   18CHL1   H2A 1306   3.621   2.681  10.259  0.9208 -1.2742 -0.9088
   18CHL1   H2B 1307   3.508   2.544  10.252  0.4901 -0.4751 -0.2199
   18CHL1   C20 1308   3.625   2.610   9.256  0.9444  0.1842  0.8314
   18CHL1   H20 1309   3.553   2.536   9.215  0.4893  0.8808  0.3511
   18CHL1   C21 1310   3.754   2.537   9.295  0.2183  0.2236 -0.4766
   18CHL1  H21A 1311   3.726   2.451   9.360  2.0916 -0.6418 -0.7545
   18CHL1  H21B 1312   3.819   2.598   9.361  0.9534 -1.8819  0.8791
   18CHL1  H21C 1313   3.816   2.502   9.210  0.7613 -1.7669  0.6612
   18CHL1   C22 1314   3.659   2.716   9.140 -0.7760 -0.5412  0.0327
   18CHL1  H22A 1315   3.579   2.792   9.134 -0.6385 -0.4725 -1.0809
   18CHL1  H22B 1316   3.758   2.763   9.163 -0.5958 -0.2309 -1.2807
   18CHL1   C23 1317   3.673   2.643   9.004 -0.2316  0.9085  0.2995
   18CHL1  H23A 1318   3.771   2.594   8.987 -1.6057 -3.2796  2.8087
   18CHL1  H23B 1319   3.594   2.565   9.003  0.1310  0.5321  0.5944
   18CHL1   C24 1320   3.653   2.745   8.887  0.0338  0.1055  0.4465
   18CHL1  H24A 1321   3.554   2.792   8.905 -0.6875 -1.7837  1.7103
   18CHL1  H24B 1322   3.730   2.825   8.885 -0.7498  0.8591 -0.1598
   18CHL1   C25 1323   3.652   2.689   8.747 -0.0019  0.6126 -0.0181
   18CHL1   H25 1324   3.740   2.621   8.741 -0.5445 -0.0479 -0.6694
   18CHL1   C26 1325   3.523   2.616   8.717  0.9618  0.6449 -0.2353
   18CHL1  H26A 1326   3.443   2.686   8.750 -1.7509 -1.7288 -1.2770
   18CHL1  H26B 1327   3.515   2.581   8.612 -0.6911 -0.6344  0.2648
   18CHL1  H26C 1328   3.517   2.517   8.767  2.0968  0.2434 -0.8645
   18CHL1   C27 1329   3.674   2.793   8.640  0.0020  0.0043  0.2177
   18CHL1  H27A 1330   3.701   2.756   8.538  1.5961  2.4312 -0.3546
   18CHL1  H27B 1331   3.585   2.858   8.629 -0.4026 -0.8963 -3.0997
   18CHL1  H27C 1332   3.758   2.861   8.668  0.2834  0.2911 -1.1912
   19CHL1    C3 1333   0.393   4.799  10.187  0.5301  0.6048 -0.0074
   19CHL1    H3 1334   0.299   4.855  10.166 -0.1624 -1.1605 -1.8335
   19CHL1    O3 1335   0.434   4.812  10.322 -0.0491  0.0948  0.3342
   19CHL1   H3' 1336   0.453   4.904  10.343  0.1867  0.2613 -0.5884
   19CHL1    C4 1337   0.371   4.654  10.149 -0.3752 -0.0531  0.5435
   19CHL1   H4A 1338   0.459   4.594  10.180  0.2825  0.7824  0.3391
   19CHL1   H4B 1339   0.280   4.622  10.205 -0.4715 -1.0378 -0.1484
   19CHL1    C5 1340   0.340   4.624  10.002 -0.3223  0.0180 -0.1562
   19CHL1    C6 1341   0.219   4.569   9.961 -0.2546 -0.1372  0.1084
   19CHL1    H6 1342   0.149   4.531  10.037  0.4553 -1.1102  0.3051
   19CHL1    C7 1343   0.195   4.534   9.811 -0.6457 -0.3431  0.4534
   19CHL1   H7A 1344   0.175   4.426   9.800 -0.7244 -0.6282  2.9218
   19CHL1   H7B 1345   0.112   4.591   9.764 -2.9868 -4.1159 -0.3881
   19CHL1    C8 1346   0.317   4.564   9.719 -0.0110  0.2580 -1.0732
   19CHL1    H8 1347   0.390   4.481   9.730  3.3857  2.7169 -3.2300
   19CHL1   C14 1348   0.269   4.572   9.581  0.1976  0.3970  0.0951
   19CHL1   H14 1349   0.201   4.660   9.583 -0.9500 -0.3957 -1.5617
   19CHL1   C15 1350   0.176   4.460   9.518 -0.5944 -0.1896  0.5468
   19CHL1  H15A 1351   0.230   4.366   9.539  1.3213  0.6506 -0.4290
   19CHL1  H15B 1352   0.074   4.435   9.556 -0.0093  0.4593  2.6667
   19CHL1   C16 1353   0.173   4.496   9.369  0.0094 -0.0510  0.3513
   19CHL1  H16A 1354   0.221   4.409   9.320  1.3381  1.3325 -0.8950
   19CHL1  H16B 1355   0.072   4.506   9.324 -0.9660  0.4986  2.5214
   19CHL1   C17 1356   0.281   4.610   9.347 -0.4946 -0.7394 -0.0486
   19CHL1   H17 1357   0.229   4.708   9.350 -0.2935 -0.6259 -0.2168
   19CHL1   C13 1358   0.371   4.597   9.470  0.6990  0.0524 -0.1057
   19CHL1   C18 1359   0.468   4.483   9.452 -0.4499  0.1841 -0.1976
   19CHL1  H18A 1360   0.543   4.515   9.376 -1.5402  0.9427 -0.9720
   19CHL1  H18B 1361   0.525   4.467   9.546  1.1893  1.2464 -0.9530
   19CHL1  H18C 1362   0.427   4.391   9.405  1.2770 -0.3626 -0.7248
   19CHL1   C12 1363   0.429   4.735   9.501  0.0261  0.1422 -0.9652
   19CHL1  H12A 1364   0.506   4.771   9.430  1.8088  0.7123  1.1408
   19CHL1  H12B 1365   0.353   4.815   9.512 -1.1898 -1.1314  0.4263
   19CHL1   C11 1366   0.501   4.719   9.643 -0.1065 -0.4180  0.3672
   19CHL1  H11A 1367   0.583   4.644   9.642  0.7852  0.5337 -0.0098
   19CHL1  H11B 1368   0.545   4.821   9.641 -0.1695 -0.3683 -2.5653
   19CHL1    C9 1369   0.400   4.686   9.759  0.6199  0.1886 -0.9113
   19CHL1    H9 1370   0.327   4.770   9.753  0.2681  0.1178  1.2818
   19CHL1   C10 1371   0.449   4.684   9.909  0.2593  0.3619  0.3102
   19CHL1   C19 1372   0.583   4.605   9.911  0.7425 -0.0855  0.2459
   19CHL1  H19A 1373   0.657   4.653   9.844  0.2150 -1.9162 -1.7881
   19CHL1  H19B 1374   0.639   4.592  10.006 -0.3536  2.7753  1.3886
   19CHL1  H19C 1375   0.573   4.507   9.859  1.3830  0.6197 -1.2646
   19CHL1    C1 1376   0.477   4.829   9.951  0.1568 -0.2502 -0.0547
   19CHL1   H1A 1377   0.564   4.869   9.894 -0.6221  1.2189 -0.2711
   19CHL1   H1B 1378   0.383   4.884   9.930  0.5139  0.7947  1.0000
   19CHL1    C2 1379   0.502   4.853  10.100 -0.2024 -0.6428 -0.2396
   19CHL1   H2A 1380   0.522   4.961  10.116  3.4914 -1.4980  2.2542
   19CHL1   H2B 1381   0.594   4.796  10.125  0.4176 -0.4579 -1.9515
   19CHL1   C20 1382   0.344   4.607   9.211 -0.0393  0.3524 -0.4129
   19CHL1   H20 1383   0.437   4.546   9.209 -0.3794 -0.2077  0.3919
   19CHL1   C21 1384   0.390   4.750   9.173 -0.8811 -0.3800  0.1704
   19CHL1  H21A 1385   0.303   4.820   9.173  0.4775  1.4886  3.5209
   19CHL1  H21B 1386   0.430   4.737   9.070  0.1708 -1.2259  0.6707
   19CHL1  H21C 1387   0.469   4.796   9.236 -0.4046 -0.6935 -0.1883
   19CHL1   C22 1388   0.246   4.555   9.096 -0.0900  0.2008 -0.2471
   19CHL1  H22A 1389   0.253   4.445   9.107  0.7765  0.4971  2.9710
   19CHL1  H22B 1390   0.139   4.584   9.099 -0.9033 -2.6170  0.9899
   19CHL1   C23 1391   0.295   4.577   8.947 -0.7284  0.3450 -0.3055
   19CHL1  H23A 1392   0.290   4.681   8.910 -1.4555  0.7238  0.8208
   19CHL1  H23B 1393   0.402   4.546   8.951 -0.2840  1.8768  0.1754
   19CHL1   C24 1394   0.206   4.486   8.857  0.2205 -1.0110 -0.1049
   19CHL1  H24A 1395   0.221   4.383   8.896 -2.7384 -1.2068  0.7386
   19CHL1  H24B 1396   0.099   4.511   8.871 -0.6446 -2.5219 -3.1231
   19CHL1   C25 1397   0.245   4.478   8.711  0.8354  0.7045  0.3081
   19CHL1   H25 1398   0.169   4.409   8.669  0.7637  0.9834 -0.0294
   19CHL1   C26 1399   0.233   4.610   8.632  0.0236  0.3629  0.0027
   19CHL1  H26A 1400   0.330   4.658   8.657  0.6697 -1.3759  1.0387
   19CHL1  H26B 1401   0.253   4.584   8.525 -0.2788  0.1275  0.0003
   19CHL1  H26C 1402   0.137   4.663   8.645  0.1423  0.5176  0.2453
   19CHL1   C27 1403   0.387   4.415   8.694  0.0044  0.5024  0.6072
   19CHL1  H27A 1404   0.457   4.486   8.743  0.2054 -0.0002  1.0511
   19CHL1  H27B 1405   0.381   4.317   8.744 -2.3002  0.6151  0.6524
   19CHL1  H27C 1406   0.408   4.408   8.585  1.6868  1.0444  0.8732
   20CHL1    C3 1407   1.661   5.138  10.350 -0.2080 -0.1724  0.7288
   20CHL1    H3 1408   1.678   5.029  10.339  0.6636  0.0017  0.2790
   20CHL1    O3 1409   1.684   5.176  10.488  0.5181 -0.5730 -0.4917
   20CHL1   H3' 1410   1.627   5.251  10.507 -0.2746 -0.8378 -1.7354
   20CHL1    C4 1411   1.761   5.217  10.265 -0.0185 -0.1947 -0.1128
   20CHL1   H4A 1412   1.748   5.320  10.306  0.6277  0.2227 -0.9147
   20CHL1   H4B 1413   1.864   5.189  10.296  0.5807 -0.4542 -2.1989
   20CHL1    C5 1414   1.725   5.205  10.119 -0.3154  0.2989 -0.2889
   20CHL1    C6 1415   1.817   5.158  10.033 -0.6789 -0.3975  0.6649
   20CHL1    H6 1416   1.919   5.137  10.069 -1.7573 -2.3788  2.8742
   20CHL1    C7 1417   1.806   5.149   9.883  0.1400 -0.2376 -1.0547
   20CHL1   H7A 1418   1.899   5.194   9.839  0.5577  0.0542  0.0973
   20CHL1   H7B 1419   1.808   5.043   9.852 -0.8479 -0.8320  0.8075
   20CHL1    C8 1420   1.675   5.215   9.830 -0.8093 -0.2589  0.7314
   20CHL1    H8 1421   1.695   5.324   9.818 -0.0110 -0.5449 -0.8040
   20CHL1   C14 1422   1.636   5.161   9.689 -0.4665 -0.3494  0.1507
   20CHL1   H14 1423   1.630   5.051   9.708 -0.7915 -0.4187 -0.3366
   20CHL1   C15 1424   1.740   5.167   9.572 -0.2042 -0.3182 -0.1172
   20CHL1  H15A 1425   1.792   5.265   9.567 -0.4851 -0.2318 -1.5793
   20CHL1  H15B 1426   1.808   5.081   9.592 -0.4792 -0.1688  1.6467
   20CHL1   C16 1427   1.656   5.152   9.447 -0.0235  0.1063  0.0897
   20CHL1  H16A 1428   1.689   5.240   9.387  1.6235 -0.6344 -0.1543
   20CHL1  H16B 1429   1.678   5.056   9.394 -1.9562 -1.2938  1.6635
   20CHL1   C17 1430   1.508   5.161   9.492 -0.0585  0.0498  0.4191
   20CHL1   H17 1431   1.464   5.060   9.508 -1.1112  0.0293 -2.0935
   20CHL1   C13 1432   1.509   5.222   9.631  0.1898 -0.7036  0.3665
   20CHL1   C18 1433   1.535   5.379   9.614 -0.7470  0.2028  0.2258
   20CHL1  H18A 1434   1.559   5.431   9.709  0.8268 -0.2373  0.0970
   20CHL1  H18B 1435   1.620   5.399   9.545 -1.6789 -2.6330 -1.9613
   20CHL1  H18C 1436   1.449   5.440   9.581  0.6616  1.2900 -1.6628
   20CHL1   C12 1437   1.393   5.190   9.720  0.8900 -0.0350 -0.3146
   20CHL1  H12A 1438   1.293   5.222   9.685  0.5144 -1.1698 -0.3166
   20CHL1  H12B 1439   1.382   5.080   9.736 -2.9668  0.4078  1.1189
   20CHL1   C11 1440   1.416   5.236   9.866 -0.1501  0.1632 -0.4174
   20CHL1  H11A 1441   1.419   5.347   9.859  0.7952  0.0982 -1.2073
   20CHL1  H11B 1442   1.334   5.200   9.932  0.2357 -0.3373 -0.2047
   20CHL1    C9 1443   1.554   5.192   9.924 -0.6053  0.4715 -0.5200
   20CHL1    H9 1444   1.549   5.081   9.928  1.9522  0.2737 -0.8114
   20CHL1   C10 1445   1.579   5.236  10.074  0.3848  0.3307  0.1224
   20CHL1   C19 1446   1.566   5.390  10.083 -0.9236 -0.1502  0.2149
   20CHL1  H19A 1447   1.630   5.435  10.004 -2.7319  3.3318  0.5270
   20CHL1  H19B 1448   1.464   5.430  10.062 -0.9151 -1.1113 -1.9916
   20CHL1  H19C 1449   1.601   5.441  10.175 -1.1944 -0.8589  0.7253
   20CHL1    C1 1450   1.483   5.166  10.172 -0.0333  0.1019 -0.6515
   20CHL1   H1A 1451   1.381   5.204  10.152 -0.3116  0.5291  1.3950
   20CHL1   H1B 1452   1.492   5.059  10.143  0.0066 -0.0125 -0.2205
   20CHL1    C2 1453   1.516   5.177  10.319 -0.2998 -0.4296 -0.9100
   20CHL1   H2A 1454   1.453   5.099  10.366 -0.3843 -0.1720 -0.5958
   20CHL1   H2B 1455   1.477   5.276  10.351  0.5979  0.1852 -1.6345
   20CHL1   C20 1456   1.410   5.222   9.392 -0.6133 -0.3267 -0.2562
   20CHL1   H20 1457   1.343   5.282   9.457 -0.5389 -0.9603  0.4264
   20CHL1   C21 1458   1.329   5.107   9.341 -0.2335 -0.3153 -0.0070
   20CHL1  H21A 1459   1.271   5.147   9.256 -1.8852  0.1384  1.2821
   20CHL1  H21B 1460   1.261   5.068   9.420 -0.5180 -0.5875 -0.3810
   20CHL1  H21C 1461   1.385   5.016   9.311 -0.4968 -1.0204  1.5114
   20CHL1   C22 1462   1.464   5.295   9.270  0.1562 -0.0024  0.0074
   20CHL1  H22A 1463   1.536   5.365   9.318 -0.5577  0.4752  0.4059
   20CHL1  H22B 1464   1.528   5.225   9.212 -1.8342 -1.7061 -0.2479
   20CHL1   C23 1465   1.357   5.369   9.186  0.1554  0.2405 -0.9017
   20CHL1  H23A 1466   1.270   5.305   9.157 -1.2175  0.9877  1.3546
   20CHL1  H23B 1467   1.308   5.454   9.237 -1.7132 -0.3738 -1.6096
   20CHL1   C24 1468   1.419   5.406   9.047  0.0338 -0.2381 -0.6333
   20CHL1  H24A 1469   1.442   5.315   8.988  1.0577  0.6017 -1.5701
   20CHL1  H24B 1470   1.338   5.459   8.994 -0.1959 -0.1530 -0.1961
   20CHL1   C25 1471   1.547   5.486   9.048 -0.4547 -0.1225 -0.5124
   20CHL1   H25 1472   1.618   5.415   9.095 -1.8277 -1.5478 -0.5253
   20CHL1   C26 1473   1.589   5.517   8.903  0.2991  0.1884  0.3652
   20CHL1  H26A 1474   1.526   5.599   8.863  0.0857 -0.4424 -0.6292
   20CHL1  H26B 1475   1.695   5.541   8.881 -0.2683  0.6451 -2.2555
   20CHL1  H26C 1476   1.552   5.429   8.846  0.8445  1.1074 -1.5057
   20CHL1   C27 1477   1.550   5.616   9.130  0.6197  1.1089  0.8995
   20CHL1  H27A 1478   1.650   5.665   9.124  0.9276  0.2903 -2.1274
   20CHL1  H27B 1479   1.480   5.686   9.080  0.2143  0.8645  1.1175
   20CHL1  H27C 1480   1.521   5.590   9.234 -0.7336 -0.8613  0.0924
   21CHL1    C3 1481   3.147   2.102  10.419 -0.5885 -0.3428  1.3859
   21CHL1    H3 1482   3.043   2.072  10.393  0.1770 -0.9551 -1.2334
   21CHL1    O3 1483   3.163   2.129  10.550  0.0912  0.0946  0.0217
   21CHL1   H3' 1484   3.105   2.203  10.567 -0.4096 -0.5966  1.5775
   21CHL1    C4 1485   3.245   1.994  10.367 -0.8786  0.0723 -0.7109
   21CHL1   H4A 1486   3.346   2.027  10.398 -1.4664  2.8910 -1.4856
   21CHL1   H4B 1487   3.232   1.904  10.430  0.9595 -0.2434 -0.7412
   21CHL1    C5 1488   3.243   1.966  10.219  0.3140  0.0820 -0.5088
   21CHL1    C6 1489   3.234   1.837  10.186 -0.6395  0.2521  0.6190
   21CHL1    H6 1490   3.214   1.762  10.264  1.5350 -0.5787  0.4549
   21CHL1    C7 1491   3.236   1.797  10.038 -0.1249 -0.2798 -0.2219
   21CHL1   H7A 1492   3.312   1.725  10.002  0.4672  0.5814 -0.7409
   21CHL1   H7B 1493   3.141   1.765   9.990  1.6239 -4.0070 -1.6048
   21CHL1    C8 1494   3.255   1.926   9.940 -0.4539  0.0209  0.6096
   21CHL1    H8 1495   3.365   1.941   9.938 -0.5382  0.6780 -0.7165
   21CHL1   C14 1496   3.207   1.892   9.793 -0.0400  0.1848 -0.5424
   21CHL1   H14 1497   3.099   1.869   9.809  0.7558 -2.8040  1.3854
   21CHL1   C15 1498   3.266   1.770   9.729 -0.5573 -0.7258  0.0847
   21CHL1  H15A 1499   3.374   1.765   9.752 -0.5250  2.7035  1.2194
   21CHL1  H15B 1500   3.225   1.676   9.770 -1.0798 -0.4687  0.1607
   21CHL1   C16 1501   3.227   1.784   9.578 -0.1621  0.0102  1.1245
   21CHL1  H16A 1502   3.319   1.794   9.516 -1.2904 -0.1359 -0.6543
   21CHL1  H16B 1503   3.163   1.702   9.540 -2.1448  1.3172  1.5144
   21CHL1   C17 1504   3.161   1.925   9.562 -0.3150 -0.2817  0.7986
   21CHL1   H17 1505   3.052   1.931   9.583 -0.8302 -1.2753 -1.3749
   21CHL1   C13 1506   3.219   2.005   9.688 -0.1559 -0.7680  0.5267
   21CHL1   C18 1507   3.367   2.031   9.662  0.3498  0.0088  0.0196
   21CHL1  H18A 1508   3.423   1.941   9.631 -0.4488 -0.3582 -0.3930
   21CHL1  H18B 1509   3.380   2.106   9.581  0.8137  1.0059  0.9941
   21CHL1  H18C 1510   3.415   2.079   9.750 -0.0016 -2.1791  1.4644
   21CHL1   C12 1511   3.146   2.133   9.745 -0.7124 -0.0209  0.2084
   21CHL1  H12A 1512   3.165   2.232   9.699 -2.4095  1.1338  1.8481
   21CHL1  H12B 1513   3.037   2.112   9.740 -0.5273 -1.5667  1.8110
   21CHL1   C11 1514   3.186   2.167   9.893 -0.5133 -0.4813  0.6402
   21CHL1  H11A 1515   3.291   2.201   9.879 -0.2828 -1.1184  0.8117
   21CHL1  H11B 1516   3.120   2.250   9.926  0.2136  1.2107 -1.8752
   21CHL1    C9 1517   3.184   2.050   9.991 -0.0768 -0.6126 -0.7423
   21CHL1    H9 1518   3.080   2.013  10.006  0.1906 -0.5722  1.4210
   21CHL1   C10 1519   3.240   2.084  10.128 -0.2620 -0.2625  0.1291
   21CHL1   C19 1520   3.379   2.137  10.119  0.3672  0.3409  0.1639
   21CHL1  H19A 1521   3.452   2.058  10.091 -0.9071 -1.3718  1.4753
   21CHL1  H19B 1522   3.387   2.228  10.056  1.2123 -0.1967 -0.5318
   21CHL1  H19C 1523   3.407   2.172  10.221  0.9357  1.6726 -0.4290
   21CHL1    C1 1524   3.153   2.198  10.191 -0.3415 -0.0264 -0.3564
   21CHL1   H1A 1525   3.168   2.292  10.134 -0.4477  0.3955  0.3016
   21CHL1   H1B 1526   3.048   2.172  10.167  0.7481 -4.2613 -1.3400
   21CHL1    C2 1527   3.172   2.234  10.334  0.2314 -0.0889 -0.6168
   21CHL1   H2A 1528   3.111   2.320  10.370 -1.4794 -1.8303  0.8662
   21CHL1   H2B 1529   3.279   2.252  10.356  0.4135 -1.3613 -0.3693
   21CHL1   C20 1530   3.183   1.987   9.420 -0.1761 -0.2110 -0.4737
   21CHL1   H20 1531   3.290   1.987   9.389  0.2218 -2.9206  0.5993
   21CHL1   C21 1532   3.121   2.129   9.415 -0.4896  0.1092 -0.0772
   21CHL1  H21A 1533   3.013   2.125   9.439 -0.7802  0.9212 -1.1471
   21CHL1  H21B 1534   3.121   2.171   9.311 -1.0084 -1.9572 -0.9604
   21CHL1  H21C 1535   3.157   2.205   9.487 -1.9701  2.5128 -1.7320
   21CHL1   C22 1536   3.121   1.895   9.309  0.6071 -0.4219 -0.8256
   21CHL1  H22A 1537   3.149   1.789   9.327  0.6983 -0.2923 -0.2045
   21CHL1  H22B 1538   3.010   1.905   9.314  0.3889 -2.6270 -0.2225
   21CHL1   C23 1539   3.157   1.926   9.167 -0.9604  0.7101  0.5669
   21CHL1  H23A 1540   3.103   2.018   9.136  0.0633  0.6537 -1.6155
   21CHL1  H23B 1541   3.263   1.960   9.165 -1.3292  1.9077 -0.0338
   21CHL1   C24 1542   3.126   1.808   9.080  0.5352  0.1844  0.4912
   21CHL1  H24A 1543   3.174   1.710   9.106 -1.7067 -0.5676  2.1860
   21CHL1  H24B 1544   3.017   1.786   9.091 -0.3303  3.4129 -0.7908
   21CHL1   C25 1545   3.144   1.844   8.929  0.1756 -0.5250  0.2617
   21CHL1   H25 1546   3.084   1.937   8.918 -0.3461 -0.3853  3.4059
   21CHL1   C26 1547   3.284   1.888   8.898 -0.0420  0.4938 -0.4743
   21CHL1  H26A 1548   3.344   1.800   8.867  1.9559  1.8566 -0.6089
   21CHL1  H26B 1549   3.285   1.963   8.816  0.2313  2.1934  1.0125
   21CHL1  H26C 1550   3.346   1.931   8.979 -1.9063  0.4810  1.0242
   21CHL1   C27 1551   3.108   1.730   8.832 -0.3671 -0.3396 -0.4059
   21CHL1  H27A 1552   3.160   1.636   8.857 -1.8826 -1.5763 -1.6467
   21CHL1  H27B 1553   2.998   1.714   8.841 -0.8958  2.2939 -1.0541
   21CHL1  H27C 1554   3.120   1.772   8.730 -2.2300  0.8915 -0.1757
   22CHL1    C3 1555   2.338   3.099  10.217 -0.2277 -0.4165 -0.8385
   22CHL1    H3 1556   2.437   3.142  10.245 -0.3585 -1.0879  0.7863
   22CHL1    O3 1557   2.259   3.092  10.339  0.1303 -0.0524 -0.3796
   22CHL1   H3' 1558   2.258   3.177  10.384 -0.7206  0.5481 -1.4824
   22CHL1    C4 1559   2.260   3.168  10.106  1.2430 -0.4452 -0.2052
   22CHL1   H4A 1560   2.154   3.136  10.114  1.0066  0.4486  0.4152
   22CHL1   H4B 1561   2.254   3.275  10.134 -1.1255  0.1132 -2.4455
   22CHL1    C5 1562   2.302   3.162   9.961 -0.9222  0.3472  0.1200
   22CHL1    C6 1563   2.316   3.265   9.878 -0.4058  0.4060  0.2936
   22CHL1    H6 1564   2.284   3.368   9.902 -1.5729  0.4299 -1.2302
   22CHL1    C7 1565   2.369   3.260   9.741 -0.5897 -0.4261 -0.5019
   22CHL1   H7A 1566   2.295   3.318   9.681 -1.1599  0.2145  0.7784
   22CHL1   H7B 1567   2.469   3.307   9.730 -0.4550 -0.4898  0.3609
   22CHL1    C8 1568   2.372   3.114   9.677  0.3708  0.1089 -0.0199
   22CHL1    H8 1569   2.269   3.093   9.644  0.1682  2.0459 -0.7705
   22CHL1   C14 1570   2.453   3.118   9.556 -0.2206  0.5767 -0.2476
   22CHL1   H14 1571   2.559   3.137   9.583 -0.1561  0.1340 -0.1744
   22CHL1   C15 1572   2.418   3.205   9.435 -1.2044  0.8051 -0.1171
   22CHL1  H15A 1573   2.309   3.219   9.418 -1.8666 -3.9472 -1.3125
   22CHL1  H15B 1574   2.465   3.302   9.464  1.4584 -0.5879  0.5431
   22CHL1   C16 1575   2.491   3.144   9.315  0.0874 -0.7071 -0.4729
   22CHL1  H16A 1576   2.409   3.122   9.244 -0.6194  0.6632 -0.1259
   22CHL1  H16B 1577   2.560   3.219   9.269 -1.1564  1.6845  1.3024
   22CHL1   C17 1578   2.556   3.017   9.366 -0.4545 -0.6930 -0.0809
   22CHL1   H17 1579   2.654   3.056   9.401 -1.7085  1.0364  1.7809
   22CHL1   C13 1580   2.479   2.981   9.496  0.0209 -0.6338  0.6201
   22CHL1   C18 1581   2.345   2.919   9.445 -0.2319 -0.2596  0.5806
   22CHL1  H18A 1582   2.353   2.810   9.422  2.8126  0.1829 -0.9575
   22CHL1  H18B 1583   2.268   2.919   9.525 -0.8243  2.7605  0.1266
   22CHL1  H18C 1584   2.308   2.976   9.357  0.1174  1.6492  1.6211
   22CHL1   C12 1585   2.549   2.888   9.598  0.3975  0.4720  0.1518
   22CHL1  H12A 1586   2.572   2.798   9.536  1.2098  0.1399  0.9158
   22CHL1  H12B 1587   2.644   2.928   9.639 -0.1710  0.7940  1.1658
   22CHL1   C11 1588   2.471   2.878   9.726 -0.5507  0.1941  0.0155
   22CHL1  H11A 1589   2.377   2.823   9.708 -0.6423  0.5553 -0.6184
   22CHL1  H11B 1590   2.532   2.825   9.803  3.3591  1.2969 -2.0267
   22CHL1    C9 1591   2.434   3.020   9.787  0.7229 -0.0016 -0.2785
   22CHL1    H9 1592   2.525   3.075   9.820 -1.3069  1.9764  2.5587
   22CHL1   C10 1593   2.347   3.014   9.918 -0.0710 -0.1518  0.0652
   22CHL1   C19 1594   2.208   2.941   9.905  0.7528 -0.5383  0.8362
   22CHL1  H19A 1595   2.162   2.962   9.806  1.0700 -0.8717  0.6117
   22CHL1  H19B 1596   2.228   2.832   9.907  4.2396 -0.0389  0.0569
   22CHL1  H19C 1597   2.131   2.952   9.984 -2.2648  1.9803 -2.1526
   22CHL1    C1 1598   2.431   2.945  10.034 -0.3817 -0.0237  0.4587
   22CHL1   H1A 1599   2.447   2.838  10.011  1.8238  0.0167  1.5696
   22CHL1   H1B 1600   2.536   2.981  10.041  0.0071 -1.3419  1.8243
   22CHL1    C2 1601   2.366   2.960  10.174 -0.2886 -0.0792 -0.3348
   22CHL1   H2A 1602   2.434   2.904  10.241  2.3300 -0.2062 -2.9135
   22CHL1   H2B 1603   2.274   2.897  10.171 -1.8193  2.0787 -1.2220
   22CHL1   C20 1604   2.592   2.910   9.268 -0.8628  0.4128 -0.4235
   22CHL1   H20 1605   2.611   2.813   9.319  3.9546  1.4402  0.1966
   22CHL1   C21 1606   2.736   2.934   9.222 -0.1244 -0.5066 -0.4865
   22CHL1  H21A 1607   2.772   2.870   9.139 -0.2255 -0.5038 -0.5320
   22CHL1  H21B 1608   2.806   2.917   9.307 -0.2353 -2.1589 -0.7106
   22CHL1  H21C 1609   2.735   3.034   9.174 -0.9868  0.9624  2.3568
   22CHL1   C22 1610   2.499   2.878   9.155 -0.2629 -0.1670 -0.0036
   22CHL1  H22A 1611   2.405   2.845   9.203  0.2855 -0.4453  0.9154
   22CHL1  H22B 1612   2.487   2.965   9.088  3.1163  2.7964  2.7805
   22CHL1   C23 1613   2.540   2.756   9.072 -0.4327 -0.0608 -0.0114
   22CHL1  H23A 1614   2.634   2.784   9.020 -0.1019  2.8655  1.9332
   22CHL1  H23B 1615   2.565   2.676   9.145 -3.4420 -0.2223  0.9771
   22CHL1   C24 1616   2.429   2.705   8.983  0.4394 -0.4471  0.0749
   22CHL1  H24A 1617   2.345   2.673   9.049  0.7225 -0.3962  0.4653
   22CHL1  H24B 1618   2.396   2.793   8.925 -2.4382  0.1405  2.4070
   22CHL1   C25 1619   2.475   2.590   8.892 -0.6444 -0.2426 -0.2151
   22CHL1   H25 1620   2.563   2.633   8.840 -0.4220  0.4942  0.7296
   22CHL1   C26 1621   2.531   2.467   8.963 -0.6640  0.2338 -0.2935
   22CHL1  H26A 1622   2.578   2.485   9.062  0.4762  0.9542 -0.9490
   22CHL1  H26B 1623   2.437   2.414   8.991 -0.3677  0.4060  1.0567
   22CHL1  H26C 1624   2.577   2.395   8.891 -1.5606  0.1323 -0.7816
   22CHL1   C27 1625   2.370   2.554   8.790  0.9281 -1.2890 -0.0379
   22CHL1  H27A 1626   2.291   2.497   8.844 -0.8365  0.4287 -0.6735
   22CHL1  H27B 1627   2.328   2.645   8.742  0.5946 -0.4939  1.6984
   22CHL1  H27C 1628   2.403   2.485   8.709  2.7612  1.0544 -1.3714
   23CHL1    C3 1629   4.561   4.600  10.237 -0.1952 -0.6739 -0.3878
   23CHL1    H3 1630   4.633   4.518  10.258 -0.3553 -0.2365  2.1711
   23CHL1    O3 1631   4.518   4.647  10.368 -0.2542  0.5679  0.1062
   23CHL1   H3' 1632   4.465   4.569  10.388  1.2264 -0.6145 -0.3448
   23CHL1    C4 1633   4.630   4.711  10.160 -0.2619 -1.0126 -0.0254
   23CHL1   H4A 1634   4.551   4.789  10.150 -0.0751 -0.9428 -1.1318
   23CHL1   H4B 1635   4.719   4.755  10.208 -0.0924 -0.2529 -0.9904
   23CHL1    C5 1636   4.676   4.668  10.018 -0.2474 -0.3107 -0.7298
   23CHL1    C6 1637   4.802   4.681   9.982  0.2743  0.4284 -0.4689
   23CHL1    H6 1638   4.880   4.722  10.049  0.4011 -0.7296  0.1161
   23CHL1    C7 1639   4.852   4.643   9.846 -0.6031  0.1109  0.0355
   23CHL1   H7A 1640   4.909   4.725   9.799 -0.9375  1.3984  1.7929
   23CHL1   H7B 1641   4.917   4.554   9.858 -0.1664  0.7732  4.1999
   23CHL1    C8 1642   4.738   4.612   9.745 -0.7680 -0.2483 -0.4626
   23CHL1    H8 1643   4.706   4.713   9.714 -1.6617 -0.7296 -1.1258
   23CHL1   C14 1644   4.785   4.545   9.616 -0.2506  0.2726 -0.6148
   23CHL1   H14 1645   4.816   4.446   9.654 -2.7177 -0.0083  0.9264
   23CHL1   C15 1646   4.899   4.617   9.540  0.0652 -0.0973  0.5189
   23CHL1  H15A 1647   4.884   4.726   9.556  1.7710  0.1570  0.5643
   23CHL1  H15B 1648   4.989   4.576   9.591  0.1488  1.7009  1.9189
   23CHL1   C16 1649   4.885   4.557   9.397  0.6812 -0.6396 -0.3774
   23CHL1  H16A 1650   4.864   4.643   9.330 -0.0294  0.9526  1.7382
   23CHL1  H16B 1651   4.974   4.502   9.359  2.2875  2.1191 -0.8561
   23CHL1   C17 1652   4.760   4.463   9.395  0.0365  0.7695  0.2120
   23CHL1   H17 1653   4.798   4.364   9.426  1.6982  1.4712  0.5366
   23CHL1   C13 1654   4.671   4.514   9.510 -0.4932  0.3507 -0.3684
   23CHL1   C18 1655   4.608   4.643   9.465  0.6484  0.0180  0.3302
   23CHL1  H18A 1656   4.678   4.720   9.428  1.0333 -1.7558 -2.9536
   23CHL1  H18B 1657   4.521   4.625   9.398  1.0378 -2.8223  0.4614
   23CHL1  H18C 1658   4.572   4.679   9.564  0.8647  0.3996  0.2672
   23CHL1   C12 1659   4.579   4.418   9.587 -0.0970  0.4877  0.2183
   23CHL1  H12A 1660   4.494   4.384   9.524 -1.0202  2.7050  0.1811
   23CHL1  H12B 1661   4.628   4.320   9.607  0.0588  0.4227 -0.4568
   23CHL1   C11 1662   4.523   4.484   9.714 -0.1112  0.0979  0.3538
   23CHL1  H11A 1663   4.457   4.569   9.684  0.7329  0.7680  0.3345
   23CHL1  H11B 1664   4.463   4.411   9.771 -0.5413  1.7145  2.0565
   23CHL1    C9 1665   4.634   4.535   9.812  0.4356  0.5143  0.3449
   23CHL1    H9 1666   4.672   4.435   9.843 -1.6359 -0.6304 -0.5913
   23CHL1   C10 1667   4.568   4.610   9.932 -0.2967  0.4164 -0.2191
   23CHL1   C19 1668   4.477   4.729   9.891  0.1852 -0.5696  0.9726
   23CHL1  H19A 1669   4.397   4.693   9.823  0.5989  1.5521 -0.7554
   23CHL1  H19B 1670   4.437   4.787   9.977 -1.9092  1.0762 -1.0044
   23CHL1  H19C 1671   4.527   4.810   9.834 -1.9642  1.0642  1.2582
   23CHL1    C1 1672   4.478   4.513  10.016 -0.0401  0.3448  0.7434
   23CHL1   H1A 1673   4.384   4.481   9.965 -0.0283 -0.5554  1.2796
   23CHL1   H1B 1674   4.547   4.427  10.023  0.9437  0.8605 -1.4970
   23CHL1    C2 1675   4.439   4.556  10.156  0.1769  0.4700  0.1247
   23CHL1   H2A 1676   4.402   4.471  10.218 -0.4549  0.4850 -0.2243
   23CHL1   H2B 1677   4.362   4.634  10.139  1.0272  1.2834 -0.1108
   23CHL1   C20 1678   4.704   4.458   9.253  0.4630  0.0317  0.5650
   23CHL1   H20 1679   4.665   4.556   9.217  2.0656  1.4464  2.4398
   23CHL1   C21 1680   4.585   4.363   9.256 -0.2667  0.4146 -0.0660
   23CHL1  H21A 1681   4.497   4.416   9.299 -2.0199 -0.8554 -1.9112
   23CHL1  H21B 1682   4.600   4.261   9.297  0.0375  0.2578 -0.5525
   23CHL1  H21C 1683   4.540   4.354   9.154  0.1147  0.8326 -0.2742
   23CHL1   C22 1684   4.804   4.411   9.143  0.1496 -0.4100  0.1242
   23CHL1  H22A 1685   4.761   4.409   9.041  1.2824  0.2911 -0.3921
   23CHL1  H22B 1686   4.895   4.474   9.141 -1.2527  1.7127 -0.9426
   23CHL1   C23 1687   4.850   4.265   9.160 -0.1463 -0.2069 -0.7824
   23CHL1  H23A 1688   4.907   4.259   9.255 -1.1829 -0.9729 -0.1851
   23CHL1  H23B 1689   4.767   4.191   9.166  1.3085 -2.0112 -1.6597
   23CHL1   C24 1690   4.937   4.219   9.041  0.2245  0.2718  0.1519
   23CHL1  H24A 1691   4.877   4.258   8.956 -2.6535 -1.6226  1.1694
   23CHL1  H24B 1692   5.037   4.267   9.048  0.2160  0.0646  2.0899
   23CHL1   C25 1693   4.963   4.062   9.037 -0.4390 -0.0467 -0.6843
   23CHL1   H25 1694   4.984   4.032   9.142 -0.6392 -1.7891 -1.1103
   23CHL1   C26 1695   4.840   3.992   8.991  0.2632 -0.4533  0.1740
   23CHL1  H26A 1696   4.747   4.007   9.049 -0.1602 -1.0764 -0.3240
   23CHL1  H26B 1697   4.815   4.033   8.890 -0.2941 -0.2283  0.4034
   23CHL1  H26C 1698   4.845   3.882   8.997  1.4064 -0.3633  1.1818
   23CHL1   C27 1699   5.077   4.034   8.948 -0.6521  0.3063  0.3149
   23CHL1  H27A 1700   5.108   3.928   8.956 -0.1051  0.3459 -0.9057
   23CHL1  H27B 1701   5.058   4.061   8.841 -2.1692  1.7673  0.9076
   23CHL1  H27C 1702   5.162   4.098   8.981  0.2894 -1.0686  0.6549
   24CHL1    C3 1703   6.711   4.941  10.311 -0.1939  0.4181 -0.2236
   24CHL1    H3 1704   6.762   5.028  10.264  1.1278 -0.5704 -0.6999
   24CHL1    O3 1705   6.739   4.955  10.450 -0.1570  0.0532 -0.1084
   24CHL1   H3' 1706   6.692   4.879  10.486 -0.9775  0.3885 -0.4552
   24CHL1    C4 1707   6.563   4.962  10.291  0.4870 -0.6190  0.6643
   24CHL1   H4A 1708   6.509   4.891  10.356 -0.8656 -1.1888 -1.0267
   24CHL1   H4B 1709   6.545   5.064  10.332  0.7937  0.2849 -1.3366
   24CHL1    C5 1710   6.545   4.949  10.140 -0.3611  0.1813 -0.7616
   24CHL1    C6 1711   6.493   5.055  10.070  0.4999  0.1486 -0.3022
   24CHL1    H6 1712   6.464   5.143  10.129 -0.7172 -0.2504 -0.2768
   24CHL1    C7 1713   6.457   5.048   9.925 -0.6141 -0.4029 -0.2572
   24CHL1   H7A 1714   6.351   5.082   9.931  0.4719  3.6553 -1.0445
   24CHL1   H7B 1715   6.517   5.121   9.866  0.4745 -0.9141  0.1972
   24CHL1    C8 1716   6.490   4.913   9.865 -0.1999  0.0544  0.0859
   24CHL1    H8 1717   6.397   4.854   9.881 -0.1548 -0.2263 -0.6702
   24CHL1   C14 1718   6.513   4.926   9.709  0.0958  0.4681  0.0688
   24CHL1   H14 1719   6.611   4.977   9.700  0.4470 -0.1749  0.1963
   24CHL1   C15 1720   6.418   5.015   9.631  0.3384 -0.3151 -1.1969
   24CHL1  H15A 1721   6.315   4.978   9.651  0.0166  1.1853  0.1430
   24CHL1  H15B 1722   6.410   5.122   9.658 -0.2335 -0.7739  0.6093
   24CHL1   C16 1723   6.457   4.986   9.483 -0.1863 -0.2110 -0.3967
   24CHL1  H16A 1724   6.370   4.965   9.419 -2.1487 -1.2799  2.4343
   24CHL1  H16B 1725   6.518   5.066   9.435  0.2540  0.7386  1.6221
   24CHL1   C17 1726   6.545   4.855   9.490  0.5554 -0.2813  0.3856
   24CHL1   H17 1727   6.653   4.883   9.486  0.1001  2.1733  2.5665
   24CHL1   C13 1728   6.524   4.795   9.634  0.0534 -0.2284 -0.0136
   24CHL1   C18 1729   6.395   4.709   9.634 -0.2904  0.1196  0.5200
   24CHL1  H18A 1730   6.374   4.679   9.738  0.2157  0.8113  0.8324
   24CHL1  H18B 1731   6.308   4.768   9.597  0.1720  1.7885  1.9882
   24CHL1  H18C 1732   6.402   4.614   9.576  2.4542 -0.8060  2.1918
   24CHL1   C12 1733   6.648   4.721   9.698 -0.4960 -0.8584 -1.1258
   24CHL1  H12A 1734   6.655   4.619   9.653 -0.4120 -1.6349  0.5450
   24CHL1  H12B 1735   6.742   4.773   9.673 -1.2336  1.2897  0.3051
   24CHL1   C11 1736   6.626   4.700   9.850  0.1050  0.0343  0.4217
   24CHL1  H11A 1737   6.529   4.646   9.854  0.0288 -0.0150 -1.2893
   24CHL1  H11B 1738   6.706   4.640   9.898 -2.1357 -1.9541  1.9300
   24CHL1    C9 1739   6.598   4.839   9.928 -0.5891 -0.1164  0.4348
   24CHL1    H9 1740   6.692   4.893   9.907 -0.4568 -0.2432  0.6937
   24CHL1   C10 1741   6.598   4.821  10.078  0.5123 -0.3759  0.0311
   24CHL1   C19 1742   6.495   4.721  10.120  0.4996 -0.2636  0.8256
   24CHL1  H19A 1743   6.516   4.618  10.083 -1.0841  0.0579 -1.1842
   24CHL1  H19B 1744   6.470   4.721  10.228 -0.8472 -1.2268  0.5472
   24CHL1  H19C 1745   6.406   4.744  10.057  2.2625  2.4734 -0.8405
   24CHL1    C1 1746   6.744   4.788  10.128 -0.2897  0.5453 -0.2628
   24CHL1   H1A 1747   6.771   4.682  10.106 -2.4555  0.2478 -1.8324
   24CHL1   H1B 1748   6.819   4.850  10.076 -0.7736 -0.4018 -2.2014
   24CHL1    C2 1749   6.764   4.799  10.278  0.9898 -0.5184  0.2410
   24CHL1   H2A 1750   6.871   4.789  10.305  0.7583  0.0073  1.3873
   24CHL1   H2B 1751   6.707   4.718  10.329 -1.3013  0.2839 -0.9296
   24CHL1   C20 1752   6.517   4.767   9.365  0.0407 -0.2053  0.1886
   24CHL1   H20 1753   6.412   4.731   9.371 -0.5106  1.3694  0.6614
   24CHL1   C21 1754   6.611   4.645   9.362  0.4475 -1.1039 -0.0601
   24CHL1  H21A 1755   6.576   4.575   9.283  0.4852 -1.5384  0.2979
   24CHL1  H21B 1756   6.622   4.580   9.452 -0.5863 -0.8229  0.2846
   24CHL1  H21C 1757   6.714   4.677   9.337  0.5071 -1.4684 -0.2967
   24CHL1   C22 1758   6.545   4.844   9.234  0.8723 -0.3270 -0.3379
   24CHL1  H22A 1759   6.507   4.948   9.245  2.1167  0.0354  0.7590
   24CHL1  H22B 1760   6.654   4.865   9.244  0.8840 -0.1864 -0.7187
   24CHL1   C23 1761   6.532   4.774   9.098  0.0690  0.1622 -0.7256
   24CHL1  H23A 1762   6.603   4.690   9.081  2.7175  2.5627 -2.3624
   24CHL1  H23B 1763   6.428   4.736   9.085 -0.3356  0.2728  1.7982
   24CHL1   C24 1764   6.562   4.870   8.988 -0.5722  0.3843  0.5095
   24CHL1  H24A 1765   6.480   4.942   8.968 -0.2386  0.1717 -1.8708
   24CHL1  H24B 1766   6.644   4.942   9.011 -1.6236  1.8662 -0.2153
   24CHL1   C25 1767   6.600   4.806   8.851 -0.7440 -0.4477 -0.9296
   24CHL1   H25 1768   6.687   4.743   8.875 -0.5529  0.1822  0.1474
   24CHL1   C26 1769   6.491   4.713   8.793 -0.3128 -0.1704 -0.0568
   24CHL1  H26A 1770   6.468   4.621   8.852 -0.7733  0.4765  0.7816
   24CHL1  H26B 1771   6.398   4.768   8.768  0.1326 -0.0805 -1.6516
   24CHL1  H26C 1772   6.525   4.673   8.694 -1.1622  1.4229 -1.0261
   24CHL1   C27 1773   6.639   4.902   8.741  0.0273 -0.6434  0.0595
   24CHL1  H27A 1774   6.685   4.835   8.666  0.5804 -2.3430  1.8394
   24CHL1  H27B 1775   6.559   4.957   8.686 -0.1485 -2.5632 -1.7100
   24CHL1  H27C 1776   6.714   4.979   8.769 -1.4678  1.1057 -0.4737
   25CHL1    C3 1777   1.163   5.855  10.439  0.1401 -0.6962 -0.2065
   25CHL1    H3 1778   1.115   5.951  10.411  0.2771 -0.6052 -0.1259
   25CHL1    O3 1779   1.167   5.848  10.580  0.2033  0.2245 -0.5019
   25CHL1   H3' 1780   1.079   5.868  10.610  0.3461 -1.9252  1.6515
   25CHL1    C4 1781   1.069   5.748  10.390 -0.2077 -0.4389  0.6939
   25CHL1   H4A 1782   1.094   5.648  10.430 -0.9187 -0.6162  0.6983
   25CHL1   H4B 1783   0.966   5.755  10.431 -0.7755 -1.7663 -0.4243
   25CHL1    C5 1784   1.063   5.759  10.234 -0.9326  0.1694 -0.4401
   25CHL1    C6 1785   0.944   5.770  10.165 -0.0573  0.3317 -0.2734
   25CHL1    H6 1786   0.848   5.769  10.219 -0.8355 -0.0921 -1.6173
   25CHL1    C7 1787   0.930   5.760  10.011  1.2062 -0.4790  0.0904
   25CHL1   H7A 1788   0.853   5.686   9.979 -0.2787  0.6552  0.9320
   25CHL1   H7B 1789   0.900   5.860   9.973  3.0782 -0.5862 -1.8540
   25CHL1    C8 1790   1.056   5.715   9.945 -1.2759 -0.3793  0.6439
   25CHL1    H8 1791   1.072   5.605   9.957  1.2950 -0.1577 -0.2847
   25CHL1   C14 1792   1.055   5.767   9.805  0.6499 -0.1323 -0.1658
   25CHL1   H14 1793   1.062   5.877   9.802  0.6606 -0.0822  1.0759
   25CHL1   C15 1794   0.926   5.741   9.730 -0.2493 -0.2081  0.2296
   25CHL1  H15A 1795   0.915   5.631   9.737 -2.0045  0.0748  3.3151
   25CHL1  H15B 1796   0.834   5.784   9.775  0.0619 -0.3347  0.9958
   25CHL1   C16 1797   0.961   5.765   9.579 -0.3521 -0.0149  0.0997
   25CHL1  H16A 1798   0.930   5.683   9.511 -0.3325  0.8127 -0.9322
   25CHL1  H16B 1799   0.918   5.862   9.547  0.9449  0.2908 -0.8236
   25CHL1   C17 1800   1.118   5.788   9.584  0.7586 -0.8043 -0.3011
   25CHL1   H17 1801   1.121   5.898   9.592 -0.8771 -0.8402  1.5006
   25CHL1   C13 1802   1.169   5.727   9.718  0.5520  0.2899  0.2719
   25CHL1   C18 1803   1.188   5.567   9.706  0.2301 -0.0949  0.2418
   25CHL1  H18A 1804   1.181   5.520   9.807  0.5737  0.5142  0.5539
   25CHL1  H18B 1805   1.108   5.526   9.640  1.4072 -0.7453 -0.8112
   25CHL1  H18C 1806   1.277   5.532   9.650 -2.0757 -0.6906 -3.4377
   25CHL1   C12 1807   1.295   5.793   9.772 -0.2143  0.9766 -0.4344
   25CHL1  H12A 1808   1.376   5.753   9.708 -0.1323 -0.5773  0.5930
   25CHL1  H12B 1809   1.291   5.903   9.758 -2.5381  0.8453 -1.3844
   25CHL1   C11 1810   1.313   5.766   9.922  0.0991  0.1624 -0.5369
   25CHL1  H11A 1811   1.352   5.662   9.932 -0.4258  0.1383  1.7019
   25CHL1  H11B 1812   1.394   5.832   9.960  2.0248 -2.0166 -0.6115
   25CHL1    C9 1813   1.183   5.783  10.003 -0.0538 -0.1802 -0.2626
   25CHL1    H9 1814   1.156   5.890   9.996 -1.1920 -0.4641 -0.3990
   25CHL1   C10 1815   1.197   5.751  10.153  0.1643 -0.6664 -0.4867
   25CHL1   C19 1816   1.252   5.606  10.173 -0.3944  0.0787 -0.8270
   25CHL1  H19A 1817   1.276   5.577  10.278 -0.9659  0.4440 -0.5918
   25CHL1  H19B 1818   1.195   5.531  10.116  1.0086 -0.7044 -1.2463
   25CHL1  H19C 1819   1.354   5.605  10.129 -0.3423  2.9926 -0.9902
   25CHL1    C1 1820   1.290   5.851  10.212 -0.7941  0.1722  0.0706
   25CHL1   H1A 1821   1.396   5.839  10.184  0.0685  2.3272  2.0530
   25CHL1   H1B 1822   1.261   5.955  10.185  0.7099  0.3798 -0.8737
   25CHL1    C2 1823   1.301   5.859  10.366 -0.1136  0.5387  0.2633
   25CHL1   H2A 1824   1.350   5.956  10.388 -2.2316  2.0080 -1.1024
   25CHL1   H2B 1825   1.365   5.773  10.396  0.5962  1.1332  0.4831
   25CHL1   C20 1826   1.183   5.753   9.442  0.6397 -0.4912 -0.4924
   25CHL1   H20 1827   1.154   5.651   9.409  0.8819 -0.6753 -0.1329
   25CHL1   C21 1828   1.336   5.752   9.449 -0.4467  0.2970 -0.2082
   25CHL1  H21A 1829   1.372   5.672   9.517  1.6767  1.1144 -0.2821
   25CHL1  H21B 1830   1.386   5.843   9.490 -3.9469  1.0012  2.9938
   25CHL1  H21C 1831   1.368   5.723   9.346 -2.7227 -1.1463 -0.5736
   25CHL1   C22 1832   1.116   5.841   9.327  1.0869 -0.2433 -0.0022
   25CHL1  H22A 1833   1.006   5.822   9.329  0.4260  2.8943 -0.5278
   25CHL1  H22B 1834   1.127   5.951   9.342  2.1265 -0.1665 -1.2470
   25CHL1   C23 1835   1.173   5.815   9.186  0.7604  0.0052  0.0193
   25CHL1  H23A 1836   1.280   5.840   9.172 -0.0002  3.2694 -0.6143
   25CHL1  H23B 1837   1.159   5.705   9.175 -0.4697  0.3029 -1.9821
   25CHL1   C24 1838   1.088   5.874   9.071  0.4256 -0.5515 -0.4596
   25CHL1  H24A 1839   0.981   5.862   9.098 -0.1906 -0.5647 -2.7246
   25CHL1  H24B 1840   1.101   5.984   9.065  0.0547 -0.5211 -0.7107
   25CHL1   C25 1841   1.111   5.825   8.926 -0.0919  0.3505  0.2575
   25CHL1   H25 1842   1.125   5.715   8.936 -0.6394  0.1609 -0.9090
   25CHL1   C26 1843   0.987   5.852   8.844  0.5265  0.2671  0.0616
   25CHL1  H26A 1844   0.998   5.806   8.743  0.6433 -1.6256  0.8929
   25CHL1  H26B 1845   0.899   5.799   8.887 -1.0647  0.3514 -2.8487
   25CHL1  H26C 1846   0.975   5.961   8.828 -0.4763 -0.1565 -2.5791
   25CHL1   C27 1847   1.236   5.878   8.855  0.8160  0.4123  0.1782
   25CHL1  H27A 1848   1.319   5.890   8.928 -0.2365  2.3069  1.1412
   25CHL1  H27B 1849   1.253   5.812   8.767 -0.7369 -1.1158  0.9521
   25CHL1  H27C 1850   1.228   5.980   8.813 -0.8284  0.4269  0.4657
   26CHL1    C3 1851   2.743   3.211  10.131 -0.0144  0.0843  0.0544
   26CHL1    H3 1852   2.656   3.144  10.115 -0.5251  0.9919 -1.2191
   26CHL1    O3 1853   2.754   3.230  10.271  0.2171 -0.7014  0.0157
   26CHL1   H3' 1854   2.838   3.275  10.287 -0.0359 -0.8826  2.0301
   26CHL1    C4 1855   2.873   3.144  10.094 -0.3254 -0.4509  0.0997
   26CHL1   H4A 1856   2.958   3.204  10.135 -0.2297 -0.8797  0.5351
   26CHL1   H4B 1857   2.881   3.043  10.139 -0.0876 -0.1715  0.7028
   26CHL1    C5 1858   2.885   3.132   9.942  0.1817 -0.7673  0.8025
   26CHL1    C6 1859   2.914   3.017   9.879  0.2661 -1.2138 -0.8488
   26CHL1    H6 1860   2.928   2.925   9.937  0.4375 -0.5315  0.2199
   26CHL1    C7 1861   2.930   3.007   9.729 -0.4154  0.1817 -0.3923
   26CHL1   H7A 1862   3.018   2.943   9.707  1.9117  2.6009  1.1967
   26CHL1   H7B 1863   2.836   2.968   9.685 -0.1096  0.4561 -1.3084
   26CHL1    C8 1864   2.961   3.147   9.664 -0.2875 -0.0218 -0.3812
   26CHL1    H8 1865   3.064   3.172   9.698 -0.5419  2.2951 -1.1615
   26CHL1   C14 1866   2.956   3.137   9.512 -0.6984 -0.4970  0.0527
   26CHL1   H14 1867   2.857   3.099   9.479 -0.0115 -0.4588 -2.1681
   26CHL1   C15 1868   3.057   3.041   9.445  0.1207  0.0135 -0.1225
   26CHL1  H15A 1869   3.156   3.035   9.494 -0.1403 -1.6492  0.2748
   26CHL1  H15B 1870   3.018   2.937   9.449  1.3241 -0.4231  1.1417
   26CHL1   C16 1871   3.070   3.086   9.300 -0.2406  0.6501  0.4057
   26CHL1  H16A 1872   3.179   3.083   9.282 -0.3334 -1.5960 -0.1520
   26CHL1  H16B 1873   3.023   3.008   9.235 -1.6668  3.4490 -2.1844
   26CHL1   C17 1874   3.005   3.228   9.293  0.5612 -0.1736  0.4353
   26CHL1   H17 1875   2.899   3.214   9.264  0.4846 -0.7231  0.9792
   26CHL1   C13 1876   2.988   3.269   9.443 -0.0879 -0.3145  0.1867
   26CHL1   C18 1877   3.120   3.313   9.495  0.4705  0.0758 -0.7276
   26CHL1  H18A 1878   3.203   3.239   9.492 -0.8192 -1.4498  0.0244
   26CHL1  H18B 1879   3.163   3.399   9.439  0.3176  0.6423  0.0118
   26CHL1  H18C 1880   3.115   3.349   9.600  1.1292  0.8472 -0.9474
   26CHL1   C12 1881   2.877   3.369   9.475 -0.1891 -0.4526  0.4448
   26CHL1  H12A 1882   2.906   3.470   9.440  0.3969 -0.2210  1.5527
   26CHL1  H12B 1883   2.774   3.343   9.440 -0.3933  1.7799 -0.7966
   26CHL1   C11 1884   2.863   3.379   9.633  0.4449  0.0295  0.6319
   26CHL1  H11A 1885   2.947   3.449   9.655  0.8210  0.7689 -2.6288
   26CHL1  H11B 1886   2.771   3.434   9.659 -0.0685 -1.5032  2.3207
   26CHL1    C9 1887   2.859   3.248   9.714  0.4143  0.0292  0.5082
   26CHL1    H9 1888   2.758   3.212   9.684 -0.0598  1.9369 -0.3308
   26CHL1   C10 1889   2.860   3.264   9.870  0.3346  0.1210  0.0655
   26CHL1   C19 1890   2.977   3.366   9.895  0.4095  0.2637  0.8352
   26CHL1  H19A 1891   2.990   3.359  10.005  1.9700 -0.8892  0.6099
   26CHL1  H19B 1892   3.065   3.331   9.836 -0.1648  0.8058 -0.3810
   26CHL1  H19C 1893   2.956   3.473   9.870  3.0048  0.5563 -0.4503
   26CHL1    C1 1894   2.720   3.314   9.908 -0.0856 -0.0242  0.0271
   26CHL1   H1A 1895   2.710   3.412   9.856 -0.6313  0.0165  0.2099
   26CHL1   H1B 1896   2.640   3.245   9.872 -0.0838 -1.4579  2.5495
   26CHL1    C2 1897   2.703   3.340  10.056 -0.0877  0.0014  0.3135
   26CHL1   H2A 1898   2.604   3.381  10.085  0.3677  3.1989 -2.1241
   26CHL1   H2B 1899   2.768   3.424  10.085 -1.1282  0.2453  2.0643
   26CHL1   C20 1900   3.067   3.319   9.178  0.5269 -0.0626 -0.5406
   26CHL1   H20 1901   3.172   3.347   9.201  0.7972  1.6413 -3.3157
   26CHL1   C21 1902   2.982   3.449   9.154  0.1367 -0.5286 -0.0738
   26CHL1  H21A 1903   2.874   3.423   9.149 -0.0944  0.1863  1.0516
   26CHL1  H21B 1904   3.026   3.508   9.071  0.8135 -0.3985  0.3734
   26CHL1  H21C 1905   2.989   3.515   9.243  0.5768  0.7812 -1.0532
   26CHL1   C22 1906   3.071   3.236   9.052  0.4316  0.8261  0.6484
   26CHL1  H22A 1907   3.113   3.303   8.974 -0.3589  0.8459  0.2338
   26CHL1  H22B 1908   3.150   3.157   9.054  1.3394  1.6439 -0.9607
   26CHL1   C23 1909   2.935   3.190   8.991  0.3752  0.7177  0.5779
   26CHL1  H23A 1910   2.863   3.144   9.062 -0.2452  1.9877  0.8084
   26CHL1  H23B 1911   2.877   3.283   8.974 -1.0582 -0.1623  0.5443
   26CHL1   C24 1912   2.926   3.090   8.874 -0.4048 -0.3049  0.1368
   26CHL1  H24A 1913   2.974   2.997   8.912  0.0156  0.2663  1.0468
   26CHL1  H24B 1914   2.817   3.079   8.859 -0.4203  0.6378 -0.5529
   26CHL1   C25 1915   2.992   3.150   8.752  0.0715  0.6173  0.0144
   26CHL1   H25 1916   3.078   3.217   8.772  0.3136  0.9957 -2.0329
   26CHL1   C26 1917   3.056   3.045   8.661  0.2637  0.3640 -0.1362
   26CHL1  H26A 1918   2.982   2.963   8.645 -0.7637  1.0748  0.7777
   26CHL1  H26B 1919   3.098   3.091   8.569 -1.4427  0.0168 -1.1587
   26CHL1  H26C 1920   3.133   2.984   8.713  1.1010  0.0801 -1.6336
   26CHL1   C27 1921   2.894   3.240   8.676 -1.0219  0.0675 -0.0219
   26CHL1  H27A 1922   2.810   3.189   8.625  0.6401  1.1091 -4.2596
   26CHL1  H27B 1923   2.854   3.324   8.737  0.0789 -0.9485  2.1880
   26CHL1  H27C 1924   2.961   3.283   8.598 -0.8899 -1.4046 -0.7448
   27CHL1    C3 1925   2.548   6.337  10.360 -0.3279  0.1844 -0.1493
   27CHL1    H3 1926   2.516   6.442  10.378 -0.0432  0.1872  0.3494
   27CHL1    O3 1927   2.568   6.287  10.490  0.1214  0.1519 -0.0179
   27CHL1   H3' 1928   2.625   6.209  10.485  0.9892  0.5624  2.0346
   27CHL1    C4 1929   2.439   6.257  10.288  0.0710 -0.2378  0.2194
   27CHL1   H4A 1930   2.453   6.147  10.291  2.4733 -0.0131  2.8297
   27CHL1   H4B 1931   2.348   6.261  10.351 -1.0992  0.3822 -1.4457
   27CHL1    C5 1932   2.421   6.299  10.139  0.6208  0.5494 -1.2068
   27CHL1    C6 1933   2.308   6.335  10.091 -0.0514  0.6759 -0.1577
   27CHL1    H6 1934   2.212   6.339  10.145 -0.2331 -0.0306 -0.4160
   27CHL1    C7 1935   2.295   6.375   9.942  0.2197  0.6038  0.3973
   27CHL1   H7A 1936   2.204   6.325   9.903 -1.7968  3.9489  0.4893
   27CHL1   H7B 1937   2.282   6.485   9.934 -1.5754  0.3911 -0.0412
   27CHL1    C8 1938   2.415   6.325   9.845 -0.7559  0.0553 -0.0591
   27CHL1    H8 1939   2.409   6.214   9.846 -0.7431  0.0420  2.2316
   27CHL1   C14 1940   2.404   6.374   9.698  0.3211  0.1091 -0.5267
   27CHL1   H14 1941   2.413   6.484   9.712  0.0869  0.0284  0.3077
   27CHL1   C15 1942   2.274   6.359   9.619  0.7111 -0.1504 -0.1682
   27CHL1  H15A 1943   2.240   6.254   9.628  0.7885 -0.2569 -1.0443
   27CHL1  H15B 1944   2.190   6.425   9.649  2.3608  2.0270 -0.0937
   27CHL1   C16 1945   2.308   6.385   9.473 -0.3580  0.1604 -0.6425
   27CHL1  H16A 1946   2.281   6.298   9.409  1.9214 -0.2672 -1.1091
   27CHL1  H16B 1947   2.237   6.462   9.436  1.2468  2.2963  0.5490
   27CHL1   C17 1948   2.462   6.416   9.476  0.5154  0.3323 -0.7943
   27CHL1   H17 1949   2.483   6.523   9.500  1.7811  0.5294 -2.5383
   27CHL1   C13 1950   2.521   6.335   9.606  1.0762  0.1568  0.6824
   27CHL1   C18 1951   2.524   6.182   9.575 -0.1422  0.1599  0.0083
   27CHL1  H18A 1952   2.549   6.132   9.672 -1.7461  0.1559  0.4576
   27CHL1  H18B 1953   2.425   6.151   9.536  0.1751 -1.6817  0.5653
   27CHL1  H18C 1954   2.599   6.164   9.495 -1.7042 -2.1831 -1.0473
   27CHL1   C12 1955   2.652   6.386   9.672 -0.0242  0.4414  0.6157
   27CHL1  H12A 1956   2.736   6.355   9.605 -0.2961 -0.2161  0.5706
   27CHL1  H12B 1957   2.643   6.495   9.688 -1.1445  0.7472 -1.7300
   27CHL1   C11 1958   2.669   6.329   9.815  1.1192 -0.2651  0.1812
   27CHL1  H11A 1959   2.680   6.219   9.800  4.0347 -0.1757  1.0302
   27CHL1  H11B 1960   2.764   6.358   9.864  0.1501  1.7351  0.9677
   27CHL1    C9 1961   2.549   6.357   9.914  0.0961  0.8346 -0.6290
   27CHL1    H9 1962   2.533   6.466   9.924  0.8396  0.7379  3.4023
   27CHL1   C10 1963   2.552   6.293  10.056 -0.3288 -0.3428 -0.3844
   27CHL1   C19 1964   2.594   6.147  10.036  0.2360 -0.1376  0.4106
   27CHL1  H19A 1965   2.698   6.139   9.997  0.3748  0.3382  0.6709
   27CHL1  H19B 1966   2.601   6.094  10.133  1.0585 -0.6478  0.0792
   27CHL1  H19C 1967   2.523   6.093   9.971  1.2200  0.0499 -0.8565
   27CHL1    C1 1968   2.659   6.368  10.133 -0.8336 -0.3329  0.1239
   27CHL1   H1A 1969   2.759   6.355  10.087  0.5070  0.2986  2.6827
   27CHL1   H1B 1970   2.641   6.478  10.129 -1.3338 -0.3903  0.6649
   27CHL1    C2 1971   2.672   6.336  10.281 -0.2536  0.8874 -0.7016
   27CHL1   H2A 1972   2.734   6.416  10.327  1.1878 -0.5243 -0.0918
   27CHL1   H2B 1973   2.719   6.237  10.303 -1.5711  0.6421  1.3172
   27CHL1   C20 1974   2.536   6.395   9.343 -0.5847 -0.2563  0.0929
   27CHL1   H20 1975   2.548   6.286   9.325  0.8938 -0.2795  1.0690
   27CHL1   C21 1976   2.668   6.485   9.356 -0.2468  0.2069  0.0809
   27CHL1  H21A 1977   2.640   6.581   9.404  0.5347 -0.6851  2.4754
   27CHL1  H21B 1978   2.719   6.496   9.257  4.5815 -3.0161  1.8557
   27CHL1  H21C 1979   2.745   6.443   9.424 -0.9977 -1.3909 -0.0214
   27CHL1   C22 1980   2.447   6.450   9.227  0.0666  0.1819  0.8438
   27CHL1  H22A 1981   2.370   6.376   9.200  1.1227 -0.4801 -0.4523
   27CHL1  H22B 1982   2.395   6.542   9.262  2.0175  1.4025  0.7089
   27CHL1   C23 1983   2.537   6.491   9.102 -0.5634  0.1168 -0.4040
   27CHL1  H23A 1984   2.592   6.587   9.115 -0.4330  0.3545 -2.4060
   27CHL1  H23B 1985   2.610   6.410   9.081 -0.6245 -1.2299  3.7426
   27CHL1   C24 1986   2.449   6.510   8.973  0.0859 -0.3994 -0.2129
   27CHL1  H24A 1987   2.405   6.413   8.941 -1.4242  0.9378 -2.4865
   27CHL1  H24B 1988   2.369   6.583   8.998 -1.5209 -2.4813  1.0197
   27CHL1   C25 1989   2.526   6.565   8.850  0.0328  0.0841 -0.1980
   27CHL1   H25 1990   2.455   6.579   8.766  0.4674  0.7371 -0.4607
   27CHL1   C26 1991   2.570   6.703   8.888 -0.1588  0.3271  0.5051
   27CHL1  H26A 1992   2.476   6.756   8.916 -0.4131  0.0739  0.1429
   27CHL1  H26B 1993   2.640   6.717   8.972  1.2757 -0.4581 -0.5238
   27CHL1  H26C 1994   2.613   6.750   8.797 -0.0737 -1.4780 -0.4289
   27CHL1   C27 1995   2.648   6.476   8.806 -0.1779 -0.4687 -1.1450
   27CHL1  H27A 1996   2.690   6.508   8.709  0.6752  2.5402  0.1126
   27CHL1  H27B 1997   2.717   6.485   8.893 -0.4402 -1.3306 -0.8319
   27CHL1  H27C 1998   2.632   6.368   8.784 -0.6764 -0.3656 -1.2967
   28CHL1    C3 1999   0.012   5.261  10.132  0.2428 -0.3522 -0.2096
   28CHL1    H3 2000  -0.088   5.213  10.137 -0.5051  1.1663 -0.0401
   28CHL1    O3 2001   0.047   5.283  10.268 -0.8813 -0.1257  0.0929
   28CHL1   H3' 2002  -0.010   5.355  10.296  1.0496  2.2989 -1.8184
   28CHL1    C4 2003   0.121   5.181  10.067 -0.3910  0.4494 -0.0382
   28CHL1   H4A 2004   0.216   5.227  10.103  0.2077 -0.8669  0.1267
   28CHL1   H4B 2005   0.118   5.079  10.110  1.5687  1.0963  1.7987
   28CHL1    C5 2006   0.122   5.171   9.918 -0.0304 -0.4218  0.8392
   28CHL1    C6 2007   0.144   5.049   9.864  0.3947 -0.4026 -0.0263
   28CHL1    H6 2008   0.162   4.956   9.921 -0.3251 -0.9258 -0.6384
   28CHL1    C7 2009   0.137   5.027   9.713 -0.2172  0.2714  0.4324
   28CHL1   H7A 2010   0.210   4.955   9.671  0.2381  0.5708  0.7008
   28CHL1   H7B 2011   0.038   4.977   9.701 -0.2105  0.4994 -0.6218
   28CHL1    C8 2012   0.134   5.153   9.632  0.1171 -0.3778  0.0385
   28CHL1    H8 2013   0.240   5.187   9.628 -0.1964  1.0620  2.1673
   28CHL1   C14 2014   0.086   5.138   9.489  0.9602  0.4059 -0.0275
   28CHL1   H14 2015  -0.018   5.104   9.505  1.3454  0.3396  2.8287
   28CHL1   C15 2016   0.157   5.025   9.405  0.7861 -0.4969 -0.6506
   28CHL1  H15A 2017   0.267   5.014   9.417  0.8667 -1.7160 -2.2539
   28CHL1  H15B 2018   0.119   4.923   9.431  0.1997 -0.7729 -2.4528
   28CHL1   C16 2019   0.121   5.066   9.255  0.0477  0.3565 -0.3044
   28CHL1  H16A 2020   0.218   5.068   9.201  0.9266  0.1820  1.2318
   28CHL1  H16B 2021   0.073   4.980   9.203  0.7097 -0.0728 -0.2165
   28CHL1   C17 2022   0.037   5.201   9.272  0.2526 -0.2886  0.0391
   28CHL1   H17 2023  -0.065   5.166   9.299  0.6765  0.2840  2.6709
   28CHL1   C13 2024   0.079   5.262   9.407  0.0573  0.2520 -0.7741
   28CHL1   C18 2025   0.216   5.331   9.397  0.0315  0.2846  0.3967
   28CHL1  H18A 2026   0.248   5.377   9.493 -1.5890 -0.6220  1.4229
   28CHL1  H18B 2027   0.294   5.266   9.353 -0.6424 -0.2284 -0.0708
   28CHL1  H18C 2028   0.208   5.410   9.319  0.4958 -0.0806 -0.0204
   28CHL1   C12 2029  -0.034   5.343   9.476 -0.3287 -0.2933  1.3803
   28CHL1  H12A 2030  -0.058   5.445   9.439  0.6814 -0.2750  0.7599
   28CHL1  H12B 2031  -0.128   5.284   9.486 -0.4732  0.0186  1.9043
   28CHL1   C11 2032  -0.001   5.381   9.621  0.6401  0.9544  0.3079
   28CHL1  H11A 2033   0.079   5.458   9.631  0.2572  1.1862  1.8275
   28CHL1  H11B 2034  -0.094   5.414   9.671 -0.3131 -0.1213 -0.7052
   28CHL1    C9 2035   0.041   5.259   9.702 -0.5974  0.2580 -0.0970
   28CHL1    H9 2036  -0.054   5.206   9.728 -0.1302 -0.5550 -0.0176
   28CHL1   C10 2037   0.086   5.296   9.844  0.0059 -0.0623 -0.3563
   28CHL1   C19 2038   0.211   5.384   9.845 -0.5493 -0.3930 -0.3581
   28CHL1  H19A 2039   0.185   5.474   9.786 -0.7081 -0.4307 -0.3472
   28CHL1  H19B 2040   0.233   5.417   9.948  1.0711 -1.2516 -0.3920
   28CHL1  H19C 2041   0.295   5.329   9.797 -1.1504 -1.0730 -0.6726
   28CHL1    C1 2042  -0.031   5.377   9.916  0.2102 -0.8000 -0.1444
   28CHL1   H1A 2043  -0.045   5.475   9.866  2.6041 -0.4708 -0.2633
   28CHL1   H1B 2044  -0.122   5.314   9.904  0.1979 -0.8027 -0.0339
   28CHL1    C2 2045  -0.013   5.397  10.066 -0.2089  0.1267 -0.4009
   28CHL1   H2A 2046  -0.107   5.433  10.114  1.2233  0.6714  2.1446
   28CHL1   H2B 2047   0.068   5.468  10.093 -0.8695  0.1230  1.7556
   28CHL1   C20 2048   0.024   5.281   9.137  0.1974  0.9695 -0.0773
   28CHL1   H20 2049   0.011   5.387   9.171  0.0919  1.4218 -1.4832
   28CHL1   C21 2050  -0.105   5.244   9.061 -0.3838 -0.4099 -0.6696
   28CHL1  H21A 2051  -0.108   5.136   9.037  1.9293 -0.2386 -2.0610
   28CHL1  H21B 2052  -0.121   5.304   8.969 -2.1659  1.9937  1.0748
   28CHL1  H21C 2053  -0.191   5.251   9.130 -0.4438 -2.0958 -0.5407
   28CHL1   C22 2054   0.155   5.276   9.057 -0.6943  0.1813 -0.1252
   28CHL1  H22A 2055   0.241   5.285   9.126  0.2154  3.0639 -1.4580
   28CHL1  H22B 2056   0.159   5.178   9.005  0.3572  0.3585 -0.3949
   28CHL1   C23 2057   0.162   5.390   8.952 -0.3250  0.4621  0.0148
   28CHL1  H23A 2058   0.245   5.377   8.879 -1.7313  3.5002 -2.3707
   28CHL1  H23B 2059   0.067   5.411   8.899  0.7070  0.6791 -1.8407
   28CHL1   C24 2060   0.202   5.521   9.024  0.4206  0.6718 -0.4184
   28CHL1  H24A 2061   0.108   5.559   9.070  0.3963  1.0591 -0.7837
   28CHL1  H24B 2062   0.274   5.502   9.106 -1.3884  1.1736  1.3490
   28CHL1   C25 2063   0.252   5.635   8.937  0.6755  0.5311  0.1963
   28CHL1   H25 2064   0.283   5.721   8.999  2.0401 -0.1231  0.4468
   28CHL1   C26 2065   0.379   5.590   8.853 -0.0651  0.2196 -0.3624
   28CHL1  H26A 2066   0.418   5.681   8.804  0.8864  0.6235  1.0753
   28CHL1  H26B 2067   0.465   5.553   8.914  0.7068  0.7249 -1.1153
   28CHL1  H26C 2068   0.340   5.512   8.784 -1.8986 -2.8303  3.7297
   28CHL1   C27 2069   0.136   5.681   8.851  0.8591 -0.2246  0.4657
   28CHL1  H27A 2070   0.052   5.719   8.913  1.0515 -1.3099  1.4202
   28CHL1  H27B 2071   0.176   5.757   8.780  2.4824  0.9782  2.5556
   28CHL1  H27C 2072   0.105   5.592   8.793  1.6947 -0.1106 -0.1781
   29CHL1    C3 2073   2.059   3.137   6.546 -0.8539 -1.1987  0.2152
   29CHL1    H3 2074   2.042   3.029   6.525 -0.8015 -1.0717 -0.5016
   29CHL1    O3 2075   2.055   3.212   6.424 -0.3754  0.1916  0.0458
   29CHL1   H3' 2076   2.058   3.306   6.442  0.5599  0.4857 -1.4615
   29CHL1    C4 2077   1.947   3.191   6.639  0.1841 -0.2310  0.0845
   29CHL1   H4A 2078   1.937   3.302   6.633  1.5390 -0.1054 -0.1706
   29CHL1   H4B 2079   1.853   3.159   6.588  1.0077 -2.8028  0.0292
   29CHL1    C5 2080   1.970   3.160   6.784 -0.2742 -0.4850 -0.3504
   29CHL1    C6 2081   1.865   3.113   6.856 -0.1585  0.3455  0.2410
   29CHL1    H6 2082   1.769   3.112   6.803  0.6627  0.7714 -1.3202
   29CHL1    C7 2083   1.869   3.079   7.005 -0.2118  0.4042  0.2071
   29CHL1   H7A 2084   1.777   3.108   7.060 -0.4710 -0.2510  0.1167
   29CHL1   H7B 2085   1.888   2.970   7.009 -0.2422  0.4293  1.2336
   29CHL1    C8 2086   1.993   3.150   7.069  0.3605  0.2703 -0.0407
   29CHL1    H8 2087   1.979   3.260   7.066  1.5023  0.4541  0.8446
   29CHL1   C14 2088   2.003   3.111   7.211  0.6073 -0.4072 -0.6526
   29CHL1   H14 2089   2.001   3.001   7.223 -0.0727 -0.4495 -1.0616
   29CHL1   C15 2090   1.887   3.156   7.304  0.0409  0.2113 -0.1416
   29CHL1  H15A 2091   1.865   3.262   7.283  1.5794  1.1038  2.3540
   29CHL1  H15B 2092   1.800   3.096   7.269  1.3661 -0.5775 -2.3022
   29CHL1   C16 2093   1.947   3.151   7.445  0.3373 -0.7966  0.3160
   29CHL1  H16A 2094   1.943   3.255   7.484 -2.2314 -1.4023  1.8966
   29CHL1  H16B 2095   1.893   3.081   7.512  2.4410  0.4161  3.5401
   29CHL1   C17 2096   2.105   3.113   7.431 -1.1642 -0.5211 -0.2412
   29CHL1   H17 2097   2.113   3.002   7.426 -2.3977 -0.6207 -0.3626
   29CHL1   C13 2098   2.133   3.150   7.283 -0.1910  0.3171 -0.6135
   29CHL1   C18 2099   2.157   3.303   7.277  0.1499  0.5698 -0.2646
   29CHL1  H18A 2100   2.101   3.359   7.356 -0.8314 -1.8758  0.8827
   29CHL1  H18B 2101   2.264   3.322   7.298  0.9142 -4.0904  1.3983
   29CHL1  H18C 2102   2.141   3.350   7.178  0.1221  1.0589 -0.0328
   29CHL1   C12 2103   2.249   3.080   7.205 -0.0243  0.2440  0.4400
   29CHL1  H12A 2104   2.347   3.111   7.249 -0.4765  0.7232  1.1288
   29CHL1  H12B 2105   2.239   2.970   7.216 -1.2695 -0.2802 -3.8780
   29CHL1   C11 2106   2.248   3.123   7.050  0.0027 -0.3507 -0.0988
   29CHL1  H11A 2107   2.276   3.231   7.052  0.3390 -0.4412  0.5962
   29CHL1  H11B 2108   2.325   3.065   6.996  0.8059 -0.4877  1.1459
   29CHL1    C9 2109   2.117   3.107   6.983  0.4378  0.3168  0.2932
   29CHL1    H9 2110   2.105   2.997   6.967 -2.3171  0.7002 -0.8690
   29CHL1   C10 2111   2.107   3.169   6.836  0.4577  0.2846  0.0181
   29CHL1   C19 2112   2.154   3.318   6.848 -0.3613  0.1896 -0.2075
   29CHL1  H19A 2113   2.260   3.322   6.882 -1.1777  0.2728  2.5696
   29CHL1  H19B 2114   2.134   3.365   6.749  1.7473 -1.3154 -1.4302
   29CHL1  H19C 2115   2.089   3.367   6.924 -0.4919 -1.4420  0.7800
   29CHL1    C1 2116   2.200   3.091   6.748  0.0455 -0.4046 -0.0038
   29CHL1   H1A 2117   2.306   3.093   6.784 -0.0977  0.8229  0.3843
   29CHL1   H1B 2118   2.179   2.982   6.743 -0.0639 -0.4017  0.3784
   29CHL1    C2 2119   2.205   3.150   6.602  0.2010  0.1133  0.3891
   29CHL1   H2A 2120   2.283   3.095   6.545 -0.1779 -0.6106  0.5616
   29CHL1   H2B 2121   2.238   3.256   6.610 -1.5789  0.6001  1.6788
   29CHL1   C20 2122   2.198   3.154   7.547  0.7248  0.3813  0.5597
   29CHL1   H20 2123   2.188   3.265   7.552  1.4310  0.6306 -1.9520
   29CHL1   C21 2124   2.346   3.127   7.526 -0.0955  0.7715 -0.3884
   29CHL1  H21A 2125   2.351   3.016   7.524 -0.4914  0.5434  3.7598
   29CHL1  H21B 2126   2.418   3.166   7.601 -0.2737 -1.5110  1.0690
   29CHL1  H21C 2127   2.365   3.171   7.426  1.1264  1.0487 -0.0521
   29CHL1   C22 2128   2.155   3.100   7.686 -0.3871 -0.1275 -0.2015
   29CHL1  H22A 2129   2.045   3.113   7.698 -0.9724 -2.7558 -1.8919
   29CHL1  H22B 2130   2.184   2.993   7.684  0.0725 -0.0002 -0.5005
   29CHL1   C23 2131   2.229   3.174   7.796  0.5215  0.5860 -0.6690
   29CHL1  H23A 2132   2.304   3.098   7.827 -0.2487  0.7764  1.9040
   29CHL1  H23B 2133   2.289   3.262   7.767 -1.2004  1.8799 -0.4702
   29CHL1   C24 2134   2.134   3.204   7.908  0.0046  0.5999  0.4528
   29CHL1  H24A 2135   2.044   3.259   7.875 -0.0443  0.9036  1.0715
   29CHL1  H24B 2136   2.089   3.107   7.937  0.8288 -0.3176 -1.2216
   29CHL1   C25 2137   2.197   3.276   8.029 -0.2395  0.0453 -0.5373
   29CHL1   H25 2138   2.239   3.377   8.007 -0.7125  0.3734  0.0277
   29CHL1   C26 2139   2.085   3.298   8.137 -0.1632  0.1188 -0.3414
   29CHL1  H26A 2140   2.035   3.201   8.153  0.6750 -0.1795  0.5285
   29CHL1  H26B 2141   2.132   3.340   8.229 -1.8579  2.1563 -0.3164
   29CHL1  H26C 2142   2.018   3.380   8.101  0.9279  1.9356  1.5410
   29CHL1   C27 2143   2.307   3.191   8.100 -0.3131 -0.0323  0.0068
   29CHL1  H27A 2144   2.392   3.182   8.029 -0.9478 -1.2978 -0.6313
   29CHL1  H27B 2145   2.348   3.228   8.196  2.1568  0.5915 -1.2197
   29CHL1  H27C 2146   2.268   3.088   8.115 -1.5351  0.5686  1.0990
   30CHL1    C3 2147   0.915   1.726   7.352  0.7060  0.2790 -0.4236
   30CHL1    H3 2148   0.936   1.834   7.338 -1.7951  0.6996 -1.6202
   30CHL1    O3 2149   0.842   1.682   7.239 -0.0286  0.4009 -0.5012
   30CHL1   H3' 2150   0.911   1.661   7.175  0.1622 -2.6062  0.5551
   30CHL1    C4 2151   1.048   1.658   7.354 -0.1462  0.3603 -0.1537
   30CHL1   H4A 2152   1.046   1.548   7.344 -0.9224  0.2639  1.0255
   30CHL1   H4B 2153   1.099   1.692   7.260 -0.5092  1.0889 -0.0971
   30CHL1    C5 2154   1.125   1.712   7.474 -0.6947 -0.7690 -0.2182
   30CHL1    C6 2155   1.234   1.792   7.453 -0.2991 -0.7256 -0.4882
   30CHL1    H6 2156   1.273   1.822   7.355 -0.2675  1.5917  0.1647
   30CHL1    C7 2157   1.309   1.852   7.572  0.1575  0.5322  0.1894
   30CHL1   H7A 2158   1.418   1.845   7.553  0.0883  0.9392 -0.3793
   30CHL1   H7B 2159   1.296   1.962   7.584  3.6450  0.9397  1.4248
   30CHL1    C8 2160   1.278   1.775   7.708 -0.9277 -0.3857  0.2705
   30CHL1    H8 2161   1.321   1.673   7.703 -1.9349 -0.7868 -0.9192
   30CHL1   C14 2162   1.336   1.845   7.833  0.3192 -0.2812  0.2757
   30CHL1   H14 2163   1.290   1.946   7.831 -0.4582 -0.5804  1.5733
   30CHL1   C15 2164   1.483   1.872   7.835  0.6945 -0.8019  0.3314
   30CHL1  H15A 2165   1.530   1.775   7.808  1.2836 -0.8687  1.5304
   30CHL1  H15B 2166   1.526   1.933   7.753  0.3106 -0.2226  0.5488
   30CHL1   C16 2167   1.506   1.917   7.980 -0.2135  0.1929 -0.3018
   30CHL1  H16A 2168   1.603   1.877   8.017 -0.6319 -0.0849  0.5262
   30CHL1  H16B 2169   1.509   2.028   7.990 -2.3967  0.2350  0.4394
   30CHL1   C17 2170   1.385   1.884   8.063  0.2855 -0.2588 -0.6326
   30CHL1   H17 2171   1.324   1.977   8.063 -0.9460 -0.9381  2.1406
   30CHL1   C13 2172   1.302   1.788   7.968  0.1436  0.0120 -0.1437
   30CHL1   C18 2173   1.351   1.643   7.989 -0.4414  0.1588 -0.0732
   30CHL1  H18A 2174   1.312   1.573   7.912  0.7120 -0.5164 -0.0785
   30CHL1  H18B 2175   1.462   1.639   7.995 -0.5316 -0.4610  1.7530
   30CHL1  H18C 2176   1.319   1.603   8.088  0.0704  1.0379  0.4689
   30CHL1   C12 2177   1.147   1.801   7.975  0.2532  0.1656  0.4509
   30CHL1  H12A 2178   1.125   1.760   8.075  1.3946 -0.7077  0.3742
   30CHL1  H12B 2179   1.124   1.909   7.969 -0.3114  0.0190 -0.2054
   30CHL1   C11 2180   1.074   1.723   7.864  0.0596  0.2124 -0.1972
   30CHL1  H11A 2181   1.093   1.617   7.890 -0.2210  0.6158  1.8919
   30CHL1  H11B 2182   0.965   1.735   7.879  0.3292  1.0123  1.5217
   30CHL1    C9 2183   1.121   1.767   7.722 -0.0840 -0.0829 -0.5520
   30CHL1    H9 2184   1.094   1.875   7.728  0.6525  0.0284  2.9715
   30CHL1   C10 2185   1.050   1.692   7.607 -0.8579 -0.0134  0.5473
   30CHL1   C19 2186   1.060   1.540   7.630  0.3385  0.3652 -0.0654
   30CHL1  H19A 2187   1.016   1.502   7.725 -0.0330 -0.2155 -0.4674
   30CHL1  H19B 2188   1.008   1.493   7.545  1.7358  0.4674 -1.0185
   30CHL1  H19C 2189   1.161   1.497   7.609 -0.2758 -0.7528 -0.7763
   30CHL1    C1 2190   0.902   1.733   7.607  0.3267  0.4603 -0.3716
   30CHL1   H1A 2191   0.842   1.696   7.692 -0.2857  1.5590 -0.3048
   30CHL1   H1B 2192   0.904   1.844   7.618  2.4181  0.7129 -2.4461
   30CHL1    C2 2193   0.829   1.699   7.478 -0.4611  0.2230 -0.7465
   30CHL1   H2A 2194   0.738   1.759   7.456 -0.0240  0.7814 -1.0488
   30CHL1   H2B 2195   0.809   1.589   7.481 -1.7343  0.3422  4.3868
   30CHL1   C20 2196   1.414   1.845   8.213  0.2426 -0.3032 -0.0971
   30CHL1   H20 2197   1.456   1.742   8.211 -3.2919 -1.9501  1.4801
   30CHL1   C21 2198   1.288   1.850   8.299 -0.4081 -0.5150 -0.4498
   30CHL1  H21A 2199   1.231   1.937   8.259  2.6640  1.5636 -0.7288
   30CHL1  H21B 2200   1.303   1.849   8.409 -1.3531  0.4120 -0.2907
   30CHL1  H21C 2201   1.229   1.757   8.286 -1.0024 -0.2304  0.1169
   30CHL1   C22 2202   1.530   1.932   8.278 -0.0538  0.3848  0.3086
   30CHL1  H22A 2203   1.568   1.877   8.367  3.1190  0.5592 -0.8228
   30CHL1  H22B 2204   1.617   1.942   8.210 -0.7660  0.5147 -0.6040
   30CHL1   C23 2205   1.481   2.076   8.314  0.0576  0.1414  0.7942
   30CHL1  H23A 2206   1.472   2.138   8.223  0.4149 -1.3790 -0.3189
   30CHL1  H23B 2207   1.390   2.082   8.377 -0.5271  0.2324 -0.0525
   30CHL1   C24 2208   1.585   2.158   8.399 -0.3836  0.1309  0.0731
   30CHL1  H24A 2209   1.679   2.162   8.341 -0.1271 -0.0381  0.4740
   30CHL1  H24B 2210   1.557   2.264   8.415 -0.5982  0.0174  0.4804
   30CHL1   C25 2211   1.610   2.100   8.541 -0.4816  0.0153 -0.1599
   30CHL1   H25 2212   1.659   2.002   8.529 -0.1684 -0.3055  2.9367
   30CHL1   C26 2213   1.707   2.188   8.613 -0.8087 -0.1409 -0.2024
   30CHL1  H26A 2214   1.675   2.295   8.617 -1.6271 -0.4280  2.1868
   30CHL1  H26B 2215   1.715   2.164   8.721 -0.3400  1.9748  0.2802
   30CHL1  H26C 2216   1.812   2.187   8.577 -0.4814 -2.3086  0.7080
   30CHL1   C27 2217   1.491   2.076   8.629  1.0603  0.1269  0.5051
   30CHL1  H27A 2218   1.516   2.052   8.734  3.0243  2.1088  0.5853
   30CHL1  H27B 2219   1.431   2.169   8.618  0.9037  0.0743  0.9054
   30CHL1  H27C 2220   1.438   1.991   8.581 -1.9525  2.4682 -0.6453
   31CHL1    C3 2221   6.635   3.365   6.823  0.5670 -0.3816  0.5610
   31CHL1    H3 2222   6.709   3.443   6.794 -1.6073  1.7607  0.4028
   31CHL1    O3 2223   6.580   3.307   6.707  0.0799 -0.2748 -0.2210
   31CHL1   H3' 2224   6.541   3.378   6.656  1.1558  0.0821 -0.5702
   31CHL1    C4 2225   6.711   3.249   6.891 -0.3204 -0.3581  0.0282
   31CHL1   H4A 2226   6.647   3.160   6.910 -0.0152 -0.5517  0.1740
   31CHL1   H4B 2227   6.780   3.207   6.814  1.1637 -0.3268  1.2864
   31CHL1    C5 2228   6.779   3.279   7.022  0.2419 -0.0725  0.6997
   31CHL1    C6 2229   6.912   3.249   7.039  0.0810  0.1543 -1.0024
   31CHL1    H6 2230   6.974   3.215   6.955  2.3062  0.5991  0.3981
   31CHL1    C7 2231   6.980   3.267   7.167 -0.6205 -0.5135  0.3634
   31CHL1   H7A 2232   7.024   3.171   7.201  0.1661 -0.3587 -0.1719
   31CHL1   H7B 2233   7.064   3.339   7.154 -1.1030 -0.1493 -0.8906
   31CHL1    C8 2234   6.880   3.312   7.281 -0.8617 -0.2036  0.9319
   31CHL1    H8 2235   6.845   3.215   7.323  0.8834 -1.1470  0.3081
   31CHL1   C14 2236   6.957   3.363   7.402 -1.3817  0.9425 -0.7989
   31CHL1   H14 2237   7.002   3.459   7.368 -1.5566  1.2510 -0.1636
   31CHL1   C15 2238   7.063   3.272   7.468 -0.2927 -0.3569 -0.1717
   31CHL1  H15A 2239   7.031   3.167   7.486  0.3844 -0.6414 -0.5846
   31CHL1  H15B 2240   7.163   3.255   7.421 -0.6429 -1.1423 -0.6529
   31CHL1   C16 2241   7.094   3.340   7.602  0.1747 -0.4219  0.3907
   31CHL1  H16A 2242   7.120   3.275   7.688  2.3781 -3.7156 -2.4709
   31CHL1  H16B 2243   7.180   3.407   7.581  0.4135 -0.4811  1.1641
   31CHL1   C17 2244   6.978   3.448   7.626 -0.1399 -0.0464  0.5846
   31CHL1   H17 2245   7.009   3.552   7.600 -0.0352 -0.1281  0.3780
   31CHL1   C13 2246   6.872   3.401   7.521  0.3124 -0.5682 -0.3826
   31CHL1   C18 2247   6.796   3.277   7.581  0.1314 -0.1040 -0.5844
   31CHL1  H18A 2248   6.739   3.299   7.673  1.6055 -0.6026  0.4836
   31CHL1  H18B 2249   6.724   3.227   7.513 -0.3373  0.8787 -0.8216
   31CHL1  H18C 2250   6.864   3.196   7.614  3.2149  2.3817 -0.3431
   31CHL1   C12 2251   6.774   3.507   7.475 -0.5398 -0.3902  0.2946
   31CHL1  H12A 2252   6.695   3.519   7.552 -1.2590  0.7668 -0.5927
   31CHL1  H12B 2253   6.823   3.605   7.453 -1.5921 -0.0228 -0.4578
   31CHL1   C11 2254   6.692   3.461   7.352 -0.8372  0.2589  0.3892
   31CHL1  H11A 2255   6.607   3.406   7.397 -1.3247  0.9838  0.3654
   31CHL1  H11B 2256   6.634   3.546   7.309 -2.0890  0.1739  1.8372
   31CHL1    C9 2257   6.768   3.405   7.232 -0.4323 -0.0177  0.1833
   31CHL1    H9 2258   6.825   3.490   7.189  1.8350 -2.2688 -1.5303
   31CHL1   C10 2259   6.684   3.346   7.117  0.7324 -0.2946  0.3664
   31CHL1   C19 2260   6.585   3.235   7.175 -0.3364  0.4680 -0.7534
   31CHL1  H19A 2261   6.510   3.291   7.234  0.2661  2.0763 -1.4367
   31CHL1  H19B 2262   6.535   3.174   7.097 -1.5665  0.8651 -0.3005
   31CHL1  H19C 2263   6.641   3.166   7.240 -0.2755 -0.5226 -1.8215
   31CHL1    C1 2264   6.592   3.457   7.047 -0.4243 -0.4907  0.3090
   31CHL1   H1A 2265   6.516   3.477   7.126 -0.8601 -0.5547 -0.0964
   31CHL1   H1B 2266   6.656   3.548   7.038  3.4401 -3.1764 -2.0297
   31CHL1    C2 2267   6.529   3.426   6.916 -0.5316  0.6063  0.7183
   31CHL1   H2A 2268   6.473   3.507   6.863 -1.2482 -0.1385  0.3146
   31CHL1   H2B 2269   6.451   3.348   6.933  1.0207 -1.3731 -0.8345
   31CHL1   C20 2270   6.946   3.449   7.768  0.1857 -0.0168 -0.3621
   31CHL1   H20 2271   6.894   3.357   7.801  3.2270 -1.7993 -0.2096
   31CHL1   C21 2272   6.849   3.570   7.792  0.9409 -0.6888 -0.2342
   31CHL1  H21A 2273   6.901   3.660   7.752  0.2663 -0.5370 -0.7874
   31CHL1  H21B 2274   6.823   3.585   7.899 -0.2523  2.3404 -0.8500
   31CHL1  H21C 2275   6.754   3.560   7.736 -0.3634  2.7111  1.1079
   31CHL1   C22 2276   7.057   3.473   7.861 -0.1949 -0.2176  0.3652
   31CHL1  H22A 2277   7.019   3.473   7.965 -2.2017 -1.5095 -0.3039
   31CHL1  H22B 2278   7.137   3.396   7.851  0.1308  0.3123 -1.8153
   31CHL1   C23 2279   7.136   3.598   7.830  0.0591  0.1663 -0.6091
   31CHL1  H23A 2280   7.187   3.605   7.732  0.4703 -0.1683 -0.4215
   31CHL1  H23B 2281   7.076   3.691   7.837 -0.1366  0.0299 -0.4295
   31CHL1   C24 2282   7.260   3.618   7.924 -0.5001  0.0477  0.0968
   31CHL1  H24A 2283   7.333   3.537   7.902 -0.9237 -0.4875  0.6355
   31CHL1  H24B 2284   7.312   3.713   7.897  1.6923 -1.7121 -2.3574
   31CHL1   C25 2285   7.234   3.612   8.072  0.7717 -0.1768 -0.7463
   31CHL1   H25 2286   7.199   3.510   8.099  0.8350  0.9377  4.7743
   31CHL1   C26 2287   7.354   3.645   8.155 -0.0103  0.2948 -0.2775
   31CHL1  H26A 2288   7.417   3.556   8.176  1.6032  0.3288 -4.0909
   31CHL1  H26B 2289   7.413   3.711   8.088 -0.1717 -0.6350 -1.3764
   31CHL1  H26C 2290   7.341   3.697   8.252  2.0841 -1.9597  1.3393
   31CHL1   C27 2291   7.125   3.718   8.117  0.2076 -0.2534 -0.3672
   31CHL1  H27A 2292   7.148   3.821   8.084 -0.5447  0.3854  1.0152
   31CHL1  H27B 2293   7.100   3.714   8.225 -2.7145  0.5816 -0.9279
   31CHL1  H27C 2294   7.031   3.695   8.063 -0.4802 -0.9221  1.0527
   32CHL1    C3 2295   1.182   2.200   6.870 -0.3719 -0.5875 -0.5287
   32CHL1    H3 2296   1.133   2.300   6.870  1.8601  0.5876  0.9494
   32CHL1    O3 2297   1.177   2.169   6.734  0.3448 -0.0874 -0.3815
   32CHL1   H3' 2298   1.231   2.090   6.724  0.2379 -0.1891 -0.1476
   32CHL1    C4 2299   1.330   2.233   6.899  0.7198 -0.0961 -0.0124
   32CHL1   H4A 2300   1.394   2.143   6.890  0.3821 -0.1975 -1.6783
   32CHL1   H4B 2301   1.362   2.309   6.824 -0.1669 -1.1365 -1.4923
   32CHL1    C5 2302   1.327   2.279   7.042  0.2181 -0.3120 -0.8999
   32CHL1    C6 2303   1.371   2.406   7.076  0.0474  0.2709  0.5820
   32CHL1    H6 2304   1.417   2.465   6.995  2.4858 -2.9128 -0.5700
   32CHL1    C7 2305   1.375   2.463   7.209 -0.1133  0.6358  0.0587
   32CHL1   H7A 2306   1.462   2.529   7.231  0.2156  1.0247 -2.1581
   32CHL1   H7B 2307   1.279   2.516   7.224 -0.3307 -0.0142  1.1005
   32CHL1    C8 2308   1.364   2.356   7.319 -0.3202 -0.0287 -0.1459
   32CHL1    H8 2309   1.458   2.298   7.324 -0.1963  0.2056  0.2269
   32CHL1   C14 2310   1.330   2.423   7.457 -0.1289  0.5480  0.1894
   32CHL1   H14 2311   1.235   2.481   7.450  0.8460  2.1692 -0.1100
   32CHL1   C15 2312   1.432   2.524   7.511 -0.3114  0.3247 -0.1752
   32CHL1  H15A 2313   1.537   2.492   7.495 -0.9567 -0.8664 -2.3590
   32CHL1  H15B 2314   1.420   2.623   7.463 -0.0928 -0.2738 -1.4923
   32CHL1   C16 2315   1.405   2.538   7.658  0.2355  0.2783  0.0299
   32CHL1  H16A 2316   1.491   2.526   7.727  0.6338  0.9235 -0.3394
   32CHL1  H16B 2317   1.359   2.635   7.686 -2.1102 -0.6979 -0.2233
   32CHL1   C17 2318   1.307   2.424   7.699 -0.8862 -0.2549  0.3562
   32CHL1   H17 2319   1.208   2.476   7.702 -0.4472  0.6409 -0.1584
   32CHL1   C13 2320   1.303   2.324   7.573  0.1372 -0.4849  0.6005
   32CHL1   C18 2321   1.428   2.235   7.586  0.6818 -0.1243 -0.4730
   32CHL1  H18A 2322   1.441   2.181   7.490 -0.3713 -1.7003  0.2437
   32CHL1  H18B 2323   1.521   2.292   7.606  0.0489  1.4463 -1.7737
   32CHL1  H18C 2324   1.423   2.159   7.666 -0.7056  2.2339  1.8256
   32CHL1   C12 2325   1.172   2.251   7.534 -0.9782 -0.1252  0.6284
   32CHL1  H12A 2326   1.140   2.179   7.613  0.6608  0.5185  1.9281
   32CHL1  H12B 2327   1.090   2.326   7.532 -1.5587 -0.7546  0.2508
   32CHL1   C11 2328   1.190   2.185   7.390 -0.1682  0.1221  0.5554
   32CHL1  H11A 2329   1.259   2.103   7.419  1.1678  1.8593  2.6621
   32CHL1  H11B 2330   1.097   2.132   7.362 -0.1557 -0.3508  1.3820
   32CHL1    C9 2331   1.244   2.266   7.274  0.4389 -0.6436  0.5967
   32CHL1    H9 2332   1.166   2.340   7.247  0.4353 -1.1999 -1.1004
   32CHL1   C10 2333   1.264   2.190   7.142  0.2248 -0.0592 -0.9718
   32CHL1   C19 2334   1.360   2.066   7.170  0.5436 -0.0003 -0.2580
   32CHL1  H19A 2335   1.306   1.980   7.216 -0.0085 -0.1354 -1.1270
   32CHL1  H19B 2336   1.419   2.033   7.082  0.6090  1.1120 -0.6561
   32CHL1  H19C 2337   1.439   2.098   7.242  2.2132  1.3048 -2.5487
   32CHL1    C1 2338   1.119   2.137   7.095 -0.0050  0.3103 -0.8083
   32CHL1   H1A 2339   1.102   2.058   7.171 -2.2458 -1.3358 -2.8775
   32CHL1   H1B 2340   1.045   2.215   7.121  1.7790  1.5347  0.8701
   32CHL1    C2 2341   1.120   2.095   6.953 -0.1248 -0.5426 -0.2403
   32CHL1   H2A 2342   1.018   2.054   6.934  0.9092 -5.3416  2.7345
   32CHL1   H2B 2343   1.190   2.008   6.955  1.6885  0.8242 -1.5134
   32CHL1   C20 2344   1.331   2.374   7.842  0.5191  0.6344 -0.5497
   32CHL1   H20 2345   1.435   2.335   7.838  0.8463  1.5872 -1.8830
   32CHL1   C21 2346   1.233   2.254   7.877 -0.4911  0.8442 -0.1506
   32CHL1  H21A 2347   1.126   2.285   7.877 -0.5996  0.7790  2.8730
   32CHL1  H21B 2348   1.269   2.197   7.966  0.5176 -0.4928 -1.3854
   32CHL1  H21C 2349   1.239   2.179   7.795  1.3292  1.1662 -0.3317
   32CHL1   C22 2350   1.305   2.483   7.948 -0.0800  0.0615  0.1879
   32CHL1  H22A 2351   1.337   2.584   7.912  0.6737  0.0463  0.7958
   32CHL1  H22B 2352   1.194   2.491   7.951 -0.1445 -0.9308  1.0821
   32CHL1   C23 2353   1.357   2.472   8.091 -0.5464  0.5048  0.1133
   32CHL1  H23A 2354   1.304   2.537   8.163  0.2775 -0.4737  1.6569
   32CHL1  H23B 2355   1.344   2.369   8.131  0.2653  0.3676  0.0417
   32CHL1   C24 2356   1.504   2.528   8.095  0.3521  0.6628 -0.9035
   32CHL1  H24A 2357   1.564   2.446   8.051  0.9615 -1.1561  2.9449
   32CHL1  H24B 2358   1.525   2.624   8.042  3.4185  0.7293  0.2619
   32CHL1   C25 2359   1.559   2.547   8.242  0.1647 -0.8919  0.0454
   32CHL1   H25 2360   1.516   2.466   8.304  2.7955 -1.2021  1.6061
   32CHL1   C26 2361   1.715   2.529   8.257 -0.4571  1.0428  0.2148
   32CHL1  H26A 2362   1.766   2.608   8.198 -1.4494  1.5931  0.0635
   32CHL1  H26B 2363   1.738   2.524   8.366 -1.6296 -2.2145  0.4199
   32CHL1  H26C 2364   1.748   2.431   8.219 -2.2426  0.7226 -0.6269
   32CHL1   C27 2365   1.523   2.684   8.305 -0.2188  1.3907  0.2009
   32CHL1  H27A 2366   1.560   2.775   8.255 -0.9627  2.4197  1.4569
   32CHL1  H27B 2367   1.415   2.699   8.327 -0.4664 -1.0190  0.9390
   32CHL1  H27C 2368   1.572   2.689   8.405 -0.0441  0.4477  0.1721
   33CHL1    C3 2369   2.255   2.329   6.748  0.1970 -0.1875  0.3055
   33CHL1    H3 2370   2.254   2.439   6.764 -1.4957 -0.1646  0.1898
   33CHL1    O3 2371   2.228   2.315   6.608 -0.0049 -0.1881 -0.2259
   33CHL1   H3' 2372   2.142   2.276   6.589 -1.0312  2.5990 -2.0552
   33CHL1    C4 2373   2.383   2.258   6.775 -0.3395 -0.1787 -0.2683
   33CHL1   H4A 2374   2.374   2.157   6.729  1.2304  0.2716 -1.6664
   33CHL1   H4B 2375   2.471   2.306   6.726 -1.2150  1.7754 -0.0320
   33CHL1    C5 2376   2.404   2.239   6.924 -0.1699  0.7423  1.0261
   33CHL1    C6 2377   2.522   2.273   6.977  0.1519 -0.2169 -0.1770
   33CHL1    H6 2378   2.605   2.306   6.914 -0.1013 -0.9472 -0.9093
   33CHL1    C7 2379   2.566   2.245   7.117  0.2887  0.2286  0.3136
   33CHL1   H7A 2380   2.653   2.176   7.114  0.7618  0.8472 -0.4195
   33CHL1   H7B 2381   2.592   2.336   7.176 -2.2549 -0.6611  3.0960
   33CHL1    C8 2382   2.466   2.160   7.199  0.2154 -0.8022 -0.0137
   33CHL1    H8 2383   2.499   2.056   7.180  0.4218 -0.9930  1.2861
   33CHL1   C14 2384   2.480   2.195   7.348  0.2231  0.9376 -0.0749
   33CHL1   H14 2385   2.439   2.298   7.357 -3.3339 -0.1789 -1.7365
   33CHL1   C15 2386   2.622   2.193   7.406  0.2189 -0.1195 -0.1413
   33CHL1  H15A 2387   2.674   2.098   7.381  0.1986 -1.0891  3.0132
   33CHL1  H15B 2388   2.668   2.288   7.373 -1.8061  0.1871 -2.3708
   33CHL1   C16 2389   2.597   2.191   7.555  0.0446 -0.3836 -0.5016
   33CHL1  H16A 2390   2.665   2.118   7.605  0.4125 -1.1221 -2.0175
   33CHL1  H16B 2391   2.621   2.287   7.605 -0.5635 -1.4058  1.8902
   33CHL1   C17 2392   2.438   2.172   7.575 -0.5902 -0.1085  0.4065
   33CHL1   H17 2393   2.406   2.278   7.584 -0.5764 -0.2793  3.6154
   33CHL1   C13 2394   2.393   2.110   7.442  0.5533 -0.5018 -0.1447
   33CHL1   C18 2395   2.442   1.962   7.436  0.3723  0.4626  0.3034
   33CHL1  H18A 2396   2.388   1.898   7.510 -0.6851  0.9721 -0.0110
   33CHL1  H18B 2397   2.414   1.917   7.339 -0.3318  0.7576  0.3645
   33CHL1  H18C 2398   2.550   1.947   7.456 -0.3628 -3.4674  2.6061
   33CHL1   C12 2399   2.243   2.133   7.411 -0.4431  0.2405 -0.9969
   33CHL1  H12A 2400   2.182   2.056   7.465 -0.6652  1.6555  0.8771
   33CHL1  H12B 2401   2.229   2.235   7.453  1.4062 -0.1653  0.7763
   33CHL1   C11 2402   2.218   2.115   7.258 -0.9938  0.4731 -0.1032
   33CHL1  H11A 2403   2.229   2.004   7.251  1.8421  0.7118 -0.5997
   33CHL1  H11B 2404   2.111   2.142   7.243 -1.1313  0.2248  0.4181
   33CHL1    C9 2405   2.320   2.185   7.165  0.2173  0.1309  0.6801
   33CHL1    H9 2406   2.309   2.290   7.197  3.9593  0.8201  0.0690
   33CHL1   C10 2407   2.292   2.170   7.012 -0.9285 -0.3292 -1.0013
   33CHL1   C19 2408   2.287   2.017   6.992 -0.3841 -0.0330  0.1068
   33CHL1  H19A 2409   2.353   1.972   7.069  0.4061  2.0790  0.7418
   33CHL1  H19B 2410   2.189   1.972   7.018  0.6904 -0.5763  3.7863
   33CHL1  H19C 2411   2.318   1.996   6.887 -0.0849 -0.7713  0.3347
   33CHL1    C1 2412   2.161   2.245   6.974 -0.5061 -0.7801 -0.1810
   33CHL1   H1A 2413   2.070   2.193   7.010 -0.9786 -0.3595 -0.7499
   33CHL1   H1B 2414   2.180   2.347   7.014  4.0040 -0.3932 -2.5999
   33CHL1    C2 2415   2.139   2.255   6.823 -0.4171  0.1880 -0.4655
   33CHL1   H2A 2416   2.047   2.313   6.799  0.1862  2.1315  1.6439
   33CHL1   H2B 2417   2.118   2.154   6.781  0.9704 -1.0204  1.5806
   33CHL1   C20 2418   2.407   2.115   7.712  0.2440  0.0213 -0.1309
   33CHL1   H20 2419   2.440   2.010   7.717 -2.9908 -1.0418  2.5262
   33CHL1   C21 2420   2.257   2.110   7.731  0.7400  0.7200 -0.3376
   33CHL1  H21A 2421   2.236   2.104   7.840 -1.4176  0.2381 -0.7258
   33CHL1  H21B 2422   2.223   2.019   7.677  1.7213  0.5275 -0.6550
   33CHL1  H21C 2423   2.201   2.197   7.691 -1.8024 -0.9359 -0.6060
   33CHL1   C22 2424   2.468   2.194   7.827 -0.3903 -0.0583 -0.4213
   33CHL1  H22A 2425   2.530   2.280   7.794 -1.3224  1.5873  1.8336
   33CHL1  H22B 2426   2.391   2.246   7.889  1.1172  0.9845  0.6438
   33CHL1   C23 2427   2.542   2.100   7.920  0.4146 -1.2011 -0.2955
   33CHL1  H23A 2428   2.623   2.051   7.862  0.4798 -1.9145  0.3705
   33CHL1  H23B 2429   2.593   2.159   7.999  0.8931 -1.3571 -0.4830
   33CHL1   C24 2430   2.454   1.993   7.993  1.1792 -0.0285  0.1014
   33CHL1  H24A 2431   2.410   2.046   8.080  0.4562 -0.2710 -0.1099
   33CHL1  H24B 2432   2.377   1.955   7.923  0.5865  0.5727  0.4133
   33CHL1   C25 2433   2.538   1.885   8.064  0.5113 -0.2785  0.4264
   33CHL1   H25 2434   2.474   1.819   8.126  1.0501 -1.2323  0.0045
   33CHL1   C26 2435   2.605   1.790   7.960 -0.2194 -0.4217  0.3117
   33CHL1  H26A 2436   2.651   1.706   8.017 -0.2314 -1.0192 -0.5310
   33CHL1  H26B 2437   2.532   1.744   7.890 -1.6084  0.1659  1.3231
   33CHL1  H26C 2438   2.686   1.844   7.908 -0.4992  0.0867  0.4006
   33CHL1   C27 2439   2.641   1.945   8.155  0.0737  0.0515  0.0857
   33CHL1  H27A 2440   2.705   1.866   8.198 -0.7125 -0.3792  0.4983
   33CHL1  H27B 2441   2.719   2.005   8.103  0.9866 -0.8365  0.4216
   33CHL1  H27C 2442   2.606   2.004   8.243  0.1766  2.3840 -1.3445
   34CHL1    C3 2443   0.847   0.566   7.123 -0.0198  0.0544 -0.1250
   34CHL1    H3 2444   0.941   0.513   7.146  0.8990  1.3517 -0.7540
   34CHL1    O3 2445   0.820   0.545   6.984 -0.4981  0.2254  0.8718
   34CHL1   H3' 2446   0.728   0.566   6.970 -0.7427 -0.8803  0.7744
   34CHL1    C4 2447   0.734   0.496   7.206  0.3575 -0.5275 -0.2493
   34CHL1   H4A 2448   0.638   0.535   7.166  1.2701  1.3423 -0.7341
   34CHL1   H4B 2449   0.734   0.389   7.177  1.7985 -0.0640 -2.1071
   34CHL1    C5 2450   0.751   0.514   7.356  0.2255  0.2226  0.0220
   34CHL1    C6 2451   0.751   0.420   7.446 -1.1420  0.4243 -0.4845
   34CHL1    H6 2452   0.727   0.317   7.413  1.1545 -0.2445 -0.2056
   34CHL1    C7 2453   0.762   0.438   7.595 -0.3638 -0.4586 -0.1224
   34CHL1   H7A 2454   0.706   0.363   7.655 -2.0810  2.1907  1.8407
   34CHL1   H7B 2455   0.867   0.427   7.632 -0.2146  0.8288 -0.1058
   34CHL1    C8 2456   0.726   0.582   7.641 -0.2448  0.6811  0.5290
   34CHL1    H8 2457   0.616   0.584   7.625  0.0078 -1.6755 -2.5898
   34CHL1   C14 2458   0.767   0.608   7.784  0.1397 -0.7377 -0.2935
   34CHL1   H14 2459   0.875   0.592   7.806  0.1733  0.9816  0.9970
   34CHL1   C15 2460   0.695   0.526   7.894 -0.4536  0.5117  0.4352
   34CHL1  H15A 2461   0.585   0.525   7.875 -0.2170  0.9283 -1.1193
   34CHL1  H15B 2462   0.737   0.423   7.897  1.4775  1.2879  1.1483
   34CHL1   C16 2463   0.731   0.600   8.023  0.1526  0.0543  0.7611
   34CHL1  H16A 2464   0.637   0.592   8.082 -1.6942  1.3612 -1.8150
   34CHL1  H16B 2465   0.813   0.556   8.084  0.7291 -1.3188 -0.9443
   34CHL1   C17 2466   0.777   0.746   7.981 -0.2157 -0.6211  0.6523
   34CHL1   H17 2467   0.888   0.749   7.988 -0.2216  2.0048  0.4748
   34CHL1   C13 2468   0.743   0.755   7.831 -0.0879  0.2406 -0.3087
   34CHL1   C18 2469   0.592   0.801   7.819 -0.0702 -0.3754  1.0833
   34CHL1  H18A 2470   0.523   0.749   7.888 -1.1728 -2.6412 -1.5164
   34CHL1  H18B 2471   0.582   0.911   7.832  2.0776 -0.1712  1.3914
   34CHL1  H18C 2472   0.556   0.775   7.717  0.7421  1.0115  0.4091
   34CHL1   C12 2473   0.832   0.845   7.746 -0.8072 -0.2611  0.5132
   34CHL1  H12A 2474   0.819   0.952   7.774  2.8923  0.0954  1.3565
   34CHL1  H12B 2475   0.941   0.827   7.756 -1.1919 -2.9800  0.6062
   34CHL1   C11 2476   0.797   0.837   7.593 -0.0168 -0.3622 -0.9224
   34CHL1  H11A 2477   0.698   0.886   7.579 -1.4457 -2.5811  0.6688
   34CHL1  H11B 2478   0.875   0.899   7.544  2.9198 -1.1516  2.3132
   34CHL1    C9 2479   0.800   0.684   7.549 -0.5557  0.0186  0.2524
   34CHL1    H9 2480   0.905   0.649   7.557 -0.5168  0.0511 -0.1032
   34CHL1   C10 2481   0.762   0.667   7.397 -0.7169  0.4270 -0.1221
   34CHL1   C19 2482   0.624   0.740   7.373 -0.0930 -0.2631  0.0870
   34CHL1  H19A 2483   0.560   0.705   7.457  1.5218 -0.9164  1.0723
   34CHL1  H19B 2484   0.631   0.851   7.370  2.1594 -0.3836 -1.3286
   34CHL1  H19C 2485   0.572   0.705   7.282  0.7056  0.6906 -0.7549
   34CHL1    C1 2486   0.870   0.744   7.305  0.2144 -0.0898  0.0378
   34CHL1   H1A 2487   0.859   0.855   7.312 -1.0542 -0.3098  2.5897
   34CHL1   H1B 2488   0.970   0.717   7.344 -1.3936 -3.1714  2.4865
   34CHL1    C2 2489   0.852   0.719   7.158 -0.6573  0.7975  0.4561
   34CHL1   H2A 2490   0.933   0.773   7.105 -1.4585  1.2669 -0.3234
   34CHL1   H2B 2491   0.754   0.759   7.124 -0.3833  0.5373 -0.6864
   34CHL1   C20 2492   0.720   0.854   8.083 -0.7562  0.7428  0.2623
   34CHL1   H20 2493   0.610   0.846   8.084 -0.6851 -0.3050  1.2579
   34CHL1   C21 2494   0.737   1.006   8.052  0.1744  0.8184 -0.5362
   34CHL1  H21A 2495   0.694   1.036   7.955  1.1052  0.0808 -1.1906
   34CHL1  H21B 2496   0.844   1.034   8.048  0.1941  1.0921  1.1553
   34CHL1  H21C 2497   0.696   1.059   8.141 -1.3140 -1.0922  0.0122
   34CHL1   C22 2498   0.783   0.834   8.225 -0.7141 -0.2133  0.4822
   34CHL1  H22A 2499   0.744   0.904   8.301  0.9524  0.5837  0.6594
   34CHL1  H22B 2500   0.758   0.729   8.250  1.8618 -1.1783 -0.6092
   34CHL1   C23 2501   0.941   0.840   8.230  0.0038 -0.2627 -0.9119
   34CHL1  H23A 2502   0.978   0.752   8.173 -1.2986 -2.8261  1.9591
   34CHL1  H23B 2503   0.973   0.934   8.180  0.3398  0.9752  1.4513
   34CHL1   C24 2504   1.013   0.818   8.366 -0.2731 -0.2212 -0.4668
   34CHL1  H24A 2505   0.988   0.719   8.411  2.5379 -1.7351 -1.9198
   34CHL1  H24B 2506   1.120   0.806   8.336 -0.8114 -3.1296 -1.5623
   34CHL1   C25 2507   0.996   0.930   8.461  0.1472  0.3609 -0.4553
   34CHL1   H25 2508   0.888   0.933   8.486 -0.3817 -3.7702 -1.5823
   34CHL1   C26 2509   1.076   0.904   8.589 -0.4642 -0.0236 -0.2262
   34CHL1  H26A 2510   1.171   0.853   8.562 -0.2639 -1.0842  2.2425
   34CHL1  H26B 2511   1.099   0.985   8.662  1.5671 -0.7227 -0.0031
   34CHL1  H26C 2512   1.029   0.822   8.648 -0.2124 -0.7246 -0.9786
   34CHL1   C27 2513   1.042   1.060   8.394 -0.4279  0.4968  0.0340
   34CHL1  H27A 2514   0.959   1.087   8.326 -1.3985 -1.7990  0.2238
   34CHL1  H27B 2515   1.055   1.136   8.474 -4.0304  0.9453  0.3322
   34CHL1  H27C 2516   1.139   1.054   8.340  0.3405 -0.4151  1.4474
   35CHL1    C3 2517   6.639   0.433   7.271 -0.5208 -0.1646  0.5781
   35CHL1    H3 2518   6.651   0.334   7.320 -0.0518  0.1481  1.1052
   35CHL1    O3 2519   6.658   0.412   7.131 -0.4601 -0.0557  0.2275
   35CHL1   H3' 2520   6.679   0.500   7.099 -0.9748  0.9844  2.5552
   35CHL1    C4 2521   6.502   0.494   7.290  0.7001  0.2347  0.3773
   35CHL1   H4A 2522   6.493   0.589   7.234  0.5641 -0.6759 -1.1961
   35CHL1   H4B 2523   6.430   0.424   7.243  0.1163  0.5313  0.8245
   35CHL1    C5 2524   6.475   0.507   7.444 -0.1868  0.0367  0.8124
   35CHL1    C6 2525   6.373   0.442   7.492  0.4749  0.4055  0.5511
   35CHL1    H6 2526   6.317   0.379   7.422  1.0577  2.0112 -1.4763
   35CHL1    C7 2527   6.341   0.440   7.636 -0.5566  0.0998 -0.0323
   35CHL1   H7A 2528   6.231   0.441   7.649 -0.3439 -1.9324  2.8132
   35CHL1   H7B 2529   6.373   0.346   7.685 -0.6700  0.6110  1.0582
   35CHL1    C8 2530   6.415   0.553   7.710  0.7402 -0.2752  0.1456
   35CHL1    H8 2531   6.371   0.654   7.695  2.2374  0.5978  1.3088
   35CHL1   C14 2532   6.396   0.523   7.861 -0.7295  0.5814  0.4035
   35CHL1   H14 2533   6.455   0.430   7.873 -0.7239  0.4638 -0.4510
   35CHL1   C15 2534   6.250   0.503   7.912 -1.2783  0.0511 -0.4031
   35CHL1  H15A 2535   6.187   0.588   7.880  0.6104  2.4666  1.8984
   35CHL1  H15B 2536   6.210   0.404   7.880 -1.1417  0.0930 -0.7096
   35CHL1   C16 2537   6.272   0.501   8.058 -0.2567  0.5627 -0.3087
   35CHL1  H16A 2538   6.201   0.572   8.106  0.1426  0.5600  0.2942
   35CHL1  H16B 2539   6.259   0.402   8.108  1.2820 -0.1963 -1.3272
   35CHL1   C17 2540   6.424   0.546   8.089  0.1048  0.2664 -0.1337
   35CHL1   H17 2541   6.463   0.444   8.112 -1.3808 -0.1459  0.7000
   35CHL1   C13 2542   6.470   0.608   7.956 -0.2362  0.2557 -0.3996
   35CHL1   C18 2543   6.422   0.752   7.951  0.5261  0.0345  0.4093
   35CHL1  H18A 2544   6.430   0.788   7.846  0.9179  2.0653  1.0780
   35CHL1  H18B 2545   6.312   0.742   7.960  0.4021 -0.7659 -1.5048
   35CHL1  H18C 2546   6.469   0.821   8.025 -2.3229 -1.0741  3.4997
   35CHL1   C12 2547   6.622   0.599   7.918  0.2247 -1.0678  0.6335
   35CHL1  H12A 2548   6.687   0.650   7.993 -1.3151  0.2435  1.1148
   35CHL1  H12B 2549   6.648   0.491   7.925  3.3786 -0.4940 -0.6323
   35CHL1   C11 2550   6.648   0.628   7.775 -0.8628 -0.2037  0.7555
   35CHL1  H11A 2551   6.646   0.737   7.756 -0.7366  0.0670  2.2489
   35CHL1  H11B 2552   6.751   0.596   7.749 -1.1173  0.2472 -0.9509
   35CHL1    C9 2553   6.560   0.553   7.674  0.1171  0.6755 -0.7314
   35CHL1    H9 2554   6.598   0.449   7.679 -1.8416 -0.0402  0.1681
   35CHL1   C10 2555   6.583   0.596   7.527 -0.0744  0.2972 -0.2461
   35CHL1   C19 2556   6.583   0.749   7.519  0.2199  0.0301 -0.1866
   35CHL1  H19A 2557   6.682   0.784   7.557  1.3434 -1.4166 -1.6075
   35CHL1  H19B 2558   6.591   0.777   7.412 -0.7856 -0.1211 -0.3049
   35CHL1  H19C 2559   6.506   0.805   7.575 -0.0165  0.1810 -0.6677
   35CHL1    C1 2560   6.730   0.553   7.483 -0.1053  0.7944  0.3407
   35CHL1   H1A 2561   6.803   0.633   7.511 -0.7513  1.6542 -0.3440
   35CHL1   H1B 2562   6.759   0.453   7.521  0.0848 -0.1117 -2.0092
   35CHL1    C2 2563   6.742   0.532   7.326  0.1715 -0.7917  0.2702
   35CHL1   H2A 2564   6.844   0.498   7.298  0.1939  0.7204 -1.6718
   35CHL1   H2B 2565   6.724   0.630   7.277  2.4293 -0.2509  0.4198
   35CHL1   C20 2566   6.436   0.631   8.218 -0.1535 -0.5894 -0.1760
   35CHL1   H20 2567   6.382   0.728   8.206 -1.5151 -1.4192 -0.9462
   35CHL1   C21 2568   6.582   0.661   8.252 -0.8966 -0.3482  0.8348
   35CHL1  H21A 2569   6.596   0.731   8.338  0.8588  0.3989  0.0026
   35CHL1  H21B 2570   6.623   0.722   8.169  0.9822  0.0202  1.9621
   35CHL1  H21C 2571   6.633   0.563   8.258  0.8248  0.4380 -0.0659
   35CHL1   C22 2572   6.384   0.565   8.351 -0.3380  0.5003 -0.4319
   35CHL1  H22A 2573   6.409   0.641   8.429  2.6400 -0.8313  0.0630
   35CHL1  H22B 2574   6.276   0.543   8.338 -0.2714 -1.3719  1.5167
   35CHL1   C23 2575   6.450   0.429   8.388  0.7876  0.2144  0.4036
   35CHL1  H23A 2576   6.415   0.351   8.317  0.3926 -1.0976  1.9751
   35CHL1  H23B 2577   6.560   0.421   8.397  0.5368 -4.3806  1.6003
   35CHL1   C24 2578   6.403   0.390   8.529 -0.0160 -0.1822 -1.2588
   35CHL1  H24A 2579   6.425   0.473   8.600  1.2617  0.6632 -2.5815
   35CHL1  H24B 2580   6.293   0.381   8.523 -0.0460 -2.3428  0.8985
   35CHL1   C25 2581   6.450   0.258   8.597 -0.6912 -0.9763 -0.1053
   35CHL1   H25 2582   6.558   0.271   8.615 -0.8985 -1.0812  1.3353
   35CHL1   C26 2583   6.376   0.235   8.728  0.8671  0.0193 -0.7316
   35CHL1  H26A 2584   6.394   0.133   8.770  1.8542 -0.1333 -1.4745
   35CHL1  H26B 2585   6.395   0.308   8.809 -0.1952 -1.2624  0.7282
   35CHL1  H26C 2586   6.268   0.243   8.704  0.5911 -0.2664  0.3662
   35CHL1   C27 2587   6.441   0.143   8.496 -0.3082 -0.7491 -0.1980
   35CHL1  H27A 2588   6.438   0.046   8.550  0.8369 -1.9516 -2.2008
   35CHL1  H27B 2589   6.527   0.140   8.425  0.7856  0.3379  1.0246
   35CHL1  H27C 2590   6.345   0.151   8.442 -0.5383 -1.2570  0.1270
   36CHL1    C3 2591   5.551   1.389   7.278  0.2423 -0.1317  0.3558
   36CHL1    H3 2592   5.443   1.414   7.290  0.0308 -0.5628 -0.5528
   36CHL1    O3 2593   5.565   1.336   7.145  0.3513 -0.9731 -0.2257
   36CHL1   H3' 2594   5.589   1.409   7.087  1.4393 -0.6255  0.6261
   36CHL1    C4 2595   5.645   1.512   7.291  0.0620  0.1010  0.0765
   36CHL1   H4A 2596   5.751   1.501   7.258  0.4111  2.1223  0.3963
   36CHL1   H4B 2597   5.611   1.592   7.222 -1.5900 -0.7977 -0.1869
   36CHL1    C5 2598   5.646   1.565   7.437  0.1864  0.3280  0.2323
   36CHL1    C6 2599   5.625   1.689   7.466 -0.6112 -0.6431  0.3259
   36CHL1    H6 2600   5.606   1.764   7.389  0.3224 -1.4328 -0.7164
   36CHL1    C7 2601   5.654   1.745   7.608  0.2004  0.2181  0.3823
   36CHL1   H7A 2602   5.729   1.826   7.603  1.2893 -0.5939  2.5651
   36CHL1   H7B 2603   5.561   1.788   7.651 -1.0444 -0.0378 -1.8699
   36CHL1    C8 2604   5.701   1.642   7.712 -0.6078  0.2917  0.4146
   36CHL1    H8 2605   5.808   1.635   7.681 -0.4825  1.8207  0.4606
   36CHL1   C14 2606   5.693   1.686   7.854 -0.4910 -0.1935  0.0240
   36CHL1   H14 2607   5.587   1.685   7.886 -0.4901 -1.7530  0.0565
   36CHL1   C15 2608   5.727   1.828   7.884 -0.4856 -0.2814  0.3432
   36CHL1  H15A 2609   5.822   1.844   7.829  0.6878 -1.7078  1.8570
   36CHL1  H15B 2610   5.651   1.905   7.861  0.7170  0.5923 -0.9294
   36CHL1   C16 2611   5.765   1.820   8.029 -0.4881  0.6727 -0.1329
   36CHL1  H16A 2612   5.863   1.873   8.038  0.0509 -0.4109  0.6876
   36CHL1  H16B 2613   5.689   1.870   8.091 -2.3446 -2.9341  0.7806
   36CHL1   C17 2614   5.761   1.672   8.086  1.1314  0.3622 -0.0434
   36CHL1   H17 2615   5.659   1.648   8.122  1.4224 -1.7137 -0.4634
   36CHL1   C13 2616   5.770   1.585   7.952 -0.4407 -0.1705 -0.5059
   36CHL1   C18 2617   5.918   1.576   7.899  0.0286  0.0134 -0.1719
   36CHL1  H18A 2618   5.966   1.675   7.881 -0.6901  0.0372 -2.2984
   36CHL1  H18B 2619   5.977   1.519   7.973 -1.6541 -1.9546 -0.2388
   36CHL1  H18C 2620   5.928   1.511   7.809 -0.6439  0.3220 -0.4716
   36CHL1   C12 2621   5.691   1.450   7.935 -0.0593  0.0649 -0.7756
   36CHL1  H12A 2622   5.727   1.373   8.007 -1.3445 -0.2405 -0.4234
   36CHL1  H12B 2623   5.589   1.482   7.965  0.3207  1.1377 -0.6117
   36CHL1   C11 2624   5.693   1.389   7.800 -0.8385 -0.2792 -0.7214
   36CHL1  H11A 2625   5.797   1.361   7.776 -1.1242 -0.0939 -2.2991
   36CHL1  H11B 2626   5.636   1.294   7.798  1.0204 -1.4505 -0.2654
   36CHL1    C9 2627   5.647   1.498   7.688 -0.2176  0.8477 -0.3050
   36CHL1    H9 2628   5.536   1.507   7.700 -0.4390 -1.5768  0.0167
   36CHL1   C10 2629   5.673   1.453   7.542 -0.0616 -0.3858 -0.0058
   36CHL1   C19 2630   5.825   1.405   7.531  1.0640 -0.6700  0.1468
   36CHL1  H19A 2631   5.847   1.317   7.594 -0.3485 -0.0140  1.6401
   36CHL1  H19B 2632   5.819   1.374   7.425 -2.6508 -1.2451  0.3854
   36CHL1  H19C 2633   5.893   1.491   7.547  0.1775 -0.0026  0.4408
   36CHL1    C1 2634   5.590   1.322   7.522  0.1489 -0.6353 -0.6550
   36CHL1   H1A 2635   5.629   1.241   7.587 -1.3761  0.0517  1.2099
   36CHL1   H1B 2636   5.484   1.347   7.545  0.4583  0.4504 -0.3447
   36CHL1    C2 2637   5.582   1.277   7.373  0.4514  0.1479 -0.2786
   36CHL1   H2A 2638   5.507   1.196   7.361  1.1765 -0.7066  0.7711
   36CHL1   H2B 2639   5.683   1.233   7.360  0.2674 -1.7795  3.5209
   36CHL1   C20 2640   5.848   1.643   8.205  0.3455 -0.3274  0.6159
   36CHL1   H20 2641   5.953   1.656   8.173  0.5843  2.2910  2.2216
   36CHL1   C21 2642   5.823   1.501   8.248  0.0960  0.4985 -0.8240
   36CHL1  H21A 2643   5.850   1.480   8.354  5.6283 -1.0603 -2.2275
   36CHL1  H21B 2644   5.879   1.419   8.200  1.7286 -0.3170  2.2037
   36CHL1  H21C 2645   5.715   1.476   8.237  0.5284 -0.9446 -2.1107
   36CHL1   C22 2646   5.822   1.742   8.313  0.1592  0.4052 -0.5766
   36CHL1  H22A 2647   5.816   1.846   8.275 -1.5771  0.0045 -1.5216
   36CHL1  H22B 2648   5.721   1.717   8.353  1.0332 -1.3894  0.6152
   36CHL1   C23 2649   5.926   1.759   8.429 -0.0070  0.9366  0.3991
   36CHL1  H23A 2650   5.941   1.667   8.490  1.8602  0.6849 -0.3929
   36CHL1  H23B 2651   6.024   1.772   8.380 -0.3531 -1.3942 -1.0536
   36CHL1   C24 2652   5.908   1.879   8.518  0.2258 -0.0844 -0.2525
   36CHL1  H24A 2653   5.899   1.960   8.443  1.2552 -0.9760 -1.3803
   36CHL1  H24B 2654   5.807   1.864   8.561 -0.0462  1.1105 -0.4441
   36CHL1   C25 2655   6.029   1.895   8.616  0.1913  0.1115  0.1556
   36CHL1   H25 2656   6.038   1.798   8.670 -0.8198 -0.4393 -0.6246
   36CHL1   C26 2657   6.169   1.927   8.560  0.6766  0.6844  0.2634
   36CHL1  H26A 2658   6.245   1.971   8.629  1.8964 -0.1353 -0.5099
   36CHL1  H26B 2659   6.214   1.832   8.523 -1.2768  0.1025 -0.7271
   36CHL1  H26C 2660   6.154   1.997   8.475 -0.1472  1.0786  0.7263
   36CHL1   C27 2661   6.005   1.992   8.729  0.3287 -0.7152  0.0990
   36CHL1  H27A 2662   5.911   1.974   8.786  1.2831 -0.2011  1.9233
   36CHL1  H27B 2663   6.097   2.002   8.790 -0.8078  0.7591  1.6690
   36CHL1  H27C 2664   5.991   2.092   8.683  0.5806  0.0017  1.5149
   37CHL1    C3 2665   2.556   3.661   6.873 -0.2985  0.0752 -0.3669
   37CHL1    H3 2666   2.467   3.727   6.878 -2.4708 -2.5835 -1.5278
   37CHL1    O3 2667   2.597   3.657   6.740 -0.4855 -0.1399  0.2249
   37CHL1   H3' 2668   2.645   3.739   6.723  0.0681 -0.7399 -1.3524
   37CHL1    C4 2669   2.673   3.724   6.955  0.4084  0.3938 -0.2429
   37CHL1   H4A 2670   2.770   3.675   6.934  2.0674  3.3492  0.0009
   37CHL1   H4B 2671   2.694   3.830   6.928  0.1119  1.1368  2.1949
   37CHL1    C5 2672   2.625   3.718   7.097 -0.0474 -0.1047  0.3096
   37CHL1    C6 2673   2.603   3.828   7.172 -0.5071  0.0068  0.8889
   37CHL1    H6 2674   2.617   3.921   7.114 -1.0998 -1.2837 -1.4740
   37CHL1    C7 2675   2.556   3.836   7.309  0.0286  0.0428 -0.2974
   37CHL1   H7A 2676   2.597   3.924   7.363 -0.8091  0.1515  0.1766
   37CHL1   H7B 2677   2.445   3.847   7.307 -0.1461 -0.5663  2.3182
   37CHL1    C8 2678   2.587   3.705   7.381  0.0399  0.0065  0.7031
   37CHL1    H8 2679   2.696   3.679   7.384 -0.2259 -1.0788  2.9786
   37CHL1   C14 2680   2.533   3.712   7.523 -0.2339  0.3685  0.1468
   37CHL1   H14 2681   2.422   3.702   7.529 -0.1772  0.1049  0.9196
   37CHL1   C15 2682   2.575   3.832   7.607  0.0150 -0.2356 -0.0799
   37CHL1  H15A 2683   2.684   3.848   7.595  0.3331 -0.8318  1.6837
   37CHL1  H15B 2684   2.522   3.923   7.572 -0.8633 -0.6478  0.1412
   37CHL1   C16 2685   2.534   3.798   7.751  0.0827  0.0197 -0.3815
   37CHL1  H16A 2686   2.618   3.828   7.818 -1.1207 -0.7291  1.5577
   37CHL1  H16B 2687   2.448   3.858   7.785 -0.4763 -0.9507 -0.0298
   37CHL1   C17 2688   2.502   3.647   7.753 -0.4582 -0.0012  0.3340
   37CHL1   H17 2689   2.392   3.644   7.743 -0.3975  1.0396 -0.8967
   37CHL1   C13 2690   2.572   3.592   7.612 -0.3295 -0.1359 -0.0060
   37CHL1   C18 2691   2.728   3.586   7.628  0.2197  0.0231 -0.2779
   37CHL1  H18A 2692   2.788   3.572   7.536  3.3956 -0.4287  1.7212
   37CHL1  H18B 2693   2.766   3.669   7.692 -0.9847 -0.5201  1.2195
   37CHL1  H18C 2694   2.748   3.493   7.685 -0.3145 -0.8023 -1.3886
   37CHL1   C12 2695   2.512   3.467   7.546 -0.1665 -0.3019 -0.0809
   37CHL1  H12A 2696   2.531   3.367   7.590  0.1927 -1.2827 -2.3316
   37CHL1  H12B 2697   2.401   3.464   7.537 -0.2760 -2.6584  1.2089
   37CHL1   C11 2698   2.562   3.455   7.397 -0.3195  0.3463 -0.3937
   37CHL1  H11A 2699   2.670   3.431   7.401 -0.9627 -2.9253  0.1062
   37CHL1  H11B 2700   2.498   3.374   7.356  0.4725 -0.4670 -0.0565
   37CHL1    C9 2701   2.535   3.582   7.301 -0.8358  0.5347 -0.2324
   37CHL1    H9 2702   2.424   3.589   7.304 -1.0377 -1.5380 -1.3335
   37CHL1   C10 2703   2.590   3.574   7.154 -0.0147 -0.3897  0.1722
   37CHL1   C19 2704   2.713   3.481   7.149  0.2148 -0.3048  0.3425
   37CHL1  H19A 2705   2.757   3.473   7.047  0.1994 -1.3060  0.4062
   37CHL1  H19B 2706   2.793   3.527   7.211  0.5908 -3.2724  2.2279
   37CHL1  H19C 2707   2.685   3.376   7.171 -0.9657  0.1388  1.0067
   37CHL1    C1 2708   2.479   3.515   7.063 -0.5202 -0.6170 -0.1764
   37CHL1   H1A 2709   2.466   3.410   7.097 -2.5333 -1.1172 -2.2747
   37CHL1   H1B 2710   2.382   3.566   7.081 -0.9051 -1.7166  0.9624
   37CHL1    C2 2711   2.519   3.515   6.917  0.6700 -0.2507 -0.1789
   37CHL1   H2A 2712   2.441   3.468   6.853  2.3347 -1.6687 -1.2465
   37CHL1   H2B 2713   2.607   3.448   6.910  1.0630  0.4219 -3.4321
   37CHL1   C20 2714   2.542   3.597   7.900  0.2142  0.2105  0.1343
   37CHL1   H20 2715   2.650   3.606   7.921  0.4555 -0.3767 -0.7901
   37CHL1   C21 2716   2.493   3.452   7.895  0.5218  0.0556  0.8191
   37CHL1  H21A 2717   2.392   3.440   7.850  0.6018  2.0160  0.0191
   37CHL1  H21B 2718   2.486   3.392   7.988 -1.2152  0.2986  0.8860
   37CHL1  H21C 2719   2.567   3.397   7.833 -0.4227  0.3957 -0.6657
   37CHL1   C22 2720   2.475   3.665   8.016 -0.0770 -0.3278  0.0395
   37CHL1  H22A 2721   2.454   3.772   7.996 -0.0543 -0.5206 -1.0871
   37CHL1  H22B 2722   2.376   3.614   8.017  0.5498 -1.5868  0.9013
   37CHL1   C23 2723   2.540   3.649   8.153 -0.4933  0.4604  0.0084
   37CHL1  H23A 2724   2.475   3.710   8.219 -1.2712 -2.6820  2.4173
   37CHL1  H23B 2725   2.515   3.547   8.189 -1.9746  0.1652 -1.7258
   37CHL1   C24 2726   2.695   3.685   8.166  0.5932 -0.7512  0.1694
   37CHL1  H24A 2727   2.754   3.621   8.096  2.0485  0.2169  0.4571
   37CHL1  H24B 2728   2.712   3.791   8.137  2.1126  0.0779  3.6018
   37CHL1   C25 2729   2.761   3.675   8.302  0.1641 -0.3765  0.1405
   37CHL1   H25 2730   2.869   3.689   8.283  0.4612 -1.3331  1.0652
   37CHL1   C26 2731   2.719   3.795   8.396 -0.4404  0.0594  0.0839
   37CHL1  H26A 2732   2.765   3.785   8.496 -0.7974 -0.5126  0.1931
   37CHL1  H26B 2733   2.741   3.894   8.350 -0.6564  0.2073  0.2944
   37CHL1  H26C 2734   2.608   3.786   8.394 -0.6406  2.0725 -1.3269
   37CHL1   C27 2735   2.732   3.545   8.371 -0.1315  0.1587 -0.3360
   37CHL1  H27A 2736   2.799   3.532   8.458 -1.0947  0.1522  0.4228
   37CHL1  H27B 2737   2.624   3.546   8.398 -0.0556  1.4135 -0.0112
   37CHL1  H27C 2738   2.751   3.455   8.308  1.3315  0.2548 -0.0627
   38CHL1    C3 2739   0.607   3.593   6.777  0.0796  0.0246 -0.8791
   38CHL1    H3 2740   0.640   3.698   6.782  2.5742 -0.5927 -2.6519
   38CHL1    O3 2741   0.571   3.570   6.645 -0.0010  0.5147  0.4948
   38CHL1   H3' 2742   0.524   3.486   6.643 -3.3652  2.2082 -1.3905
   38CHL1    C4 2743   0.717   3.501   6.819  0.2342  0.2671 -0.0884
   38CHL1   H4A 2744   0.693   3.397   6.789  2.3435  0.1779 -1.7090
   38CHL1   H4B 2745   0.804   3.519   6.752 -1.2375 -0.7273 -2.3800
   38CHL1    C5 2746   0.764   3.511   6.960 -0.2991  0.1517 -0.8705
   38CHL1    C6 2747   0.891   3.548   6.982 -0.0565  0.0485  0.0938
   38CHL1    H6 2748   0.958   3.545   6.895  1.1923  3.9056  0.7363
   38CHL1    C7 2749   0.942   3.552   7.122  0.4013 -0.1701  1.1966
   38CHL1   H7A 2750   1.029   3.484   7.135  1.2563  0.9544  1.5569
   38CHL1   H7B 2751   0.980   3.655   7.141 -0.4946  0.6182 -1.0585
   38CHL1    C8 2752   0.848   3.511   7.236  0.7641 -0.3226  0.3954
   38CHL1    H8 2753   0.845   3.400   7.244 -0.3718 -0.3253  0.1162
   38CHL1   C14 2754   0.905   3.562   7.371 -0.0181  0.4013 -0.0028
   38CHL1   H14 2755   0.908   3.673   7.374  0.3889  0.4484  4.1698
   38CHL1   C15 2756   1.039   3.504   7.429  0.5348  0.0653 -0.0696
   38CHL1  H15A 2757   1.043   3.394   7.412 -2.8169 -0.0201 -1.0589
   38CHL1  H15B 2758   1.136   3.546   7.394  0.2892 -0.6172 -1.6743
   38CHL1   C16 2759   1.035   3.541   7.577 -0.6108  0.1756  0.2618
   38CHL1  H16A 2760   1.077   3.456   7.636 -0.5192  1.2318  1.7522
   38CHL1  H16B 2761   1.114   3.617   7.595  1.6283 -2.2907  1.6637
   38CHL1   C17 2762   0.891   3.592   7.603  1.1927  0.4310 -0.1404
   38CHL1   H17 2763   0.881   3.702   7.587 -3.4217  0.5540  1.9238
   38CHL1   C13 2764   0.806   3.534   7.488 -0.2241  0.3433  0.3221
   38CHL1   C18 2765   0.774   3.379   7.510  0.6245 -0.1434 -0.3558
   38CHL1  H18A 2766   0.728   3.343   7.416 -1.5827  2.8580 -0.5788
   38CHL1  H18B 2767   0.868   3.322   7.530  1.0926 -0.0788 -2.1854
   38CHL1  H18C 2768   0.705   3.361   7.595 -0.5290  1.6022 -0.8702
   38CHL1   C12 2769   0.669   3.611   7.462 -1.1868  0.7916 -0.0226
   38CHL1  H12A 2770   0.603   3.596   7.550 -0.3531  2.5529  0.9659
   38CHL1  H12B 2771   0.702   3.717   7.457  1.7668 -0.0293 -0.0041
   38CHL1   C11 2772   0.607   3.568   7.330 -0.2269  0.1642 -0.4678
   38CHL1  H11A 2773   0.565   3.467   7.351 -1.5110  0.8359  0.3138
   38CHL1  H11B 2774   0.513   3.626   7.317 -1.1019 -1.1012  0.0345
   38CHL1    C9 2775   0.708   3.566   7.207  0.1383  0.1447 -0.0969
   38CHL1    H9 2776   0.730   3.674   7.193  0.3982  0.0116 -0.7261
   38CHL1   C10 2777   0.647   3.512   7.065 -0.5693  0.3573  0.6264
   38CHL1   C19 2778   0.601   3.362   7.081 -0.6127  0.1395  0.3175
   38CHL1  H19A 2779   0.536   3.350   7.171 -0.4310  0.5173  0.5025
   38CHL1  H19B 2780   0.539   3.337   6.992 -1.1900 -0.0703  0.7670
   38CHL1  H19C 2781   0.685   3.290   7.094 -1.2777 -0.5975  0.6486
   38CHL1    C1 2782   0.527   3.598   7.016  0.0589 -0.3446 -0.4948
   38CHL1   H1A 2783   0.440   3.580   7.082  0.8016 -2.5991 -0.0313
   38CHL1   H1B 2784   0.566   3.701   7.026  1.7377 -1.0580  0.8166
   38CHL1    C2 2785   0.486   3.576   6.872  0.3801 -0.0974  0.4165
   38CHL1   H2A 2786   0.408   3.651   6.844 -0.4048 -1.5588 -1.6649
   38CHL1   H2B 2787   0.434   3.479   6.853  1.6402 -0.3139 -2.5601
   38CHL1   C20 2788   0.834   3.579   7.745  0.1771 -0.2780  0.0427
   38CHL1   H20 2789   0.723   3.579   7.746  0.1124  0.9896 -1.6721
   38CHL1   C21 2790   0.872   3.704   7.825 -0.7095 -0.1729 -0.3764
   38CHL1  H21A 2791   0.844   3.704   7.933  2.3095  0.2925  0.5073
   38CHL1  H21B 2792   0.820   3.792   7.780  0.4878  0.6698 -0.1693
   38CHL1  H21C 2793   0.980   3.729   7.823 -0.8580  0.6523  0.7199
   38CHL1   C22 2794   0.885   3.459   7.823 -0.5174  0.9324  0.0064
   38CHL1  H22A 2795   0.889   3.377   7.749 -1.9692  2.8665 -2.3649
   38CHL1  H22B 2796   0.991   3.474   7.854 -0.2243  2.8201 -1.7139
   38CHL1   C23 2797   0.790   3.401   7.934 -0.5538 -0.1925  0.7309
   38CHL1  H23A 2798   0.777   3.463   8.025  1.7352  0.4874  0.6639
   38CHL1  H23B 2799   0.702   3.370   7.874 -0.0656  0.6034 -0.4326
   38CHL1   C24 2800   0.852   3.263   7.987 -0.5713  0.5007  0.0957
   38CHL1  H24A 2801   0.822   3.191   7.908  0.0416  1.1971 -0.7792
   38CHL1  H24B 2802   0.962   3.271   7.989 -0.5271  0.8239 -1.8945
   38CHL1   C25 2803   0.800   3.209   8.119 -0.1884 -0.1959 -0.3082
   38CHL1   H25 2804   0.826   3.103   8.134 -1.4547 -0.5117 -0.1675
   38CHL1   C26 2805   0.868   3.295   8.235  0.1273  0.2749 -0.3416
   38CHL1  H26A 2806   0.977   3.280   8.218 -0.1164 -1.7780 -0.2853
   38CHL1  H26B 2807   0.839   3.402   8.223 -2.3443  0.0018  2.2672
   38CHL1  H26C 2808   0.841   3.260   8.336  0.5094  1.9401  0.3815
   38CHL1   C27 2809   0.651   3.226   8.143  0.0842 -0.0873 -0.1621
   38CHL1  H27A 2810   0.593   3.185   8.058  1.6625 -0.6771 -1.0020
   38CHL1  H27B 2811   0.623   3.161   8.229 -0.9743  0.4474 -0.0897
   38CHL1  H27C 2812   0.619   3.331   8.160  0.2535 -0.1966  0.8972
   39CHL1    C3 2813   6.258   3.695   6.972 -0.2166  1.1256 -0.7439
   39CHL1    H3 2814   6.365   3.667   6.986 -0.4792  0.2582 -0.3806
   39CHL1    O3 2815   6.218   3.704   6.833 -0.5516 -0.8399  0.3684
   39CHL1   H3' 2816   6.216   3.614   6.799  0.2760 -0.4953 -0.6290
   39CHL1    C4 2817   6.174   3.578   7.034 -0.1665 -0.3375 -0.4273
   39CHL1   H4A 2818   6.067   3.596   7.009 -0.9131 -1.1909  1.8770
   39CHL1   H4B 2819   6.196   3.484   6.981  1.5071  0.3729 -1.0570
   39CHL1    C5 2820   6.184   3.573   7.188  0.3885  0.0125 -0.1815
   39CHL1    C6 2821   6.225   3.460   7.240 -0.2167  0.5430 -0.7725
   39CHL1    H6 2822   6.239   3.371   7.178  0.5709 -2.6312  3.5008
   39CHL1    C7 2823   6.223   3.429   7.386 -0.3989  0.2000  0.0227
   39CHL1   H7A 2824   6.166   3.335   7.403  0.3681 -1.0498 -3.4898
   39CHL1   H7B 2825   6.330   3.404   7.398 -0.4391 -0.3705 -0.7097
   39CHL1    C8 2826   6.176   3.540   7.476  0.0748  0.3666 -0.1541
   39CHL1    H8 2827   6.065   3.537   7.476  0.0185  1.7842 -0.0253
   39CHL1   C14 2828   6.230   3.541   7.610 -0.4691 -0.5432  0.3603
   39CHL1   H14 2829   6.337   3.571   7.606 -1.2406  2.3791 -1.1464
   39CHL1   C15 2830   6.212   3.409   7.684 -0.3277 -0.3647 -0.1622
   39CHL1  H15A 2831   6.109   3.382   7.653 -1.5655  4.0347 -0.5705
   39CHL1  H15B 2832   6.278   3.333   7.636 -2.1923 -3.4556  1.8199
   39CHL1   C16 2833   6.232   3.434   7.828  0.1011 -0.0479 -0.3723
   39CHL1  H16A 2834   6.140   3.392   7.873  1.3423 -2.3491  0.1422
   39CHL1  H16B 2835   6.317   3.383   7.879  0.6560 -0.1739 -1.4002
   39CHL1   C17 2836   6.222   3.594   7.837 -1.0577 -0.3736  0.6321
   39CHL1   H17 2837   6.333   3.604   7.839 -1.0473 -0.4256  0.3720
   39CHL1   C13 2838   6.172   3.645   7.703 -0.1511 -0.0927 -0.2165
   39CHL1   C18 2839   6.020   3.645   7.708  0.3225 -0.1472  0.0595
   39CHL1  H18A 2840   5.988   3.735   7.764  1.2285  0.8197 -0.9220
   39CHL1  H18B 2841   5.990   3.665   7.603  2.3240  1.7706 -0.2203
   39CHL1  H18C 2842   5.973   3.551   7.745  2.6024 -0.3743  2.6902
   39CHL1   C12 2843   6.224   3.781   7.642  0.2348  0.2620 -0.6382
   39CHL1  H12A 2844   6.194   3.871   7.700 -0.0369  0.0723 -0.4829
   39CHL1  H12B 2845   6.335   3.773   7.645  0.5236  3.2017  0.0229
   39CHL1   C11 2846   6.175   3.802   7.501  0.2729 -0.3160 -0.3210
   39CHL1  H11A 2847   6.065   3.813   7.505  0.3559  0.2613  0.9872
   39CHL1  H11B 2848   6.212   3.899   7.461 -0.7389 -0.6035 -2.0406
   39CHL1    C9 2849   6.209   3.685   7.413 -0.4394 -0.9192  0.1510
   39CHL1    H9 2850   6.319   3.679   7.401 -0.3090 -0.2394  0.9594
   39CHL1   C10 2851   6.158   3.701   7.269  0.0500  0.3569 -0.2723
   39CHL1   C19 2852   6.009   3.726   7.266  0.6926 -0.1164  0.1946
   39CHL1  H19A 2853   5.980   3.823   7.310 -0.0700  0.3564 -1.2882
   39CHL1  H19B 2854   5.974   3.721   7.161 -1.4016  0.5836  0.8070
   39CHL1  H19C 2855   5.944   3.657   7.323  0.3251 -2.0470 -2.3773
   39CHL1    C1 2856   6.240   3.811   7.194  0.1026 -0.2584 -0.0367
   39CHL1   H1A 2857   6.230   3.908   7.246  0.2514 -0.7596  0.9409
   39CHL1   H1B 2858   6.349   3.795   7.204  0.5230  1.7314 -0.9410
   39CHL1    C2 2859   6.216   3.821   7.047  0.1558  0.4140  0.1984
   39CHL1   H2A 2860   6.274   3.904   6.999  1.5964 -0.9112 -0.4441
   39CHL1   H2B 2861   6.106   3.838   7.042  0.0748  0.7813  2.5283
   39CHL1   C20 2862   6.166   3.646   7.976 -0.5288 -0.1276 -0.2227
   39CHL1   H20 2863   6.058   3.621   7.985 -0.5620  0.2542  0.5224
   39CHL1   C21 2864   6.176   3.796   7.969  0.6331  0.0311 -0.1480
   39CHL1  H21A 2865   6.106   3.833   7.891 -0.3083 -1.2372  0.0525
   39CHL1  H21B 2866   6.279   3.833   7.952  1.4505 -0.2294  3.4260
   39CHL1  H21C 2867   6.139   3.842   8.064  1.3557 -0.2376  0.2639
   39CHL1   C22 2868   6.244   3.587   8.092  0.4048  0.1172 -0.6043
   39CHL1  H22A 2869   6.277   3.481   8.081  0.8858 -0.0141  1.5780
   39CHL1  H22B 2870   6.333   3.651   8.111  0.5962  0.2195 -1.7581
   39CHL1   C23 2871   6.155   3.585   8.221 -0.0290  0.2688 -0.2651
   39CHL1  H23A 2872   6.130   3.688   8.255  1.8092  0.3779  0.8989
   39CHL1  H23B 2873   6.070   3.526   8.182 -0.5938  0.1662  1.0937
   39CHL1   C24 2874   6.219   3.499   8.332  0.2704 -0.1149  0.5026
   39CHL1  H24A 2875   6.214   3.394   8.294  0.7459  0.6074 -1.7278
   39CHL1  H24B 2876   6.327   3.522   8.344  0.3236  0.5024 -0.9694
   39CHL1   C25 2877   6.142   3.506   8.467 -0.2297  0.3172  0.3029
   39CHL1   H25 2878   6.181   3.595   8.519  0.2715 -0.0355  0.5387
   39CHL1   C26 2879   5.993   3.502   8.439  0.7577  0.2564  0.4212
   39CHL1  H26A 2880   5.961   3.426   8.364 -3.5845  1.5145  0.7089
   39CHL1  H26B 2881   5.937   3.475   8.531 -0.8646 -0.1441 -0.6474
   39CHL1  H26C 2882   5.957   3.604   8.415 -1.3295 -0.4229  0.4987
   39CHL1   C27 2883   6.165   3.380   8.552 -0.4404 -0.7827  0.5153
   39CHL1  H27A 2884   6.111   3.298   8.501  0.9489 -0.5145 -1.4913
   39CHL1  H27B 2885   6.270   3.347   8.560 -0.1994  0.2351  1.9599
   39CHL1  H27C 2886   6.113   3.387   8.650 -1.1927 -1.2959  0.1613
   40CHL1    C3 2887   1.547   1.555   7.069  0.0415 -0.0489  0.0019
   40CHL1    H3 2888   1.604   1.647   7.092 -0.1098  0.7249 -2.4071
   40CHL1    O3 2889   1.506   1.551   6.929 -0.0164 -0.1280  0.2282
   40CHL1   H3' 2890   1.459   1.467   6.926  0.2306 -0.2748  0.4152
   40CHL1    C4 2891   1.626   1.437   7.103 -0.2516  0.6073 -0.8639
   40CHL1   H4A 2892   1.569   1.351   7.063 -3.0653  1.6424  0.6009
   40CHL1   H4B 2893   1.716   1.431   7.037 -0.5351  0.7656 -1.2667
   40CHL1    C5 2894   1.660   1.418   7.251  0.6355  0.1942 -0.1614
   40CHL1    C6 2895   1.789   1.413   7.290 -0.3843 -0.0366  0.7280
   40CHL1    H6 2896   1.868   1.416   7.213  0.9991 -2.8281  1.8979
   40CHL1    C7 2897   1.834   1.403   7.430 -0.2333  0.6643 -0.2406
   40CHL1   H7A 2898   1.920   1.336   7.450  0.0961  0.9915 -0.5347
   40CHL1   H7B 2899   1.861   1.496   7.484  0.2256 -0.1878  1.0497
   40CHL1    C8 2900   1.714   1.355   7.521  1.0405  0.0613 -0.4619
   40CHL1    H8 2901   1.696   1.248   7.496 -0.3070 -0.5458  2.6162
   40CHL1   C14 2902   1.744   1.368   7.670  0.4057  0.3242 -0.0155
   40CHL1   H14 2903   1.766   1.474   7.696  1.9954  0.0190 -0.0064
   40CHL1   C15 2904   1.875   1.311   7.727  0.6260 -0.0523  0.0590
   40CHL1  H15A 2905   1.879   1.210   7.680 -2.5280 -0.0708 -0.3800
   40CHL1  H15B 2906   1.967   1.363   7.690  0.2409  0.6016  0.0104
   40CHL1   C16 2907   1.862   1.298   7.882 -0.1058 -0.5285  0.1221
   40CHL1  H16A 2908   1.882   1.193   7.913 -0.1987 -0.5353  0.1594
   40CHL1  H16B 2909   1.926   1.370   7.938  0.7969 -0.4905 -0.9356
   40CHL1   C17 2910   1.710   1.343   7.901  0.0900  0.1321 -0.3224
   40CHL1   H17 2911   1.703   1.454   7.902  0.0636  0.1471 -1.1385
   40CHL1   C13 2912   1.633   1.322   7.766 -0.7077 -0.2244 -0.0071
   40CHL1   C18 2913   1.606   1.173   7.761 -0.0608  0.8829  0.1103
   40CHL1  H18A 2914   1.528   1.131   7.828  1.3974 -2.0997  0.1137
   40CHL1  H18B 2915   1.588   1.136   7.658 -0.6357  1.3381  0.0398
   40CHL1  H18C 2916   1.697   1.116   7.790  0.7592  1.8457 -0.5426
   40CHL1   C12 2917   1.515   1.419   7.742  0.7983  0.7701 -0.9043
   40CHL1  H12A 2918   1.426   1.396   7.804  1.2044  0.1544 -0.5421
   40CHL1  H12B 2919   1.549   1.522   7.768  1.0151  0.4344  0.1873
   40CHL1   C11 2920   1.464   1.408   7.592  0.4196  0.1363 -0.6571
   40CHL1  H11A 2921   1.417   1.308   7.589  0.9932 -0.1794  0.4138
   40CHL1  H11B 2922   1.382   1.483   7.582  1.9244  2.2038  1.3016
   40CHL1    C9 2923   1.580   1.430   7.494  0.3700 -0.3598 -0.9448
   40CHL1    H9 2924   1.602   1.538   7.502  0.8680 -0.2848 -2.8592
   40CHL1   C10 2925   1.538   1.420   7.346 -0.1455 -0.1876  0.7998
   40CHL1   C19 2926   1.460   1.290   7.330  0.0985  0.0540  0.2720
   40CHL1  H19A 2927   1.516   1.199   7.362  1.0650  1.3045  2.3675
   40CHL1  H19B 2928   1.372   1.287   7.396  1.1907  0.6051  1.8151
   40CHL1  H19C 2929   1.419   1.273   7.228 -1.9552 -0.1940  1.1026
   40CHL1    C1 2930   1.453   1.548   7.311  0.5894  0.5360  0.0647
   40CHL1   H1A 2931   1.360   1.551   7.371 -0.5207  0.3400 -1.5905
   40CHL1   H1B 2932   1.511   1.640   7.335  2.7554 -0.5312 -0.7217
   40CHL1    C2 2933   1.416   1.565   7.160 -0.0139  0.2098 -0.1899
   40CHL1   H2A 2934   1.362   1.660   7.141  0.0089  0.0029 -1.4007
   40CHL1   H2B 2935   1.351   1.481   7.127  2.5609 -2.2815  0.6377
   40CHL1   C20 2936   1.643   1.298   8.027 -0.0239 -0.2085 -0.3202
   40CHL1   H20 2937   1.535   1.302   8.003  0.1219 -0.7351 -1.0856
   40CHL1   C21 2938   1.669   1.406   8.136 -0.1977  0.1153 -0.2545
   40CHL1  H21A 2939   1.617   1.384   8.232  2.3441  0.0454  1.1854
   40CHL1  H21B 2940   1.642   1.509   8.104 -0.8847  0.3159  0.9188
   40CHL1  H21C 2941   1.778   1.412   8.155 -0.3319 -2.3256  1.9892
   40CHL1   C22 2942   1.669   1.156   8.081 -0.6297 -0.0228  0.1181
   40CHL1  H22A 2943   1.686   1.082   8.000  1.0382  1.2487 -0.7759
   40CHL1  H22B 2944   1.754   1.156   8.153 -1.0547 -2.0397  0.6854
   40CHL1   C23 2945   1.551   1.109   8.167  0.2011  0.2952 -0.0101
   40CHL1  H23A 2946   1.532   1.173   8.256  1.2899 -0.0109  0.4579
   40CHL1  H23B 2947   1.465   1.115   8.097 -0.5955  1.2496  1.0186
   40CHL1   C24 2948   1.562   0.963   8.214 -0.1465 -0.7738  0.2560
   40CHL1  H24A 2949   1.585   0.904   8.123 -1.0399 -0.6650 -0.0503
   40CHL1  H24B 2950   1.652   0.970   8.279  1.9750  1.3475 -2.5782
   40CHL1   C25 2951   1.435   0.900   8.279 -0.4253 -0.1536  0.2448
   40CHL1   H25 2952   1.353   0.907   8.204 -0.1433  1.3377  0.0440
   40CHL1   C26 2953   1.448   0.752   8.313 -1.0807  0.4650 -0.4678
   40CHL1  H26A 2954   1.364   0.718   8.378  0.1568 -2.1346 -0.1116
   40CHL1  H26B 2955   1.442   0.702   8.214  0.5284  1.5132 -1.1392
   40CHL1  H26C 2956   1.546   0.727   8.358  0.2524  0.6358 -3.1111
   40CHL1   C27 2957   1.401   0.988   8.403  0.4696  1.0568 -0.1719
   40CHL1  H27A 2958   1.385   1.091   8.365  0.4569  0.6208 -1.3959
   40CHL1  H27B 2959   1.309   0.945   8.446  1.9825 -1.7297  0.5481
   40CHL1  H27C 2960   1.484   0.999   8.475 -0.2510  1.4893  0.6026
   41CHL1    C3 2961   2.953   1.228   7.012  0.5604 -0.4915  0.0551
   41CHL1    H3 2962   3.030   1.152   6.985  0.9744 -0.3128  0.7065
   41CHL1    O3 2963   2.874   1.252   6.897  0.3451  0.3117 -0.3016
   41CHL1   H3' 2964   2.822   1.172   6.895 -1.1427  1.2156  0.5750
   41CHL1    C4 2965   2.860   1.159   7.122 -0.6918 -0.6961 -0.5208
   41CHL1   H4A 2966   2.775   1.224   7.149 -0.9237 -1.1570 -0.1428
   41CHL1   H4B 2967   2.795   1.080   7.079 -4.1160  0.9531  1.2790
   41CHL1    C5 2968   2.942   1.118   7.249  0.5653 -0.0777 -0.1208
   41CHL1    C6 2969   2.940   0.997   7.299  0.3803  0.5781 -0.6373
   41CHL1    H6 2970   2.881   0.918   7.249  3.4627 -1.0576 -1.9845
   41CHL1    C7 2971   3.036   0.955   7.416 -0.1879  0.4919 -0.4539
   41CHL1   H7A 2972   2.995   0.895   7.500  1.5258  0.2867  0.2757
   41CHL1   H7B 2973   3.114   0.890   7.371 -0.2741  1.0847 -1.5151
   41CHL1    C8 2974   3.094   1.072   7.494  0.0868 -0.9482  0.0020
   41CHL1    H8 2975   3.016   1.117   7.559 -0.9299 -2.6575  0.0276
   41CHL1   C14 2976   3.212   1.021   7.582  0.2289 -0.4234  0.1326
   41CHL1   H14 2977   3.286   0.970   7.517  2.7661  0.0840  2.4300
   41CHL1   C15 2978   3.170   0.919   7.690  0.4650 -0.0275 -0.6765
   41CHL1  H15A 2979   3.072   0.956   7.729  0.9416  0.5258  0.0234
   41CHL1  H15B 2980   3.157   0.815   7.654  0.0529  0.5446 -2.2653
   41CHL1   C16 2981   3.283   0.929   7.795  0.3027 -0.0907 -0.2372
   41CHL1  H16A 2982   3.239   0.944   7.896  2.2279 -1.4430  0.8797
   41CHL1  H16B 2983   3.348   0.839   7.806 -0.3912 -1.1131 -3.3947
   41CHL1   C17 2984   3.369   1.050   7.748  1.0593  0.1652 -0.3686
   41CHL1   H17 2985   3.438   1.001   7.675 -2.8864 -0.2797 -4.2069
   41CHL1   C13 2986   3.282   1.135   7.656 -0.1990 -0.0908 -0.5118
   41CHL1   C18 2987   3.184   1.220   7.747  0.2162 -0.3358 -0.1529
   41CHL1  H18A 2988   3.241   1.298   7.803 -0.8023 -1.6400  2.9366
   41CHL1  H18B 2989   3.111   1.272   7.682 -1.4159 -0.6215  1.3733
   41CHL1  H18C 2990   3.115   1.163   7.813 -0.0065  3.1276  2.9097
   41CHL1   C12 2991   3.349   1.216   7.550 -0.0733 -0.0693 -0.0464
   41CHL1  H12A 2992   3.415   1.299   7.584 -0.2199  0.3317 -0.7102
   41CHL1  H12B 2993   3.416   1.144   7.499  0.1332 -1.3947  1.9938
   41CHL1   C11 2994   3.248   1.283   7.450  0.1859 -0.4163 -0.7436
   41CHL1  H11A 2995   3.193   1.368   7.495  0.9867  0.4042 -1.2809
   41CHL1  H11B 2996   3.299   1.330   7.363  0.8238 -0.5462 -0.4471
   41CHL1    C9 2997   3.145   1.175   7.394 -0.9672  0.2349 -0.6198
   41CHL1    H9 2998   3.209   1.111   7.330  0.1543  1.0265 -0.3199
   41CHL1   C10 2999   3.039   1.228   7.304 -0.0411 -0.4654  0.0286
   41CHL1   C19 3000   2.940   1.329   7.365 -0.1927 -0.1659  0.2011
   41CHL1  H19A 3001   2.863   1.369   7.295  2.5788  2.2394 -1.7296
   41CHL1  H19B 3002   2.880   1.287   7.448 -4.8981  1.7371 -1.8712
   41CHL1  H19C 3003   2.999   1.412   7.409 -0.0404 -0.8403  1.3023
   41CHL1    C1 3004   3.106   1.302   7.194 -0.2508  0.1857  0.3609
   41CHL1   H1A 3005   3.151   1.398   7.227 -2.3626  1.2606  0.2790
   41CHL1   H1B 3006   3.192   1.249   7.147 -1.0093 -1.6084  0.9149
   41CHL1    C2 3007   3.015   1.353   7.077 -1.0045  0.4831  0.6666
   41CHL1   H2A 3008   3.077   1.406   7.001  0.7055 -2.0409  0.1730
   41CHL1   H2B 3009   2.948   1.425   7.129 -3.4959 -1.6992  0.6803
   41CHL1   C20 3010   3.450   1.120   7.855  0.3868 -0.1868 -0.3273
   41CHL1   H20 3011   3.467   1.225   7.825 -1.3428  1.0599  2.6202
   41CHL1   C21 3012   3.583   1.050   7.865  0.1959  0.2546  0.5357
   41CHL1  H21A 3013   3.653   1.093   7.940  1.4549  0.2636 -0.5930
   41CHL1  H21B 3014   3.628   1.055   7.763 -1.3746 -2.2492 -0.3706
   41CHL1  H21C 3015   3.573   0.942   7.887 -0.9101  0.4675  1.1529
   41CHL1   C22 3016   3.376   1.137   7.988 -0.9548 -0.1952 -0.9648
   41CHL1  H22A 3017   3.272   1.175   7.976 -1.6970 -2.6460 -3.2057
   41CHL1  H22B 3018   3.374   1.040   8.041 -0.3426  0.2091 -0.1725
   41CHL1   C23 3019   3.439   1.230   8.092 -0.5133  0.2284  0.4893
   41CHL1  H23A 3020   3.541   1.191   8.113  0.0644  0.2118 -1.9810
   41CHL1  H23B 3021   3.448   1.328   8.040  0.7964  0.5145  1.2048
   41CHL1   C24 3022   3.356   1.247   8.219  0.2656 -0.0452  0.2960
   41CHL1  H24A 3023   3.255   1.289   8.195  0.7263  0.7769 -0.2540
   41CHL1  H24B 3024   3.334   1.146   8.259 -2.9194  0.1385 -0.6763
   41CHL1   C25 3025   3.431   1.333   8.329 -0.4613  0.0936 -0.4983
   41CHL1   H25 3026   3.443   1.434   8.283 -0.0564 -0.5558 -1.8733
   41CHL1   C26 3027   3.337   1.340   8.450 -0.3502 -0.5098 -0.5192
   41CHL1  H26A 3028   3.365   1.421   8.519 -5.0936 -0.3850  1.5805
   41CHL1  H26B 3029   3.235   1.374   8.424 -1.0855 -0.0649  2.6054
   41CHL1  H26C 3030   3.322   1.242   8.501  1.5435 -0.3713  0.3740
   41CHL1   C27 3031   3.572   1.292   8.376 -0.2436 -0.3512 -0.2907
   41CHL1  H27A 3032   3.569   1.194   8.429  2.0497  0.8461  2.2418
   41CHL1  H27B 3033   3.638   1.296   8.287 -1.2357  0.8313 -1.0114
   41CHL1  H27C 3034   3.606   1.362   8.455 -0.5009  0.7801 -1.1463
   42CHL1    C3 3035   3.128   5.918   7.000 -0.0352 -0.5872  0.6466
   42CHL1    H3 3036   3.173   5.817   6.997  1.1616 -0.1910  2.9789
   42CHL1    O3 3037   3.092   5.963   6.868  0.1564 -0.5039 -0.1186
   42CHL1   H3' 3038   3.091   6.058   6.864 -1.1438 -0.5294 -3.1311
   42CHL1    C4 3039   3.006   5.920   7.101 -0.4048  0.0018  0.5023
   42CHL1   H4A 3040   2.967   6.022   7.080  1.8192  1.1142  1.4823
   42CHL1   H4B 3041   2.930   5.846   7.070 -1.2759  1.5097 -1.1763
   42CHL1    C5 3042   3.044   5.900   7.245  0.3453  0.2623  0.0069
   42CHL1    C6 3043   2.988   5.803   7.318  0.0920  0.3785 -0.6147
   42CHL1    H6 3044   2.908   5.748   7.266  0.2890 -0.2366 -0.2668
   42CHL1    C7 3045   3.011   5.777   7.466 -0.3176 -0.7653 -0.9324
   42CHL1   H7A 3046   2.912   5.766   7.515 -1.1492 -1.4840 -2.6665
   42CHL1   H7B 3047   3.066   5.683   7.487  0.1101 -0.0394  1.5182
   42CHL1    C8 3048   3.094   5.894   7.531  0.6781  0.0522  0.1414
   42CHL1    H8 3049   3.026   5.980   7.546  2.3737  1.5509 -0.3842
   42CHL1   C14 3050   3.147   5.848   7.663 -0.2820  0.4418 -0.4980
   42CHL1   H14 3051   3.227   5.776   7.640  0.4199  1.0808 -0.1042
   42CHL1   C15 3052   3.054   5.774   7.766 -0.1070 -0.5747 -0.0601
   42CHL1  H15A 3053   2.955   5.825   7.765  0.4901  0.6268 -0.3828
   42CHL1  H15B 3054   3.035   5.668   7.742 -2.2541 -0.0286 -1.0109
   42CHL1   C16 3055   3.126   5.804   7.897  0.3127 -0.1911 -0.1504
   42CHL1  H16A 3056   3.052   5.864   7.954  0.9855  1.4855 -0.9990
   42CHL1  H16B 3057   3.136   5.712   7.959  2.1023  1.5371  2.3468
   42CHL1   C17 3058   3.262   5.877   7.871 -1.1684  0.0840 -0.7750
   42CHL1   H17 3059   3.323   5.791   7.839 -0.5018 -0.0670  0.7755
   42CHL1   C13 3060   3.229   5.955   7.741 -0.8171  0.8021  0.2400
   42CHL1   C18 3061   3.139   6.075   7.777 -0.7368 -0.2924  0.3823
   42CHL1  H18A 3062   3.097   6.126   7.688 -1.7039  0.5180  1.2674
   42CHL1  H18B 3063   3.048   6.032   7.824  0.3817 -3.8952 -0.4557
   42CHL1  H18C 3064   3.188   6.153   7.840  1.2696  0.9700 -2.5346
   42CHL1   C12 3065   3.346   6.002   7.648  0.2106 -0.0005  1.0327
   42CHL1  H12A 3066   3.409   6.080   7.698  1.4732  0.3442 -0.9758
   42CHL1  H12B 3067   3.405   5.909   7.635 -1.9824 -1.3892  0.5492
   42CHL1   C11 3068   3.286   6.044   7.517 -0.5775 -0.5494  0.4966
   42CHL1  H11A 3069   3.228   6.137   7.535 -0.7531 -0.6836  0.6153
   42CHL1  H11B 3070   3.378   6.079   7.464 -0.0886  0.1218  1.7489
   42CHL1    C9 3071   3.204   5.940   7.442  0.3903  0.1634 -0.3127
   42CHL1    H9 3072   3.270   5.852   7.423  1.4526  0.8188  0.2439
   42CHL1   C10 3073   3.153   5.985   7.300 -0.1716  0.0076 -0.6181
   42CHL1   C19 3074   3.114   6.129   7.317 -0.5551  0.0334 -0.2858
   42CHL1  H19A 3075   3.189   6.210   7.329 -1.0801  0.3067  1.4741
   42CHL1  H19B 3076   3.066   6.173   7.227  0.1835  2.6868  0.5029
   42CHL1  H19C 3077   3.038   6.135   7.398  0.6957  0.9061  0.8624
   42CHL1    C1 3078   3.271   5.985   7.205  0.2783  0.0319  0.3426
   42CHL1   H1A 3079   3.350   6.053   7.245  1.1235 -0.3825 -0.5764
   42CHL1   H1B 3080   3.307   5.880   7.205 -2.8887 -1.2927 -2.8999
   42CHL1    C2 3081   3.232   6.015   7.058 -0.2967 -0.3080 -0.0409
   42CHL1   H2A 3082   3.324   6.005   6.997 -0.9914 -2.1283 -0.8620
   42CHL1   H2B 3083   3.188   6.117   7.048  0.3830 -0.0439 -0.4106
   42CHL1   C20 3084   3.326   5.939   7.994  0.0296  0.3155 -0.6115
   42CHL1   H20 3085   3.255   6.017   8.029  1.2211  1.6430 -1.0154
   42CHL1   C21 3086   3.461   6.005   7.969 -0.4857  0.1605  0.0352
   42CHL1  H21A 3087   3.520   5.924   7.921 -1.0741 -0.9456  1.1254
   42CHL1  H21B 3088   3.502   6.032   8.069  0.2243  0.3628 -0.3025
   42CHL1  H21C 3089   3.442   6.094   7.906 -1.9808  0.3224  0.6788
   42CHL1   C22 3090   3.349   5.841   8.108  0.6145 -0.0795  0.0345
   42CHL1  H22A 3091   3.268   5.765   8.118 -1.9737  1.9801 -3.0704
   42CHL1  H22B 3092   3.444   5.785   8.100  0.1212 -0.9693  0.1908
   42CHL1   C23 3093   3.358   5.903   8.250 -0.9945  0.0418  0.3663
   42CHL1  H23A 3094   3.411   6.000   8.245  1.1998 -1.0347  1.0420
   42CHL1  H23B 3095   3.255   5.913   8.291 -2.2679  1.8557 -2.8992
   42CHL1   C24 3096   3.437   5.820   8.353  0.5805  0.2085  0.5232
   42CHL1  H24A 3097   3.405   5.714   8.339  1.4039 -0.0282  0.3772
   42CHL1  H24B 3098   3.545   5.820   8.328  0.5206 -0.0533  0.2573
   42CHL1   C25 3099   3.418   5.850   8.502 -0.1737 -0.3584  0.0617
   42CHL1   H25 3100   3.310   5.838   8.527 -0.6426 -1.0597 -2.1361
   42CHL1   C26 3101   3.503   5.749   8.585  0.0147  0.4769 -0.2768
   42CHL1  H26A 3102   3.453   5.751   8.684 -0.0442  2.6081 -0.2982
   42CHL1  H26B 3103   3.496   5.645   8.547  1.3996  0.8136 -1.5205
   42CHL1  H26C 3104   3.611   5.775   8.588  0.1141  0.5220 -2.4579
   42CHL1   C27 3105   3.473   5.989   8.531  0.3054 -0.8324 -0.1331
   42CHL1  H27A 3106   3.402   6.058   8.481 -0.8032 -0.9232  1.2574
   42CHL1  H27B 3107   3.568   5.998   8.475  1.6377 -2.4711  1.7443
   42CHL1  H27C 3108   3.494   6.013   8.638 -0.0766 -0.1532 -0.2023
   43CHL1    C3 3109   3.314   3.043   6.919 -0.1230 -0.1462  0.6609
   43CHL1    H3 3110   3.242   2.958   6.925 -1.9462  1.3092  0.3554
   43CHL1    O3 3111   3.361   3.036   6.787  0.5879  0.0011 -0.3000
   43CHL1   H3' 3112   3.298   2.982   6.739  0.6861  0.9373 -1.5407
   43CHL1    C4 3113   3.239   3.172   6.939 -0.3646  0.0606  0.3612
   43CHL1   H4A 3114   3.300   3.262   6.913 -0.6397  0.3850  0.8254
   43CHL1   H4B 3115   3.148   3.174   6.876  0.3999 -0.1176 -0.7798
   43CHL1    C5 3116   3.198   3.189   7.086 -0.0780 -0.4588  0.1329
   43CHL1    C6 3117   3.067   3.213   7.120 -0.4021 -0.0087  0.9070
   43CHL1    H6 3118   2.997   3.207   7.035  0.0850  0.3924  0.4767
   43CHL1    C7 3119   3.013   3.236   7.257 -0.2394  0.4164 -0.2430
   43CHL1   H7A 3120   2.951   3.328   7.255  0.0318  0.6145 -2.7522
   43CHL1   H7B 3121   2.947   3.154   7.292  2.4613 -1.3853  1.0121
   43CHL1    C8 3122   3.138   3.261   7.346 -0.4872 -0.3609 -0.0546
   43CHL1    H8 3123   3.178   3.362   7.323  3.4444 -1.7023  0.1354
   43CHL1   C14 3124   3.102   3.251   7.495 -0.1511 -0.4225  0.0998
   43CHL1   H14 3125   3.077   3.143   7.509  0.4634 -1.1843 -3.7580
   43CHL1   C15 3126   2.970   3.325   7.540 -0.7502  0.3181 -0.4193
   43CHL1  H15A 3127   2.984   3.434   7.522  2.7210 -0.0004 -0.4792
   43CHL1  H15B 3128   2.884   3.288   7.481  0.4799 -1.4236 -1.1945
   43CHL1   C16 3129   2.975   3.310   7.692  0.8604  0.2569  0.4443
   43CHL1  H16A 3130   2.966   3.410   7.739  0.8086  1.2669 -1.6340
   43CHL1  H16B 3131   2.888   3.248   7.725  0.1788  1.2527  0.5648
   43CHL1   C17 3132   3.107   3.234   7.728 -0.2626 -0.5447 -0.0555
   43CHL1   H17 3133   3.099   3.124   7.716  1.9044 -0.8873  1.1567
   43CHL1   C13 3134   3.199   3.276   7.612 -0.0111  0.3071 -0.0095
   43CHL1   C18 3135   3.255   3.424   7.617 -0.6190  0.9641  0.0261
   43CHL1  H18A 3136   3.171   3.488   7.652 -3.6290 -2.3467 -0.5748
   43CHL1  H18B 3137   3.343   3.440   7.683 -1.5575 -2.9725  2.5453
   43CHL1  H18C 3138   3.290   3.452   7.515 -1.6706  0.9070 -0.3632
   43CHL1   C12 3139   3.317   3.176   7.597 -0.4129 -0.6298 -0.1660
   43CHL1  H12A 3140   3.395   3.216   7.665 -1.8053 -0.0677  1.1487
   43CHL1  H12B 3141   3.289   3.072   7.622  1.1478 -0.8593  0.7427
   43CHL1   C11 3142   3.366   3.180   7.445  0.0614 -0.6668  0.0331
   43CHL1  H11A 3143   3.416   3.278   7.430  1.8785 -1.3351  1.3705
   43CHL1  H11B 3144   3.436   3.094   7.439  1.7050  0.5669  0.6742
   43CHL1    C9 3145   3.261   3.169   7.332  0.4167  0.0332  0.0679
   43CHL1    H9 3146   3.215   3.068   7.337  4.1519 -1.8428 -0.0744
   43CHL1   C10 3147   3.314   3.191   7.184  0.3625  0.4601  0.3761
   43CHL1   C19 3148   3.398   3.318   7.163  0.0736 -0.3123 -0.0461
   43CHL1  H19A 3149   3.336   3.408   7.188 -1.0692 -1.3721  1.0766
   43CHL1  H19B 3150   3.477   3.318   7.241 -0.7110 -1.5204  0.7819
   43CHL1  H19C 3151   3.448   3.343   7.067 -1.0692  1.6868 -0.1890
   43CHL1    C1 3152   3.394   3.061   7.153 -0.6631 -0.0800 -0.6890
   43CHL1   H1A 3153   3.487   3.053   7.215 -0.7180 -1.5558 -0.7713
   43CHL1   H1B 3154   3.324   2.978   7.178 -0.7670  0.1336 -0.2536
   43CHL1    C2 3155   3.434   3.029   7.012  0.1482  0.4466  0.0829
   43CHL1   H2A 3156   3.467   2.923   7.006  2.2728  0.7536  3.5771
   43CHL1   H2B 3157   3.512   3.098   6.972 -1.2727  0.6360 -2.5954
   43CHL1   C20 3158   3.157   3.263   7.871  0.9139  0.3091  1.0574
   43CHL1   H20 3159   3.178   3.371   7.888  1.3753 -0.0095  2.6959
   43CHL1   C21 3160   3.280   3.176   7.907 -0.1192 -0.6742 -0.3114
   43CHL1  H21A 3161   3.371   3.222   7.863  0.1217  1.6341  2.3070
   43CHL1  H21B 3162   3.262   3.070   7.878  0.1378 -0.7906 -0.0532
   43CHL1  H21C 3163   3.296   3.182   8.017 -1.8884  0.0874 -0.0618
   43CHL1   C22 3164   3.043   3.239   7.979 -0.0141  0.6726 -0.6454
   43CHL1  H22A 3165   3.076   3.246   8.085 -1.3436 -1.8164  0.0215
   43CHL1  H22B 3166   2.955   3.304   7.959  0.5469  1.2139 -1.3816
   43CHL1   C23 3167   2.983   3.095   7.974  0.6466 -0.1156 -0.8533
   43CHL1  H23A 3168   2.940   3.087   7.872  0.3969 -2.8535 -0.5870
   43CHL1  H23B 3169   3.063   3.018   7.970  0.2595 -0.4679 -3.5017
   43CHL1   C24 3170   2.868   3.055   8.070  0.0563 -0.4299  0.6541
   43CHL1  H24A 3171   2.778   3.091   8.017  0.0305 -1.5972 -0.1430
   43CHL1  H24B 3172   2.872   2.944   8.073  0.3874 -0.6507 -3.2517
   43CHL1   C25 3173   2.876   3.110   8.218  0.5740  0.6415 -0.6888
   43CHL1   H25 3174   2.894   3.219   8.217 -0.0433  0.7451 -1.0305
   43CHL1   C26 3175   2.734   3.089   8.273 -0.7891 -0.1033  0.0994
   43CHL1  H26A 3176   2.700   2.989   8.237  0.3828 -0.5980  0.3245
   43CHL1  H26B 3177   2.718   3.096   8.383  1.2287 -1.4322  0.5449
   43CHL1  H26C 3178   2.666   3.168   8.234 -0.8924 -0.1043  0.2767
   43CHL1   C27 3179   2.982   3.021   8.288 -0.6871 -0.6191  0.3520
   43CHL1  H27A 3180   2.995   3.052   8.394  0.3405 -0.9200  0.3185
   43CHL1  H27B 3181   2.953   2.914   8.290  0.4555 -0.9282  1.4616
   43CHL1  H27C 3182   3.081   3.034   8.241 -0.6184 -2.5203 -0.0977
   44CHL1    C3 3183   3.004   2.572   6.801  0.1557 -0.0043 -0.0131
   44CHL1    H3 3184   3.008   2.462   6.810  0.3273  0.0734  0.8639
   44CHL1    O3 3185   2.987   2.613   6.668 -0.2527 -0.0150 -0.4047
   44CHL1   H3' 3186   3.024   2.700   6.687  0.0033 -0.6444  2.4688
   44CHL1    C4 3187   2.884   2.634   6.886 -0.0967 -0.5527  0.5117
   44CHL1   H4A 3188   2.869   2.741   6.861  1.2210 -0.8278 -1.6826
   44CHL1   H4B 3189   2.797   2.579   6.845 -0.1290  0.6696 -1.1492
   44CHL1    C5 3190   2.905   2.620   7.033  0.8476  0.2744  0.4201
   44CHL1    C6 3191   2.815   2.548   7.110 -0.1164 -0.2509 -0.3316
   44CHL1    H6 3192   2.720   2.515   7.065  0.7949 -0.5343 -2.1182
   44CHL1    C7 3193   2.822   2.536   7.262  0.1245  0.0208  0.2171
   44CHL1   H7A 3194   2.733   2.579   7.313 -0.9825  2.5524 -3.4359
   44CHL1   H7B 3195   2.821   2.427   7.285  0.0495 -0.2364 -0.9191
   44CHL1    C8 3196   2.945   2.608   7.322 -0.6970 -0.6619  0.3552
   44CHL1    H8 3197   2.904   2.711   7.323 -0.1125 -0.4212  0.0276
   44CHL1   C14 3198   2.979   2.558   7.461  0.3066 -0.4055  0.5542
   44CHL1   H14 3199   3.025   2.458   7.446  0.4261 -0.1269 -1.0976
   44CHL1   C15 3200   2.859   2.545   7.563 -0.3349 -0.4458  0.3272
   44CHL1  H15A 3201   2.783   2.625   7.549  0.7200  0.4055 -0.7941
   44CHL1  H15B 3202   2.800   2.451   7.558  0.1391 -0.7170 -3.8569
   44CHL1   C16 3203   2.923   2.556   7.703  0.3919  0.7644 -0.1868
   44CHL1  H16A 3204   2.871   2.625   7.773  0.1297  1.2617 -0.8572
   44CHL1  H16B 3205   2.922   2.457   7.754 -0.7939  1.7760  1.8828
   44CHL1   C17 3206   3.073   2.592   7.672 -0.0683 -0.2182  0.1816
   44CHL1   H17 3207   3.132   2.498   7.660 -0.9280 -0.6743 -0.5252
   44CHL1   C13 3208   3.076   2.653   7.534 -0.4091  0.4536 -0.3720
   44CHL1   C18 3209   3.038   2.801   7.547 -0.8976  0.5922 -0.2417
   44CHL1  H18A 3210   2.944   2.803   7.606  0.3384  0.8416  1.7989
   44CHL1  H18B 3211   3.118   2.857   7.599  0.8287 -2.6573  0.8685
   44CHL1  H18C 3212   3.003   2.839   7.448 -2.6515 -2.3362 -0.8785
   44CHL1   C12 3213   3.208   2.630   7.449 -0.2535  0.5070  0.8754
   44CHL1  H12A 3214   3.299   2.668   7.500 -0.5972 -1.0176  2.7251
   44CHL1  H12B 3215   3.226   2.521   7.454  0.7520  0.6746  1.2847
   44CHL1   C11 3216   3.195   2.670   7.300 -0.2291 -0.6455  0.2829
   44CHL1  H11A 3217   3.188   2.781   7.290  0.1712 -0.7194 -0.9770
   44CHL1  H11B 3218   3.287   2.646   7.244 -0.1883  1.0224 -0.4365
   44CHL1    C9 3219   3.072   2.604   7.231  0.4709 -0.3971 -0.3455
   44CHL1    H9 3220   3.099   2.497   7.222  1.8220 -0.0982 -0.0459
   44CHL1   C10 3221   3.042   2.655   7.087 -0.2607 -0.1388  0.0253
   44CHL1   C19 3222   3.045   2.808   7.094  0.2019 -0.3530  0.2189
   44CHL1  H19A 3223   3.144   2.856   7.112 -1.3591  2.6737  1.6236
   44CHL1  H19B 3224   3.020   2.858   6.998 -0.6284 -4.6827 -2.0878
   44CHL1  H19C 3225   2.982   2.845   7.178  2.1475 -0.4534  1.7970
   44CHL1    C1 3226   3.156   2.601   6.991  0.0807  0.0207 -0.0403
   44CHL1   H1A 3227   3.248   2.649   7.032  0.3127 -1.0893  0.7930
   44CHL1   H1B 3228   3.170   2.491   6.995  3.0266  0.2448 -1.5997
   44CHL1    C2 3229   3.138   2.629   6.847  0.7248  0.6038  0.0583
   44CHL1   H2A 3230   3.221   2.578   6.793  0.7536 -2.1545  2.4530
   44CHL1   H2B 3231   3.143   2.738   6.828 -2.1771  0.8621  0.3482
   44CHL1   C20 3232   3.134   2.668   7.790  0.0503  0.1631 -0.9237
   44CHL1   H20 3233   3.062   2.747   7.819  0.3480 -0.8521  3.0705
   44CHL1   C21 3234   3.274   2.725   7.775 -0.8279 -0.1019  0.1885
   44CHL1  H21A 3235   3.354   2.648   7.772 -3.1261 -2.7090  1.4902
   44CHL1  H21B 3236   3.282   2.798   7.859 -1.3891 -1.6852  1.6746
   44CHL1  H21C 3237   3.293   2.791   7.688  1.2675  1.5352  1.7500
   44CHL1   C22 3238   3.140   2.580   7.921  0.2416  0.3514  0.0325
   44CHL1  H22A 3239   3.038   2.536   7.931 -0.0668  1.4217  2.1328
   44CHL1  H22B 3240   3.218   2.500   7.925  1.8349  1.8632  0.4402
   44CHL1   C23 3241   3.158   2.660   8.050 -0.0380 -0.4409 -0.6389
   44CHL1  H23A 3242   3.262   2.696   8.056 -0.2695  0.2097 -0.4022
   44CHL1  H23B 3243   3.089   2.747   8.061  1.9999  0.9672  1.8992
   44CHL1   C24 3244   3.115   2.581   8.178  0.1140  0.7270  0.9256
   44CHL1  H24A 3245   3.012   2.543   8.158  0.9976 -1.2186 -0.2465
   44CHL1  H24B 3246   3.185   2.496   8.194 -0.5656  0.1327  0.8124
   44CHL1   C25 3247   3.115   2.648   8.319  0.6111 -0.0196 -0.6500
   44CHL1   H25 3248   3.054   2.739   8.302  1.1180  0.3431 -0.5636
   44CHL1   C26 3249   3.050   2.560   8.428 -0.1942  0.0728 -0.1779
   44CHL1  H26A 3250   3.045   2.615   8.524  1.0564  1.5996 -0.9419
   44CHL1  H26B 3251   2.947   2.536   8.394 -0.8787  0.6068  1.4322
   44CHL1  H26C 3252   3.110   2.469   8.450 -0.8663 -0.5216 -0.7490
   44CHL1   C27 3253   3.258   2.691   8.372 -0.1467  0.5389  0.1448
   44CHL1  H27A 3254   3.261   2.777   8.443  5.0403 -1.2774  2.6418
   44CHL1  H27B 3255   3.309   2.601   8.411 -2.2040 -1.3261 -1.2174
   44CHL1  H27C 3256   3.326   2.714   8.288 -0.8198 -4.0376 -1.9337
   45CHL1    C3 3257   4.967   0.158   6.748 -0.0860  0.1887 -1.4338
   45CHL1    H3 3258   4.990   0.264   6.727  2.1036 -0.1680 -1.1268
   45CHL1    O3 3259   4.937   0.092   6.624 -0.0285 -0.2611  0.3986
   45CHL1   H3' 3260   4.957  -0.001   6.639 -1.3588 -0.3793  1.6551
   45CHL1    C4 3261   5.092   0.093   6.816  0.2542  0.3606 -0.3850
   45CHL1   H4A 3262   5.068  -0.012   6.843 -1.5124  1.0116  0.7546
   45CHL1   H4B 3263   5.178   0.080   6.747  0.4935 -2.5267  0.3230
   45CHL1    C5 3264   5.123   0.163   6.946  0.4267  0.0745  0.3011
   45CHL1    C6 3265   5.236   0.227   6.968 -0.2104  0.3930  0.4107
   45CHL1    H6 3266   5.307   0.227   6.885 -0.5646  0.0388  0.1045
   45CHL1    C7 3267   5.276   0.298   7.095  0.0859  0.1895  0.2510
   45CHL1   H7A 3268   5.378   0.259   7.118  0.6415 -1.3942 -4.0799
   45CHL1   H7B 3269   5.267   0.408   7.081 -0.6047 -0.0607 -1.5155
   45CHL1    C8 3270   5.182   0.246   7.214 -0.0195  0.3461  0.6314
   45CHL1    H8 3271   5.207   0.141   7.237  0.2218  0.3962  0.5916
   45CHL1   C14 3272   5.205   0.326   7.333 -1.0156 -1.2290  0.4774
   45CHL1   H14 3273   5.201   0.435   7.309 -0.9273 -1.1404  0.8459
   45CHL1   C15 3274   5.345   0.311   7.398  0.2295  0.3036 -0.2529
   45CHL1  H15A 3275   5.387   0.209   7.386  0.6199  0.6361 -1.9327
   45CHL1  H15B 3276   5.431   0.370   7.358  1.4858 -0.1078  1.6911
   45CHL1   C16 3277   5.332   0.355   7.546 -0.0748 -0.7111 -0.4973
   45CHL1  H16A 3278   5.381   0.272   7.601 -0.7696  0.9043  2.7901
   45CHL1  H16B 3279   5.396   0.441   7.574 -1.9101  0.6096 -0.1664
   45CHL1   C17 3280   5.178   0.376   7.575  0.2461  0.9736  0.9969
   45CHL1   H17 3281   5.145   0.482   7.566 -0.1722  0.8223  0.7048
   45CHL1   C13 3282   5.117   0.295   7.457  0.2311  0.7022  0.2807
   45CHL1   C18 3283   5.113   0.146   7.492 -0.4331 -0.1293 -0.2302
   45CHL1  H18A 3284   5.092   0.086   7.401 -3.2920  1.8500 -1.0195
   45CHL1  H18B 3285   5.212   0.110   7.527  0.2493  2.0244  0.2042
   45CHL1  H18C 3286   5.042   0.120   7.573  0.7503 -1.3608  0.4489
   45CHL1   C12 3287   4.976   0.339   7.414 -0.1995 -0.0532  0.2599
   45CHL1  H12A 3288   4.896   0.322   7.489  0.2110 -0.4339  0.6199
   45CHL1  H12B 3289   4.979   0.448   7.390  0.7064  0.3005  1.8089
   45CHL1   C11 3290   4.928   0.261   7.285  0.1126 -0.4991 -0.7715
   45CHL1  H11A 3291   4.892   0.160   7.315 -0.8896  0.4221  1.3500
   45CHL1  H11B 3292   4.830   0.303   7.253  1.0065  2.1658 -0.2408
   45CHL1    C9 3293   5.033   0.258   7.171 -0.2221 -0.4513  1.1669
   45CHL1    H9 3294   5.043   0.363   7.138  1.5182 -0.4958  1.4156
   45CHL1   C10 3295   5.004   0.169   7.046 -0.0228  0.2929 -0.0270
   45CHL1   C19 3296   4.963   0.031   7.096 -0.1594  0.8833  0.2270
   45CHL1  H19A 3297   4.944  -0.043   7.016  1.5699  0.2886  0.3186
   45CHL1  H19B 3298   5.048  -0.007   7.157 -1.7355 -1.0946  1.2792
   45CHL1  H19C 3299   4.872   0.035   7.159 -0.6313 -1.0516 -0.2943
   45CHL1    C1 3300   4.882   0.228   6.967 -0.2892 -0.2349 -0.4982
   45CHL1   H1A 3301   4.797   0.221   7.037  1.3815 -1.8242  1.4899
   45CHL1   H1B 3302   4.892   0.337   6.947 -0.3822 -0.1759 -0.2279
   45CHL1    C2 3303   4.846   0.150   6.841 -0.7426 -0.1285 -0.0840
   45CHL1   H2A 3304   4.768   0.194   6.775 -0.2186 -0.1393 -0.7257
   45CHL1   H2B 3305   4.826   0.044   6.866  0.0053 -0.4574 -0.8108
   45CHL1   C20 3306   5.141   0.326   7.721  0.3194  0.0229 -0.2293
   45CHL1   H20 3307   5.166   0.218   7.724 -0.7365 -0.2769 -1.2288
   45CHL1   C21 3308   4.987   0.340   7.749  0.3947 -0.6087  0.5631
   45CHL1  H21A 3309   4.965   0.341   7.858  2.4840  0.3840  1.0354
   45CHL1  H21B 3310   4.936   0.261   7.690  2.5999  0.1455 -2.6230
   45CHL1  H21C 3311   4.954   0.437   7.705  0.2876 -1.7322 -2.0418
   45CHL1   C22 3312   5.231   0.387   7.829  0.0758 -0.3531  0.2416
   45CHL1  H22A 3313   5.214   0.328   7.922 -0.1614  1.7293  1.5811
   45CHL1  H22B 3314   5.338   0.366   7.812  0.5884  2.0312  0.1127
   45CHL1   C23 3315   5.206   0.536   7.859 -0.0882  0.6911 -0.5173
   45CHL1  H23A 3316   5.225   0.587   7.762 -2.0772  3.3782  0.4022
   45CHL1  H23B 3317   5.100   0.564   7.878 -0.0934  0.1367  0.3141
   45CHL1   C24 3318   5.302   0.589   7.964  0.6063  0.2413 -0.4025
   45CHL1  H24A 3319   5.403   0.555   7.932 -0.2030 -0.7958 -2.0224
   45CHL1  H24B 3320   5.308   0.700   7.962 -1.3483  0.3883 -0.3027
   45CHL1   C25 3321   5.285   0.534   8.110  0.4796 -0.4507  0.0443
   45CHL1   H25 3322   5.259   0.427   8.109  0.6905 -0.5211  1.1445
   45CHL1   C26 3323   5.427   0.536   8.176 -0.1478  0.1308  0.3975
   45CHL1  H26A 3324   5.477   0.634   8.190 -0.6588  0.9410 -2.7792
   45CHL1  H26B 3325   5.415   0.502   8.282 -3.0458  1.0371  0.4441
   45CHL1  H26C 3326   5.500   0.469   8.127  0.5632 -0.8366  2.6181
   45CHL1   C27 3327   5.176   0.618   8.196 -0.1422  0.5455  0.0764
   45CHL1  H27A 3328   5.086   0.625   8.131 -0.0521  2.5066  0.0833
   45CHL1  H27B 3329   5.151   0.558   8.286  1.8879 -0.9809 -0.2987
   45CHL1  H27C 3330   5.214   0.720   8.221  2.2629 -0.1231 -0.5358
   46CHL1    C3 3331   4.879   2.076   6.852 -0.0271 -0.6475  0.1484
   46CHL1    H3 3332   4.933   1.981   6.869  0.4439 -0.2891  0.7104
   46CHL1    O3 3333   4.922   2.124   6.725 -0.7059  0.0913 -0.2519
   46CHL1   H3' 3334   5.015   2.146   6.731 -0.5596  0.1786 -2.2098
   46CHL1    C4 3335   4.728   2.071   6.854  0.2227 -0.2567  0.2031
   46CHL1   H4A 3336   4.694   2.168   6.811 -0.4986 -0.3738  0.4988
   46CHL1   H4B 3337   4.703   1.985   6.788  2.3832 -1.1006  0.4141
   46CHL1    C5 3338   4.658   2.065   6.990  0.1299 -0.1130 -0.2753
   46CHL1    C6 3339   4.567   1.970   7.006 -0.7423 -0.3044 -0.0360
   46CHL1    H6 3340   4.548   1.908   6.916 -1.7841  0.6794 -0.5245
   46CHL1    C7 3341   4.490   1.958   7.133  0.7689 -0.2393 -0.0164
   46CHL1   H7A 3342   4.380   1.956   7.121  0.8596  0.8315 -1.1366
   46CHL1   H7B 3343   4.515   1.865   7.190  1.9100  0.9642  1.5326
   46CHL1    C8 3344   4.510   2.077   7.235 -0.3424  0.2638 -0.2226
   46CHL1    H8 3345   4.454   2.164   7.194 -1.3393  0.1042  0.7484
   46CHL1   C14 3346   4.464   2.040   7.374 -0.5040  0.2001  0.0471
   46CHL1   H14 3347   4.525   1.952   7.402 -1.1175  1.1221  5.2649
   46CHL1   C15 3348   4.317   2.000   7.398 -0.0259  0.8680  0.1433
   46CHL1  H15A 3349   4.254   2.077   7.347  1.9174  2.1816 -0.3935
   46CHL1  H15B 3350   4.290   1.902   7.355  0.9383  2.0680 -3.6413
   46CHL1   C16 3351   4.289   2.021   7.551  0.4452 -0.2922  0.2662
   46CHL1  H16A 3352   4.200   2.087   7.550  2.6487  2.9660  1.8778
   46CHL1  H16B 3353   4.265   1.926   7.604 -0.8789  0.7070  1.5378
   46CHL1   C17 3354   4.413   2.089   7.611  0.0388 -0.2964  0.7990
   46CHL1   H17 3355   4.487   2.017   7.650  0.6276  0.4438  1.0660
   46CHL1   C13 3356   4.487   2.146   7.482 -0.1742  0.3337  0.5380
   46CHL1   C18 3357   4.408   2.275   7.439  0.1165  0.2015 -0.2299
   46CHL1  H18A 3358   4.438   2.325   7.345  2.2324  0.8096  0.7140
   46CHL1  H18B 3359   4.297   2.271   7.442 -0.1349  3.5857 -1.4096
   46CHL1  H18C 3360   4.427   2.362   7.506 -0.3411  2.0806 -2.4141
   46CHL1   C12 3361   4.639   2.171   7.492 -0.1223  0.0693 -0.5315
   46CHL1  H12A 3362   4.667   2.257   7.556 -2.2471  0.8504 -0.5782
   46CHL1  H12B 3363   4.686   2.081   7.537 -0.5278 -0.0900 -0.4205
   46CHL1   C11 3364   4.686   2.214   7.351 -0.3445  0.7410 -0.4832
   46CHL1  H11A 3365   4.633   2.308   7.323  0.0277  0.4729 -2.2238
   46CHL1  H11B 3366   4.796   2.230   7.354 -0.0602 -1.0362  2.3515
   46CHL1    C9 3367   4.659   2.114   7.237  0.1312  0.3479 -0.1733
   46CHL1    H9 3368   4.712   2.021   7.269  0.1773  0.0983 -0.9405
   46CHL1   C10 3369   4.706   2.156   7.100 -0.7904 -0.4272  0.0198
   46CHL1   C19 3370   4.664   2.301   7.066 -0.0743 -0.8673 -0.0181
   46CHL1  H19A 3371   4.560   2.317   7.100 -0.4076 -0.9886 -0.9465
   46CHL1  H19B 3372   4.719   2.381   7.120 -0.2625 -0.4854 -0.3920
   46CHL1  H19C 3373   4.676   2.338   6.962  1.0042 -2.2544 -0.4165
   46CHL1    C1 3374   4.866   2.156   7.094  0.5839 -0.8110  0.5924
   46CHL1   H1A 3375   4.898   2.242   7.157  0.8645 -0.0069 -0.6137
   46CHL1   H1B 3376   4.904   2.061   7.136  2.0860 -0.1841  0.7084
   46CHL1    C2 3377   4.931   2.175   6.962  0.0192 -0.3898  0.2065
   46CHL1   H2A 3378   5.040   2.160   6.973 -0.0641  0.1816  2.1797
   46CHL1   H2B 3379   4.920   2.280   6.926  0.1108 -0.8748 -1.3204
   46CHL1   C20 3380   4.381   2.184   7.722  0.7475  0.0202  1.1328
   46CHL1   H20 3381   4.322   2.275   7.698  1.2695  0.1321  0.1914
   46CHL1   C21 3382   4.509   2.236   7.791 -0.5884 -0.0535 -0.4407
   46CHL1  H21A 3383   4.566   2.150   7.831 -2.9313 -0.4988  2.2640
   46CHL1  H21B 3384   4.491   2.298   7.882  0.7128 -0.1378 -0.1034
   46CHL1  H21C 3385   4.568   2.308   7.730  0.1021  2.7474  3.1269
   46CHL1   C22 3386   4.280   2.125   7.828  1.0999  0.4161  0.4468
   46CHL1  H22A 3387   4.190   2.094   7.771  1.7700 -0.4780 -0.1536
   46CHL1  H22B 3388   4.323   2.030   7.865  2.8418  0.2247 -1.8572
   46CHL1   C23 3389   4.242   2.219   7.939  0.2853 -0.3099  0.6565
   46CHL1  H23A 3390   4.312   2.210   8.025  0.1872  1.1507  0.9190
   46CHL1  H23B 3391   4.245   2.327   7.912  3.2759 -0.0522  1.6324
   46CHL1   C24 3392   4.101   2.188   8.006 -0.0927 -0.9329 -0.2497
   46CHL1  H24A 3393   4.024   2.199   7.927 -0.6386 -2.7689 -0.0417
   46CHL1  H24B 3394   4.117   2.082   8.036  2.1218 -1.0111 -1.5334
   46CHL1   C25 3395   4.053   2.267   8.137 -0.0768  0.0740 -0.0575
   46CHL1   H25 3396   4.123   2.256   8.222 -0.8450  2.8421  1.0523
   46CHL1   C26 3397   4.032   2.416   8.097  0.0047  1.1480 -0.1682
   46CHL1  H26A 3398   4.133   2.458   8.080  0.5224  0.3766  0.8987
   46CHL1  H26B 3399   3.976   2.422   8.001 -0.0522 -2.8312 -0.5311
   46CHL1  H26C 3400   3.972   2.464   8.178 -2.4541 -2.0364  0.1156
   46CHL1   C27 3401   3.920   2.208   8.180 -0.2521  0.3320  0.4244
   46CHL1  H27A 3402   3.871   2.258   8.267  1.3470  0.1545  1.4735
   46CHL1  H27B 3403   3.844   2.204   8.100  1.0258 -0.9899 -0.7812
   46CHL1  H27C 3404   3.939   2.104   8.213 -0.2906  0.6746  1.5880
   47CHL1    C3 3405   3.446   1.724   6.881  0.1043  0.0757  0.0507
   47CHL1    H3 3406   3.426   1.617   6.903  1.2153  0.0678  1.1638
   47CHL1    O3 3407   3.476   1.723   6.738 -0.4887 -0.4959 -0.0520
   47CHL1   H3' 3408   3.471   1.816   6.714 -1.3814 -0.7603 -0.9628
   47CHL1    C4 3409   3.326   1.814   6.916  1.0068  0.1281  0.1871
   47CHL1   H4A 3410   3.351   1.922   6.902 -0.5835  0.5005  0.1020
   47CHL1   H4B 3411   3.243   1.796   6.845  1.7236 -1.0799 -0.3819
   47CHL1    C5 3412   3.296   1.785   7.062 -0.3914  0.1209  0.0770
   47CHL1    C6 3413   3.175   1.748   7.102 -0.3608 -0.1950 -0.2695
   47CHL1    H6 3414   3.097   1.744   7.025 -1.0271 -3.4663  0.4190
   47CHL1    C7 3415   3.133   1.726   7.244  0.0620  0.4988 -0.2885
   47CHL1   H7A 3416   3.035   1.769   7.271 -0.0112  0.2567 -0.1722
   47CHL1   H7B 3417   3.119   1.616   7.246  2.7501  0.0050 -1.9515
   47CHL1    C8 3418   3.233   1.768   7.359 -0.0438 -0.1023 -0.2428
   47CHL1    H8 3419   3.231   1.878   7.376 -2.4414 -0.3017  1.2282
   47CHL1   C14 3420   3.208   1.696   7.489 -0.1697 -0.3075  0.2445
   47CHL1   H14 3421   3.231   1.589   7.470  0.8016 -0.2981  1.2235
   47CHL1   C15 3422   3.070   1.684   7.558  0.0448  0.0166 -0.2761
   47CHL1  H15A 3423   3.032   1.788   7.554 -1.4075 -0.4787 -0.0030
   47CHL1  H15B 3424   3.003   1.616   7.502 -1.9771  0.9106  0.9619
   47CHL1   C16 3425   3.100   1.645   7.702  0.1486  0.2091  1.0510
   47CHL1  H16A 3426   3.047   1.718   7.767  0.3518  2.7084 -1.3637
   47CHL1  H16B 3427   3.068   1.541   7.720  0.1249  0.1088  0.4477
   47CHL1   C17 3428   3.254   1.642   7.714  0.5647 -0.1451  0.0974
   47CHL1   H17 3429   3.282   1.537   7.690 -1.0906 -1.1123  2.1215
   47CHL1   C13 3430   3.312   1.731   7.601 -0.3111 -0.4795  0.2499
   47CHL1   C18 3431   3.307   1.885   7.644  0.1164  0.2213 -0.3165
   47CHL1  H18A 3432   3.382   1.898   7.726 -0.2879  1.8648 -0.1735
   47CHL1  H18B 3433   3.341   1.956   7.565  1.4955  0.0301  0.0752
   47CHL1  H18C 3434   3.202   1.901   7.676  0.1157  0.7595 -0.5795
   47CHL1   C12 3435   3.453   1.679   7.548 -0.7312  0.1069 -0.3778
   47CHL1  H12A 3436   3.540   1.719   7.605  0.2593 -2.8867  0.4214
   47CHL1  H12B 3437   3.462   1.570   7.532 -0.8245 -0.0992  0.8441
   47CHL1   C11 3438   3.492   1.752   7.420  0.5988  0.3779 -0.6938
   47CHL1  H11A 3439   3.503   1.861   7.434 -0.6603  0.4881 -0.3987
   47CHL1  H11B 3440   3.589   1.713   7.384  0.5429  0.0854 -0.5371
   47CHL1    C9 3441   3.381   1.738   7.307  0.3612 -0.6839 -0.1767
   47CHL1    H9 3442   3.383   1.629   7.286  3.9596 -0.2671 -3.0703
   47CHL1   C10 3443   3.418   1.799   7.164  0.3644 -0.1396  0.3019
   47CHL1   C19 3444   3.437   1.952   7.188  0.6993  0.0773 -0.7682
   47CHL1  H19A 3445   3.482   1.993   7.095  0.8733 -0.6309 -1.0027
   47CHL1  H19B 3446   3.344   2.007   7.215  0.1987 -0.2978 -1.6644
   47CHL1  H19C 3447   3.514   1.976   7.264 -2.1088  3.4062  1.3369
   47CHL1    C1 3448   3.548   1.741   7.109 -1.5345  0.8155 -0.5779
   47CHL1   H1A 3449   3.636   1.775   7.168  1.0743 -1.5563 -2.8294
   47CHL1   H1B 3450   3.538   1.630   7.111 -0.4908  0.6584 -2.1983
   47CHL1    C2 3451   3.574   1.764   6.956 -0.0499 -0.2782 -0.0846
   47CHL1   H2A 3452   3.656   1.697   6.921  0.2401  1.6003 -3.3699
   47CHL1   H2B 3453   3.598   1.870   6.932  0.0783 -0.3475 -0.2658
   47CHL1   C20 3454   3.296   1.679   7.860 -0.0717  0.3562  0.0954
   47CHL1   H20 3455   3.285   1.788   7.880  1.9671  0.3419  1.5824
   47CHL1   C21 3456   3.445   1.653   7.876  0.4606 -0.2107  0.0268
   47CHL1  H21A 3457   3.469   1.561   7.817  0.1202 -0.7813  0.7634
   47CHL1  H21B 3458   3.469   1.628   7.981 -0.1947  1.3062  0.5545
   47CHL1  H21C 3459   3.501   1.736   7.828  0.6967 -0.1633  0.3871
   47CHL1   C22 3460   3.218   1.601   7.971 -0.7406 -0.1281 -0.5390
   47CHL1  H22A 3461   3.109   1.609   7.949 -0.8531 -0.1576 -0.0161
   47CHL1  H22B 3462   3.253   1.496   7.964 -1.7776 -0.6404  1.2456
   47CHL1   C23 3463   3.230   1.662   8.116 -0.4685  0.5232  0.0521
   47CHL1  H23A 3464   3.328   1.631   8.156 -1.3265 -3.4567 -0.5187
   47CHL1  H23B 3465   3.218   1.772   8.108 -0.2693  0.5444  0.0539
   47CHL1   C24 3466   3.111   1.617   8.205  0.2860  0.8008  0.0703
   47CHL1  H24A 3467   3.011   1.613   8.158  0.4472 -4.1037 -0.3387
   47CHL1  H24B 3468   3.115   1.507   8.223  0.6748  0.5113 -1.5875
   47CHL1   C25 3469   3.087   1.697   8.334  0.3520  0.2279 -0.1426
   47CHL1   H25 3470   3.085   1.805   8.309  3.4525 -0.0770 -2.2141
   47CHL1   C26 3471   2.955   1.661   8.393 -0.0929  0.3281 -0.1134
   47CHL1  H26A 3472   2.945   1.719   8.487  1.4637  0.7119 -0.1656
   47CHL1  H26B 3473   2.866   1.690   8.334 -1.2673  1.6082  2.1312
   47CHL1  H26C 3474   2.958   1.553   8.421 -0.4981  0.4645  0.4774
   47CHL1   C27 3475   3.204   1.687   8.445  0.0061 -0.9546 -0.2490
   47CHL1  H27A 3476   3.206   1.587   8.491 -0.6902 -1.0866 -0.4940
   47CHL1  H27B 3477   3.303   1.714   8.402  0.1421  0.5568  0.9113
   47CHL1  H27C 3478   3.186   1.764   8.523  0.0684 -2.1185  0.9491
   48CHL1    C3 3479   0.836   4.221   6.563  0.0254 -0.1365  0.4195
   48CHL1    H3 3480   0.936   4.173   6.555 -0.2338 -0.3447 -2.9920
   48CHL1    O3 3481   0.792   4.245   6.431  0.5391 -0.3270  0.1109
   48CHL1   H3' 3482   0.838   4.326   6.409  0.5314  0.2781  2.0760
   48CHL1    C4 3483   0.739   4.122   6.630  0.7137 -0.2373  0.1709
   48CHL1   H4A 3484   0.635   4.162   6.629  0.1745 -1.5128  1.2031
   48CHL1   H4B 3485   0.738   4.030   6.569 -1.7462  0.2085 -0.5632
   48CHL1    C5 3486   0.777   4.095   6.776  0.6960  0.1889 -0.0565
   48CHL1    C6 3487   0.805   3.976   6.823  0.0875  0.0694 -0.2639
   48CHL1    H6 3488   0.795   3.895   6.749 -1.2114  0.9267 -1.0789
   48CHL1    C7 3489   0.845   3.950   6.969  0.5953 -0.5024 -0.9167
   48CHL1   H7A 3490   0.800   3.862   7.019  0.0948  0.9466  1.3434
   48CHL1   H7B 3491   0.956   3.950   6.980  1.0449  3.4616 -3.4777
   48CHL1    C8 3492   0.792   4.071   7.059  0.6659  0.8215 -0.2539
   48CHL1    H8 3493   0.682   4.080   7.061  0.7183  1.4266 -0.1145
   48CHL1   C14 3494   0.845   4.054   7.198  0.0511 -0.1337 -0.6828
   48CHL1   H14 3495   0.955   4.060   7.186  0.2607 -1.7939  0.1289
   48CHL1   C15 3496   0.823   3.926   7.280 -0.0772  0.1418  0.7729
   48CHL1  H15A 3497   0.714   3.907   7.288  0.0313 -0.5848  0.6036
   48CHL1  H15B 3498   0.877   3.835   7.245 -3.0166 -1.4574  0.1083
   48CHL1   C16 3499   0.874   3.962   7.418  0.1966 -0.4082 -0.5171
   48CHL1  H16A 3500   0.799   3.920   7.487 -1.1137  1.2942 -0.8322
   48CHL1  H16B 3501   0.973   3.912   7.426  0.8537  0.6152 -1.7927
   48CHL1   C17 3502   0.884   4.119   7.431  0.3874 -0.2604  0.1850
   48CHL1   H17 3503   0.993   4.139   7.415  0.8440 -1.1709  1.8993
   48CHL1   C13 3504   0.812   4.163   7.306  0.5680 -0.5093  0.6427
   48CHL1   C18 3505   0.662   4.167   7.341  0.5755 -1.0769  0.1950
   48CHL1  H18A 3506   0.594   4.168   7.253 -0.2425  0.9607  0.7906
   48CHL1  H18B 3507   0.640   4.075   7.399  0.5231 -0.2014  1.6103
   48CHL1  H18C 3508   0.630   4.257   7.398 -1.6814 -1.0953 -0.9155
   48CHL1   C12 3509   0.863   4.293   7.246  0.6819 -0.0867  0.4647
   48CHL1  H12A 3510   0.850   4.379   7.315 -2.0271 -0.3275  0.3657
   48CHL1  H12B 3511   0.973   4.286   7.234  0.9756  0.3273  2.5870
   48CHL1   C11 3512   0.813   4.327   7.101 -0.1206  0.0449  0.4201
   48CHL1  H11A 3513   0.703   4.341   7.105 -0.3403 -0.7099 -1.6886
   48CHL1  H11B 3514   0.867   4.418   7.066  1.4188 -1.2321 -0.7131
   48CHL1    C9 3515   0.835   4.203   7.005 -0.3476  0.0519 -0.2278
   48CHL1    H9 3516   0.946   4.196   6.999 -0.5458 -3.9102 -3.3962
   48CHL1   C10 3517   0.779   4.228   6.859 -0.3758  0.1202  0.3739
   48CHL1   C19 3518   0.636   4.282   6.871 -0.2152 -0.2040  0.3302
   48CHL1  H19A 3519   0.604   4.302   6.767  0.5760 -0.2322  0.0766
   48CHL1  H19B 3520   0.564   4.216   6.924 -1.3341  0.6562 -0.0512
   48CHL1  H19C 3521   0.631   4.382   6.920 -1.7745 -0.3301  0.4973
   48CHL1    C1 3522   0.858   4.337   6.786 -1.1426  0.8912 -0.6254
   48CHL1   H1A 3523   0.856   4.428   6.850 -1.9335 -0.9154  2.0473
   48CHL1   H1B 3524   0.963   4.300   6.792 -1.6088 -0.2436  1.6046
   48CHL1    C2 3525   0.839   4.355   6.637 -0.4595  0.1716  0.0286
   48CHL1   H2A 3526   0.925   4.415   6.601  1.9533 -1.8629  2.0168
   48CHL1   H2B 3527   0.738   4.396   6.617  0.1704  1.1126 -1.3653
   48CHL1   C20 3528   0.841   4.176   7.570  0.0081  0.2116 -0.0691
   48CHL1   H20 3529   0.733   4.153   7.579 -0.0119 -0.4848 -1.7618
   48CHL1   C21 3530   0.853   4.332   7.577 -1.0882  0.5715  0.0804
   48CHL1  H21A 3531   0.950   4.367   7.537 -1.2444  4.1523  2.3905
   48CHL1  H21B 3532   0.833   4.359   7.683  0.0463  0.4648  0.3348
   48CHL1  H21C 3533   0.773   4.367   7.508 -0.1843 -2.1727 -2.5613
   48CHL1   C22 3534   0.923   4.111   7.682 -1.0221  0.7960  0.0924
   48CHL1  H22A 3535   0.903   4.002   7.675 -3.4696  1.2577 -1.0744
   48CHL1  H22B 3536   1.032   4.130   7.666 -1.0458  2.0855  1.2862
   48CHL1   C23 3537   0.898   4.147   7.829  0.1227  0.2116  0.6791
   48CHL1  H23A 3538   0.930   4.068   7.900  1.5916 -0.8708 -1.1144
   48CHL1  H23B 3539   0.943   4.247   7.850  2.7399 -0.3631 -1.7016
   48CHL1   C24 3540   0.745   4.156   7.862 -0.4486  0.0064 -0.4355
   48CHL1  H24A 3541   0.694   4.242   7.813 -0.1489 -0.7798 -2.2007
   48CHL1  H24B 3542   0.706   4.066   7.808  1.3378 -0.0348 -1.7659
   48CHL1   C25 3543   0.705   4.164   8.013  0.6115 -0.0610  1.0148
   48CHL1   H25 3544   0.733   4.267   8.044  2.5901 -0.5358  0.9553
   48CHL1   C26 3545   0.556   4.135   8.021  0.1026  0.6810  0.2399
   48CHL1  H26A 3546   0.526   4.114   8.126  1.9097 -1.2168  0.4415
   48CHL1  H26B 3547   0.492   4.209   7.968  0.8212 -0.2974 -2.1519
   48CHL1  H26C 3548   0.531   4.040   7.969  2.8195 -1.9831  3.3686
   48CHL1   C27 3549   0.788   4.073   8.103 -0.2194  0.5045  0.7517
   48CHL1  H27A 3550   0.751   4.077   8.207  1.1024  0.0817  1.2671
   48CHL1  H27B 3551   0.789   3.967   8.070  0.4578 -0.0283  2.4026
   48CHL1  H27C 3552   0.891   4.114   8.109 -0.7227  1.6247  2.3255
   49CHL1    C3 3553   6.614   4.641   6.833  0.6970  0.1986  0.2443
   49CHL1    H3 3554   6.581   4.535   6.839  0.3331  0.2784 -0.2776
   49CHL1    O3 3555   6.602   4.672   6.694 -0.1654  0.0266 -0.3736
   49CHL1   H3' 3556   6.683   4.720   6.677  0.6930 -0.6378  1.5390
   49CHL1    C4 3557   6.519   4.739   6.899  0.1218  0.1246  0.0065
   49CHL1   H4A 3558   6.549   4.844   6.877 -2.1876  0.6745 -0.7345
   49CHL1   H4B 3559   6.418   4.722   6.858 -0.1077 -1.0205  0.9840
   49CHL1    C5 3560   6.531   4.723   7.047 -0.4667  0.4599 -0.1376
   49CHL1    C6 3561   6.422   4.697   7.123  0.2633  0.3459  0.4496
   49CHL1    H6 3562   6.320   4.685   7.083 -0.4481  0.5404  2.1465
   49CHL1    C7 3563   6.434   4.689   7.268 -0.1945 -0.0879  0.7126
   49CHL1   H7A 3564   6.348   4.746   7.311  0.6908  0.9505  1.1348
   49CHL1   H7B 3565   6.432   4.583   7.300  1.9917  0.1307  1.7056
   49CHL1    C8 3566   6.565   4.747   7.333  0.1651  0.4513  0.0025
   49CHL1    H8 3567   6.559   4.857   7.328  2.3380  0.5649 -1.0059
   49CHL1   C14 3568   6.582   4.696   7.475 -0.6704 -0.0179 -0.0044
   49CHL1   H14 3569   6.587   4.585   7.474  1.2141  0.0065  1.0896
   49CHL1   C15 3570   6.469   4.736   7.566  0.4959  0.2305  0.5699
   49CHL1  H15A 3571   6.424   4.837   7.551  0.8218  0.3184  0.1642
   49CHL1  H15B 3572   6.392   4.657   7.561  1.3200 -0.5141 -1.2239
   49CHL1   C16 3573   6.532   4.712   7.703 -0.4108 -0.5581 -0.1147
   49CHL1  H16A 3574   6.510   4.800   7.768 -2.7698  0.0406 -1.5692
   49CHL1  H16B 3575   6.478   4.628   7.752 -1.5002  0.7691  1.0797
   49CHL1   C17 3576   6.676   4.673   7.689 -1.1070 -0.2088  0.2730
   49CHL1   H17 3577   6.685   4.563   7.678 -1.6191 -0.2284  0.0358
   49CHL1   C13 3578   6.709   4.732   7.554  0.3044 -1.1422  0.0980
   49CHL1   C18 3579   6.719   4.887   7.573 -0.0104  0.3779  0.5988
   49CHL1  H18A 3580   6.636   4.926   7.636 -1.1588 -2.7396  1.1813
   49CHL1  H18B 3581   6.811   4.924   7.625  1.3653 -0.5946 -1.0387
   49CHL1  H18C 3582   6.703   4.947   7.481  0.9147 -0.8378 -0.3971
   49CHL1   C12 3583   6.834   4.682   7.469 -0.0124  0.4417 -0.6614
   49CHL1  H12A 3584   6.927   4.719   7.517  0.8980 -2.1627 -0.2697
   49CHL1  H12B 3585   6.835   4.571   7.476 -2.1132  0.4134 -0.0818
   49CHL1   C11 3586   6.825   4.726   7.327  0.4468 -0.5439  0.6236
   49CHL1  H11A 3587   6.846   4.835   7.323  0.2778 -0.5059  0.7513
   49CHL1  H11B 3588   6.907   4.679   7.269 -1.1821 -2.5134 -0.1928
   49CHL1    C9 3589   6.689   4.703   7.258 -0.3791  0.2121  0.0635
   49CHL1    H9 3590   6.681   4.592   7.260 -0.7037  0.2435  0.8847
   49CHL1   C10 3591   6.676   4.749   7.104  1.1053  0.1088 -0.3389
   49CHL1   C19 3592   6.734   4.888   7.092  0.5691 -0.2954  0.4990
   49CHL1  H19A 3593   6.687   4.964   7.159 -0.2932  1.0645 -1.5392
   49CHL1  H19B 3594   6.844   4.890   7.103  0.6713 -0.5331 -0.3872
   49CHL1  H19C 3595   6.721   4.920   6.986 -2.7372 -0.0616  0.8647
   49CHL1    C1 3596   6.770   4.656   7.023  0.0868  0.2019 -0.2888
   49CHL1   H1A 3597   6.870   4.691   7.056 -0.9483  2.3557  0.7972
   49CHL1   H1B 3598   6.745   4.553   7.056  0.9540  0.3897  1.0159
   49CHL1    C2 3599   6.753   4.663   6.873 -0.0438  0.4846  0.3607
   49CHL1   H2A 3600   6.823   4.594   6.820 -0.0259  0.8676 -0.1275
   49CHL1   H2B 3601   6.788   4.761   6.833  0.2335 -0.2403 -1.2340
   49CHL1   C20 3602   6.765   4.711   7.812 -0.4607  0.0493 -1.1789
   49CHL1   H20 3603   6.782   4.820   7.817 -2.4261  0.3465  0.8920
   49CHL1   C21 3604   6.905   4.642   7.799 -0.0755 -0.0019  0.2717
   49CHL1  H21A 3605   6.895   4.539   7.761  4.3690  0.4995 -3.1087
   49CHL1  H21B 3606   6.967   4.645   7.892 -0.8196 -1.9962  0.8794
   49CHL1  H21C 3607   6.961   4.699   7.722 -2.9141  0.0159 -1.9169
   49CHL1   C22 3608   6.692   4.662   7.938 -0.6203 -0.0333  0.1567
   49CHL1  H22A 3609   6.612   4.734   7.964  0.0212  0.6809  0.1927
   49CHL1  H22B 3610   6.655   4.559   7.916 -0.6660  0.2004 -0.8857
   49CHL1   C23 3611   6.773   4.647   8.070  0.0487  0.2033 -0.4710
   49CHL1  H23A 3612   6.824   4.549   8.076 -2.4428 -1.0738  1.2819
   49CHL1  H23B 3613   6.855   4.723   8.072  0.8382 -0.5322 -2.3047
   49CHL1   C24 3614   6.678   4.653   8.179  0.8164 -0.2575 -0.6068
   49CHL1  H24A 3615   6.612   4.743   8.180  1.8912  0.6510  2.6194
   49CHL1  H24B 3616   6.611   4.567   8.157 -0.2753  0.5055 -0.3881
   49CHL1   C25 3617   6.745   4.645   8.317 -0.2574  0.2988  0.2087
   49CHL1   H25 3618   6.821   4.564   8.305 -0.1653  0.5360 -0.8993
   49CHL1   C26 3619   6.813   4.780   8.347 -0.2761  0.6336  0.0557
   49CHL1  H26A 3620   6.909   4.806   8.298 -0.3056 -0.3034 -0.5149
   49CHL1  H26B 3621   6.734   4.856   8.332 -0.5157  0.3643 -0.0606
   49CHL1  H26C 3622   6.846   4.784   8.453 -0.7122 -0.0278  0.2242
   49CHL1   C27 3623   6.637   4.604   8.421  0.1644 -0.1817 -0.4435
   49CHL1  H27A 3624   6.548   4.669   8.419  0.2601 -0.0654 -1.0429
   49CHL1  H27B 3625   6.611   4.498   8.401 -1.4487  0.2523 -0.7784
   49CHL1  H27C 3626   6.690   4.611   8.518 -0.1758  3.7565 -0.4062
   50CHL1    C3 3627   6.570   5.392   6.865 -0.5622  0.0393 -0.1272
   50CHL1    H3 3628   6.466   5.371   6.896 -0.0760 -1.9309  0.3120
   50CHL1    O3 3629   6.582   5.405   6.725  0.3379  0.6207 -0.6344
   50CHL1   H3' 3630   6.658   5.350   6.708 -0.1062  0.3283 -1.7635
   50CHL1    C4 3631   6.612   5.531   6.931  0.5046 -0.1853  0.2017
   50CHL1   H4A 3632   6.708   5.557   6.883  0.7087 -0.9147  0.2041
   50CHL1   H4B 3633   6.523   5.595   6.912 -0.0936 -0.7887  0.8655
   50CHL1    C5 3634   6.617   5.519   7.081  0.1038 -0.3319 -0.5185
   50CHL1    C6 3635   6.544   5.599   7.162  0.0488  0.0043 -0.2406
   50CHL1    H6 3636   6.478   5.671   7.111  2.5070  2.8443  0.2962
   50CHL1    C7 3637   6.549   5.583   7.313  0.5416 -0.5470 -1.4619
   50CHL1   H7A 3638   6.559   5.678   7.369 -2.0278 -0.6152 -0.7612
   50CHL1   H7B 3639   6.451   5.548   7.352  1.5674 -1.4618  0.4281
   50CHL1    C8 3640   6.663   5.504   7.374 -0.3162 -0.1099  0.8426
   50CHL1    H8 3641   6.757   5.563   7.366  0.7412 -1.8506 -0.3050
   50CHL1   C14 3642   6.649   5.466   7.519 -0.1303 -0.1184  0.0230
   50CHL1   H14 3643   6.550   5.416   7.520 -1.3883  2.2330  0.4096
   50CHL1   C15 3644   6.626   5.583   7.622  0.1097 -0.0875 -0.7805
   50CHL1  H15A 3645   6.694   5.669   7.607  0.6896 -0.3375  0.3186
   50CHL1  H15B 3646   6.525   5.629   7.620  1.8616  4.9486  3.6597
   50CHL1   C16 3647   6.650   5.517   7.757 -0.4858  0.5644 -0.1290
   50CHL1  H16A 3648   6.734   5.574   7.800 -1.3387  0.9807  1.0491
   50CHL1  H16B 3649   6.558   5.517   7.820 -1.5857 -0.2881 -1.6381
   50CHL1   C17 3650   6.706   5.369   7.732 -0.5951  0.0767 -0.3270
   50CHL1   H17 3651   6.612   5.309   7.734 -0.0803 -0.7576  2.3833
   50CHL1   C13 3652   6.750   5.377   7.581 -0.9666  0.0783 -0.0246
   50CHL1   C18 3653   6.893   5.435   7.578  0.8806  0.3293 -0.6247
   50CHL1  H18A 3654   6.958   5.359   7.626 -1.4838 -1.5858 -0.2783
   50CHL1  H18B 3655   6.931   5.450   7.475 -1.2625  1.2964 -1.3511
   50CHL1  H18C 3656   6.896   5.524   7.645  0.4149 -2.1846  3.0381
   50CHL1   C12 3657   6.735   5.250   7.502  0.3847  0.0377  0.3674
   50CHL1  H12A 3658   6.816   5.182   7.537 -1.8847 -3.5255 -0.8224
   50CHL1  H12B 3659   6.635   5.204   7.515  0.3900 -0.0097  0.2452
   50CHL1   C11 3660   6.758   5.264   7.349  0.1229  0.1191  0.3397
   50CHL1  H11A 3661   6.866   5.292   7.340  0.3413 -0.8258 -0.0392
   50CHL1  H11B 3662   6.742   5.163   7.307  1.3879 -0.2543  0.7007
   50CHL1    C9 3663   6.679   5.373   7.287  0.3624  0.1732  0.0644
   50CHL1    H9 3664   6.577   5.328   7.284  0.3649  0.2178 -2.2078
   50CHL1   C10 3665   6.707   5.407   7.142 -0.0032 -0.1882 -0.2500
   50CHL1   C19 3666   6.853   5.450   7.124  0.1790  0.2064  0.3478
   50CHL1  H19A 3667   6.926   5.370   7.149  1.1890  0.2127 -2.3180
   50CHL1  H19B 3668   6.874   5.471   7.017 -1.5936  0.6448  0.0578
   50CHL1  H19C 3669   6.870   5.540   7.189  1.4162 -0.1972  0.6202
   50CHL1    C1 3670   6.684   5.273   7.058  0.2445 -0.3535 -0.0751
   50CHL1   H1A 3671   6.768   5.204   7.082  0.2742  0.5200  2.7545
   50CHL1   H1B 3672   6.591   5.224   7.093  0.2991  0.2694  0.9870
   50CHL1    C2 3673   6.671   5.283   6.909 -0.5299  0.5434 -1.0206
   50CHL1   H2A 3674   6.637   5.180   6.886  1.2637 -0.9887  2.3816
   50CHL1   H2B 3675   6.777   5.304   6.881  1.3620 -1.8408  3.3564
   50CHL1   C20 3676   6.796   5.324   7.846 -0.5254  0.0212 -0.9324
   50CHL1   H20 3677   6.893   5.378   7.838 -0.8206  0.7044 -0.0257
   50CHL1   C21 3678   6.817   5.173   7.843 -0.2914  0.1995 -0.1047
   50CHL1  H21A 3679   6.880   5.143   7.757 -0.1669  2.2293 -0.7710
   50CHL1  H21B 3680   6.720   5.120   7.830 -0.0017 -0.1209 -0.9867
   50CHL1  H21C 3681   6.871   5.135   7.933 -0.8437  0.8249  0.5061
   50CHL1   C22 3682   6.741   5.368   7.995  0.1952 -0.1020 -0.5119
   50CHL1  H22A 3683   6.738   5.478   8.007 -2.2562 -0.2853  1.2444
   50CHL1  H22B 3684   6.639   5.325   7.998  0.0637  0.2253 -0.1575
   50CHL1   C23 3685   6.821   5.324   8.113  0.2826  0.4307  0.3956
   50CHL1  H23A 3686   6.827   5.213   8.124  0.7885  0.3756 -0.3334
   50CHL1  H23B 3687   6.921   5.366   8.087  0.1568  0.7149  0.3665
   50CHL1   C24 3688   6.771   5.390   8.244 -0.0022  0.1105 -0.6591
   50CHL1  H24A 3689   6.765   5.499   8.220 -1.4254  0.0869 -0.5309
   50CHL1  H24B 3690   6.670   5.352   8.271  0.1995  0.7888  1.1457
   50CHL1   C25 3691   6.865   5.358   8.364 -0.2625  0.1101  0.4036
   50CHL1   H25 3692   6.963   5.316   8.334  1.4983  3.9001  0.2912
   50CHL1   C26 3693   6.882   5.483   8.461  0.1755 -0.1120 -0.1314
   50CHL1  H26A 3694   6.934   5.449   8.553 -0.1752 -2.1638 -0.6313
   50CHL1  H26B 3695   6.949   5.556   8.410  1.4214 -0.2229  1.2678
   50CHL1  H26C 3696   6.782   5.523   8.486 -0.1881 -0.5160 -0.8915
   50CHL1   C27 3697   6.799   5.252   8.445  0.6626  0.0371  0.0226
   50CHL1  H27A 3698   6.701   5.288   8.484  0.8841 -0.6471  1.2763
   50CHL1  H27B 3699   6.788   5.159   8.385 -3.1458  0.2424  0.1708
   50CHL1  H27C 3700   6.861   5.221   8.532 -0.6702  0.5700  1.2021
   51CHL1    C3 3701   0.878   5.185   6.723  0.5769  0.0248 -0.2195
   51CHL1    H3 3702   0.830   5.284   6.736  1.2554  0.1017  2.1559
   51CHL1    O3 3703   0.883   5.148   6.589  0.1181 -0.3960  0.3341
   51CHL1   H3' 3704   0.803   5.096   6.582  0.6550 -1.1148 -0.7960
   51CHL1    C4 3705   1.023   5.197   6.782  0.2790  0.1514  0.0475
   51CHL1   H4A 3706   1.068   5.097   6.761 -0.3512  0.2010 -1.6906
   51CHL1   H4B 3707   1.084   5.259   6.712 -0.7943 -0.8121 -1.8266
   51CHL1    C5 3708   1.020   5.240   6.927 -0.6595  0.4112 -0.2879
   51CHL1    C6 3709   1.103   5.343   6.969 -0.7274  0.3302  0.1166
   51CHL1    H6 3710   1.177   5.388   6.902 -0.1941 -0.2660  0.2922
   51CHL1    C7 3711   1.127   5.372   7.113  0.6427 -0.5096  0.5615
   51CHL1   H7A 3712   1.237   5.371   7.127  0.6149 -0.1631  0.8046
   51CHL1   H7B 3713   1.090   5.472   7.143  1.7470  0.3181 -0.7634
   51CHL1    C8 3714   1.047   5.277   7.219  0.7304 -0.8297  0.0555
   51CHL1    H8 3715   1.118   5.192   7.233  1.0130 -0.7280 -0.6931
   51CHL1   C14 3716   1.014   5.356   7.346  0.8035  0.7408 -0.3499
   51CHL1   H14 3717   0.953   5.443   7.314  2.3596  2.2161  0.4934
   51CHL1   C15 3718   1.141   5.421   7.421  0.3614  0.1694  0.2043
   51CHL1  H15A 3719   1.230   5.356   7.411  0.3679  0.4634 -2.1159
   51CHL1  H15B 3720   1.174   5.516   7.374  0.2516  0.7655  1.3032
   51CHL1   C16 3721   1.095   5.433   7.567 -0.5182 -0.1734 -0.0710
   51CHL1  H16A 3722   1.171   5.381   7.628  0.0851  0.4217 -0.2992
   51CHL1  H16B 3723   1.101   5.539   7.599 -0.2169 -0.7258  1.8463
   51CHL1   C17 3724   0.954   5.369   7.572  0.3263  0.6366 -0.2366
   51CHL1   H17 3725   0.874   5.442   7.546  2.5896  3.6438  0.6589
   51CHL1   C13 3726   0.947   5.276   7.453 -0.0968  0.2550 -0.1922
   51CHL1   C18 3727   1.034   5.155   7.486 -0.2356  0.2142 -0.0161
   51CHL1  H18A 3728   0.973   5.101   7.561 -0.8757 -1.1596 -1.4555
   51CHL1  H18B 3729   1.037   5.082   7.402 -3.2165  1.5385 -1.4172
   51CHL1  H18C 3730   1.133   5.175   7.533  1.0962 -2.8809 -1.2244
   51CHL1   C12 3731   0.809   5.227   7.406  0.1088  0.1860  1.0249
   51CHL1  H12A 3732   0.776   5.153   7.481 -0.8482  1.4031  1.8507
   51CHL1  H12B 3733   0.724   5.298   7.419 -0.3591 -0.3595  0.9917
   51CHL1   C11 3734   0.817   5.166   7.264  0.8959 -0.3395  0.0009
   51CHL1  H11A 3735   0.863   5.067   7.284 -0.6655 -0.8372  1.2964
   51CHL1  H11B 3736   0.711   5.155   7.233  0.7102 -0.8881  0.8159
   51CHL1    C9 3737   0.917   5.240   7.154  0.7916 -0.1460  0.0255
   51CHL1    H9 3738   0.864   5.334   7.126  1.8548  0.9428  1.4715
   51CHL1   C10 3739   0.927   5.160   7.022 -0.0793  0.1586  0.1116
   51CHL1   C19 3740   0.997   5.020   7.046  0.8414 -1.0983  0.3237
   51CHL1  H19A 3741   0.932   4.965   7.117 -0.7596 -1.1403 -1.1245
   51CHL1  H19B 3742   1.000   4.955   6.956 -2.3921 -1.6516  0.5173
   51CHL1  H19C 3743   1.100   5.023   7.088  1.1819 -0.8627 -0.4913
   51CHL1    C1 3744   0.789   5.134   6.949 -0.0393 -0.3567  0.1099
   51CHL1   H1A 3745   0.742   5.060   7.016  3.3049 -0.8530  2.1781
   51CHL1   H1B 3746   0.741   5.234   6.949  1.9918  0.6718  0.2588
   51CHL1    C2 3747   0.800   5.084   6.803  0.3857 -0.5235  0.4313
   51CHL1   H2A 3748   0.698   5.072   6.760  0.3588 -0.1612  0.3917
   51CHL1   H2B 3749   0.865   4.994   6.805 -0.2225 -1.0174 -0.8362
   51CHL1   C20 3750   0.923   5.323   7.716 -0.7195 -0.2168  0.1588
   51CHL1   H20 3751   0.993   5.242   7.747 -1.7551 -1.1939 -0.0074
   51CHL1   C21 3752   0.783   5.271   7.732 -0.5269 -0.1639 -0.7249
   51CHL1  H21A 3753   0.720   5.320   7.655  0.7054  0.6989 -1.1996
   51CHL1  H21B 3754   0.745   5.284   7.835  0.5921 -0.3306 -0.2770
   51CHL1  H21C 3755   0.781   5.161   7.712 -3.1663 -0.2687 -0.3242
   51CHL1   C22 3756   0.936   5.440   7.818  0.6957 -0.4720 -0.8895
   51CHL1  H22A 3757   1.038   5.483   7.808  1.6601 -1.9130  1.7012
   51CHL1  H22B 3758   0.851   5.511   7.811  0.2133 -1.1727 -3.1273
   51CHL1   C23 3759   0.953   5.387   7.963  0.4720  0.2065  0.0768
   51CHL1  H23A 3760   0.879   5.310   7.991  0.4118  0.0696 -0.4475
   51CHL1  H23B 3761   1.051   5.336   7.976  0.3290  0.2293  1.4025
   51CHL1   C24 3762   0.941   5.513   8.051 -0.1000  0.0522 -0.5156
   51CHL1  H24A 3763   1.014   5.593   8.023  0.2483 -0.4649 -1.1246
   51CHL1  H24B 3764   0.847   5.562   8.021  0.4164  0.7736 -0.9962
   51CHL1   C25 3765   0.916   5.500   8.207  0.9792  0.2797  0.2374
   51CHL1   H25 3766   0.834   5.426   8.216 -0.2148  1.5523  0.0548
   51CHL1   C26 3767   1.040   5.456   8.284 -0.6552 -0.4105  0.1528
   51CHL1  H26A 3768   1.019   5.442   8.392 -1.9320 -0.9219 -0.1481
   51CHL1  H26B 3769   1.080   5.357   8.252  0.0629  0.0233 -0.3430
   51CHL1  H26C 3770   1.123   5.528   8.264  0.4353 -1.6082  0.2312
   51CHL1   C27 3771   0.863   5.625   8.278  0.3952  0.6923  0.2708
   51CHL1  H27A 3772   0.825   5.609   8.381 -1.8973 -1.8384 -0.8373
   51CHL1  H27B 3773   0.941   5.704   8.276  0.9444  0.1426 -0.5161
   51CHL1  H27C 3774   0.786   5.665   8.209  1.5841  0.1061 -1.4716
   52CHL1    C3 3775   1.871   5.118   6.920  0.3950  0.6998  0.5448
   52CHL1    H3 3776   1.770   5.074   6.932  1.6647 -1.8857  3.1136
   52CHL1    O3 3777   1.917   5.124   6.786 -0.3081  0.7492 -0.2310
   52CHL1   H3' 3778   2.003   5.166   6.797  0.3464 -1.1015  2.6685
   52CHL1    C4 3779   1.879   5.258   6.974  0.5157 -0.4039  0.1577
   52CHL1   H4A 3780   1.979   5.305   6.967  0.4482 -0.3513 -0.5706
   52CHL1   H4B 3781   1.816   5.316   6.903  0.1140 -2.3531 -1.1659
   52CHL1    C5 3782   1.829   5.256   7.120 -0.0501 -0.0218  0.0677
   52CHL1    C6 3783   1.714   5.316   7.165 -0.9066  0.2391  0.7771
   52CHL1    H6 3784   1.655   5.370   7.091  0.2298  3.2615  1.9108
   52CHL1    C7 3785   1.684   5.313   7.310  0.1533 -0.5513  0.2326
   52CHL1   H7A 3786   1.652   5.413   7.347 -0.4588 -0.9496  0.8078
   52CHL1   H7B 3787   1.595   5.247   7.323 -1.5894  0.8900 -3.2136
   52CHL1    C8 3788   1.799   5.261   7.406 -0.3292  0.6962 -0.2606
   52CHL1    H8 3789   1.877   5.340   7.406  0.0844  0.2892  0.1252
   52CHL1   C14 3790   1.740   5.237   7.549 -0.5961  0.2861  0.1242
   52CHL1   H14 3791   1.671   5.151   7.538  1.2171 -1.1871 -0.2307
   52CHL1   C15 3792   1.669   5.354   7.617  0.1368  0.0859  0.8703
   52CHL1  H15A 3793   1.708   5.455   7.590 -0.4564 -0.0754 -0.7078
   52CHL1  H15B 3794   1.559   5.348   7.599  0.0033 -1.1275  1.9331
   52CHL1   C16 3795   1.680   5.329   7.764 -0.1363  0.3828 -0.2372
   52CHL1  H16A 3796   1.739   5.406   7.818  0.3191  0.1144 -0.3462
   52CHL1  H16B 3797   1.584   5.312   7.817 -0.5803  0.8021 -0.8964
   52CHL1   C17 3798   1.751   5.191   7.780 -0.4167  0.2939  0.1844
   52CHL1   H17 3799   1.675   5.110   7.769 -0.1289  0.0940 -0.3334
   52CHL1   C13 3800   1.836   5.180   7.656  0.4004  0.6827  0.8135
   52CHL1   C18 3801   1.961   5.270   7.678 -0.0765  0.0127 -0.5027
   52CHL1  H18A 3802   2.014   5.303   7.587 -0.6009  0.0119 -0.8137
   52CHL1  H18B 3803   1.934   5.361   7.736 -1.0764 -1.9314  2.2682
   52CHL1  H18C 3804   2.035   5.215   7.740 -2.4088 -1.9627  0.6894
   52CHL1   C12 3805   1.883   5.037   7.599  0.5539 -0.3300 -0.3657
   52CHL1  H12A 3806   1.954   4.982   7.664 -0.0508 -0.6849  0.0089
   52CHL1  H12B 3807   1.795   4.969   7.591  0.0512  0.5231 -2.7760
   52CHL1   C11 3808   1.944   5.047   7.450  0.0015  0.2636  0.2085
   52CHL1  H11A 3809   2.037   5.102   7.476 -1.5492  1.7726  3.1207
   52CHL1  H11B 3810   1.962   4.942   7.419 -0.5826  0.3440 -0.4265
   52CHL1    C9 3811   1.854   5.129   7.348 -0.1847  0.2276 -0.7456
   52CHL1    H9 3812   1.769   5.058   7.342 -1.5504  1.4850  1.7473
   52CHL1   C10 3813   1.912   5.155   7.208 -0.3228  0.1412  0.0725
   52CHL1   C19 3814   2.058   5.217   7.222  0.3003  0.3536 -0.1071
   52CHL1  H19A 3815   2.114   5.136   7.272  0.0686 -0.3210 -0.9129
   52CHL1  H19B 3816   2.104   5.238   7.123  1.9819 -0.6690  0.4251
   52CHL1  H19C 3817   2.060   5.310   7.282  1.3560  2.2072 -2.8234
   52CHL1    C1 3818   1.925   5.014   7.142  0.3255 -0.7182 -1.0261
   52CHL1   H1A 3819   1.996   4.959   7.207  0.3058  1.8527  1.3104
   52CHL1   H1B 3820   1.822   4.974   7.155 -0.2132  1.4530  2.8963
   52CHL1    C2 3821   1.965   5.019   6.993  0.0112  0.0635  0.2320
   52CHL1   H2A 3822   1.965   4.915   6.955  2.6344 -0.8246  2.3728
   52CHL1   H2B 3823   2.069   5.055   6.983 -0.6539  1.8487 -0.7632
   52CHL1   C20 3824   1.818   5.169   7.921 -0.1583  0.5686  0.2361
   52CHL1   H20 3825   1.913   5.227   7.924 -0.0707  0.3858  2.6082
   52CHL1   C21 3826   1.852   5.019   7.951  0.4890 -0.2400  0.3855
   52CHL1  H21A 3827   1.759   4.962   7.969  0.4974 -1.0623 -1.8426
   52CHL1  H21B 3828   1.907   5.020   8.048  1.4057  0.9910 -0.1202
   52CHL1  H21C 3829   1.909   4.978   7.864  2.0932  1.5410  0.5279
   52CHL1   C22 3830   1.736   5.225   8.038  0.4719 -0.4287  0.7493
   52CHL1  H22A 3831   1.697   5.322   8.000  2.3531 -0.9839 -3.1225
   52CHL1  H22B 3832   1.657   5.151   8.064 -2.4270  3.1590  3.1991
   52CHL1   C23 3833   1.815   5.251   8.168 -0.1439 -0.3879 -0.1984
   52CHL1  H23A 3834   1.857   5.149   8.187  0.8711 -0.4431 -2.4395
   52CHL1  H23B 3835   1.887   5.328   8.134 -2.9440  2.3972 -0.2090
   52CHL1   C24 3836   1.730   5.304   8.286  0.2574  1.0400 -0.0623
   52CHL1  H24A 3837   1.667   5.387   8.247  0.3425  0.1483 -2.1939
   52CHL1  H24B 3838   1.658   5.227   8.322  0.5746  0.7460 -0.0496
   52CHL1   C25 3839   1.817   5.347   8.409 -0.6418 -0.1271 -0.1553
   52CHL1   H25 3840   1.903   5.406   8.368 -0.8345 -1.6029 -2.9410
   52CHL1   C26 3841   1.740   5.442   8.508 -0.0323  0.2975  0.0036
   52CHL1  H26A 3842   1.647   5.397   8.548  0.7339 -0.7752  0.6506
   52CHL1  H26B 3843   1.812   5.472   8.587  2.6761  1.1962 -2.6175
   52CHL1  H26C 3844   1.716   5.531   8.447  1.3660 -0.3329 -1.5632
   52CHL1   C27 3845   1.882   5.225   8.487  0.0201 -0.3932  0.4003
   52CHL1  H27A 3846   1.957   5.256   8.563  0.0440  1.0083 -0.1677
   52CHL1  H27B 3847   1.798   5.165   8.528  0.6255 -3.3049 -2.2956
   52CHL1  H27C 3848   1.945   5.165   8.418  0.5688  0.2603  0.3133
   53CHL1    C3 3849   4.793   3.144   7.180 -0.7063  0.1608 -0.6675
   53CHL1    H3 3850   4.794   3.034   7.195 -0.3309  0.4101  1.2833
   53CHL1    O3 3851   4.806   3.171   7.043  0.1611 -0.2534  0.1623
   53CHL1   H3' 3852   4.860   3.102   7.004  0.3220 -0.8058  1.3313
   53CHL1    C4 3853   4.674   3.216   7.233  0.0257  0.1292  0.7269
   53CHL1   H4A 3854   4.686   3.323   7.205 -0.6435  0.4690  1.7109
   53CHL1   H4B 3855   4.583   3.178   7.181 -0.7207  1.5546  0.9495
   53CHL1    C5 3856   4.666   3.207   7.390 -1.0416  0.7159  0.6423
   53CHL1    C6 3857   4.563   3.155   7.456 -0.4976 -0.1847  0.0028
   53CHL1    H6 3858   4.473   3.124   7.402  0.0946 -1.2557 -0.3910
   53CHL1    C7 3859   4.537   3.144   7.601  0.1129  0.0365 -0.4638
   53CHL1   H7A 3860   4.438   3.176   7.642  0.2238 -1.0761  0.7439
   53CHL1   H7B 3861   4.545   3.036   7.625 -0.5974  0.4159  1.7204
   53CHL1    C8 3862   4.650   3.216   7.680 -0.0953 -0.1588  0.5756
   53CHL1    H8 3863   4.618   3.322   7.688 -0.1467 -0.1850  0.7154
   53CHL1   C14 3864   4.652   3.164   7.826  0.4578  0.6790 -0.1936
   53CHL1   H14 3865   4.672   3.055   7.832 -0.5957  0.5385  1.9006
   53CHL1   C15 3866   4.519   3.187   7.904  0.5448  0.0508  0.6962
   53CHL1  H15A 3867   4.481   3.286   7.869  1.4953  0.0784 -0.3264
   53CHL1  H15B 3868   4.449   3.113   7.862 -0.7542  1.9885 -0.7491
   53CHL1   C16 3869   4.559   3.162   8.047 -0.4643  0.1061  0.8471
   53CHL1  H16A 3870   4.522   3.241   8.116 -2.4546 -0.6551  0.7086
   53CHL1  H16B 3871   4.520   3.063   8.078  1.1273 -1.2264 -1.1472
   53CHL1   C17 3872   4.719   3.155   8.038  0.3088  0.0900 -0.5073
   53CHL1   H17 3873   4.748   3.049   8.023  0.5285 -0.2038  1.6211
   53CHL1   C13 3874   4.764   3.229   7.910  0.7299 -0.8124 -0.2127
   53CHL1   C18 3875   4.742   3.386   7.921 -0.2385 -0.1888  0.5447
   53CHL1  H18A 3876   4.753   3.439   7.824 -0.8894  0.6459  0.9057
   53CHL1  H18B 3877   4.645   3.407   7.971 -0.7446  1.3079 -0.9641
   53CHL1  H18C 3878   4.825   3.421   7.986 -0.7465 -0.1016  1.1643
   53CHL1   C12 3879   4.896   3.195   7.843  0.4474 -0.0920  0.1366
   53CHL1  H12A 3880   4.982   3.239   7.897 -0.3132  2.2394 -0.4206
   53CHL1  H12B 3881   4.902   3.085   7.834 -0.6610 -0.4416  2.8649
   53CHL1   C11 3882   4.904   3.252   7.699  0.5417  0.2666  0.5550
   53CHL1  H11A 3883   4.922   3.362   7.699  0.0974  0.3728  2.6313
   53CHL1  H11B 3884   4.998   3.213   7.654  0.3050 -0.3222  0.5581
   53CHL1    C9 3885   4.783   3.210   7.614  0.3086  0.4660  0.2500
   53CHL1    H9 3886   4.810   3.103   7.614 -2.0558 -0.2081  1.3263
   53CHL1   C10 3887   4.787   3.254   7.465 -0.3717  0.2181 -0.1745
   53CHL1   C19 3888   4.770   3.407   7.458 -0.1519  0.0676  0.5818
   53CHL1  H19A 3889   4.776   3.442   7.352 -0.7817 -0.7270  0.2732
   53CHL1  H19B 3890   4.674   3.448   7.495  0.4794  0.8236  1.4562
   53CHL1  H19C 3891   4.847   3.457   7.521 -0.9097 -2.0129  3.3230
   53CHL1    C1 3892   4.922   3.198   7.398 -0.1358 -0.7368 -0.2350
   53CHL1   H1A 3893   4.991   3.277   7.436 -0.7587 -0.8046  1.1086
   53CHL1   H1B 3894   4.971   3.105   7.435 -0.1210 -0.9658 -0.8253
   53CHL1    C2 3895   4.923   3.197   7.246 -0.4465  0.6162  0.5578
   53CHL1   H2A 3896   5.001   3.127   7.211 -0.4754  0.4383  0.8414
   53CHL1   H2B 3897   4.932   3.302   7.209 -0.1972  0.4257  0.0843
   53CHL1   C20 3898   4.795   3.187   8.169 -0.0285  0.0610  0.9252
   53CHL1   H20 3899   4.796   3.296   8.190  0.9606  0.3654 -0.5754
   53CHL1   C21 3900   4.940   3.138   8.153 -0.3057 -0.4409 -0.2855
   53CHL1  H21A 3901   4.993   3.145   8.251 -0.9848  0.0167  0.0572
   53CHL1  H21B 3902   4.996   3.205   8.084 -2.3512  1.4650 -0.2115
   53CHL1  H21C 3903   4.944   3.034   8.113 -0.1322  0.3175 -2.3760
   53CHL1   C22 3904   4.738   3.115   8.290 -0.9338  0.9868 -0.3957
   53CHL1  H22A 3905   4.789   3.164   8.375  1.7164  1.2098 -2.0039
   53CHL1  H22B 3906   4.627   3.125   8.290 -1.0320  0.0967 -1.1269
   53CHL1   C23 3907   4.767   2.960   8.297 -0.2141 -0.3782  0.0667
   53CHL1  H23A 3908   4.765   2.920   8.193  1.9836  0.6255 -0.4198
   53CHL1  H23B 3909   4.873   2.951   8.330  0.3936  0.8422 -1.3955
   53CHL1   C24 3910   4.661   2.882   8.377 -0.1439  0.5323  0.3794
   53CHL1  H24A 3911   4.565   2.916   8.333  0.7351  2.2241 -0.2993
   53CHL1  H24B 3912   4.669   2.773   8.355 -0.7372  0.6255 -0.3522
   53CHL1   C25 3913   4.652   2.907   8.526 -0.2702  0.7327  0.8066
   53CHL1   H25 3914   4.586   2.995   8.542 -1.2779 -0.0133  0.9229
   53CHL1   C26 3915   4.570   2.803   8.599 -0.5216  0.0692  0.5145
   53CHL1  H26A 3916   4.479   2.784   8.539  0.2969  1.7125 -1.3623
   53CHL1  H26B 3917   4.633   2.712   8.611 -0.9087  0.0273  2.5476
   53CHL1  H26C 3918   4.531   2.839   8.696 -1.3348 -0.1084  0.2564
   53CHL1   C27 3919   4.786   2.928   8.601 -0.5362 -0.1770  0.0956
   53CHL1  H27A 3920   4.840   3.015   8.559 -1.5920  0.2420 -0.4184
   53CHL1  H27B 3921   4.772   2.948   8.710 -1.2751 -2.6730  0.5249
   53CHL1  H27C 3922   4.849   2.837   8.594 -0.9084 -0.3721 -0.8594
   54CHL1    C3 3923   5.424   5.184   6.846 -0.9633 -0.0466  0.1109
   54CHL1    H3 3924   5.468   5.285   6.857  0.7905 -0.7315 -0.2287
   54CHL1    O3 3925   5.374   5.159   6.709 -0.2804 -0.0899 -0.5988
   54CHL1   H3' 3926   5.455   5.129   6.668  0.3087  0.0205  0.4564
   54CHL1    C4 3927   5.549   5.088   6.872 -0.2628  0.1764 -0.1005
   54CHL1   H4A 3928   5.509   4.984   6.873  1.8547 -0.7021  0.7425
   54CHL1   H4B 3929   5.615   5.108   6.785 -1.1660 -0.8498 -1.0306
   54CHL1    C5 3930   5.610   5.111   7.014 -0.7647  0.2756  0.0379
   54CHL1    C6 3931   5.736   5.157   7.023  0.1539  0.0511 -0.3403
   54CHL1    H6 3932   5.803   5.165   6.936  0.7211  0.7966  0.1434
   54CHL1    C7 3933   5.798   5.185   7.159 -0.1199  0.0772  0.5082
   54CHL1   H7A 3934   5.892   5.130   7.180  0.0570  0.2209  0.0908
   54CHL1   H7B 3935   5.811   5.294   7.178  1.1906 -0.2931  1.9072
   54CHL1    C8 3936   5.707   5.143   7.282  0.8238 -0.2658  0.1643
   54CHL1    H8 3937   5.718   5.033   7.287  2.0077 -0.1250  0.8341
   54CHL1   C14 3938   5.761   5.196   7.413  0.7341 -0.2550 -0.7005
   54CHL1   H14 3939   5.760   5.307   7.409 -2.8715 -0.1052  0.4422
   54CHL1   C15 3940   5.905   5.151   7.449  0.3124 -0.0620  0.4193
   54CHL1  H15A 3941   5.909   5.047   7.408 -1.7119 -0.0184  0.0037
   54CHL1  H15B 3942   5.976   5.218   7.397 -0.3186  0.9900  0.8899
   54CHL1   C16 3943   5.910   5.178   7.594  0.0385 -0.4840  0.0038
   54CHL1  H16A 3944   5.965   5.101   7.652  0.7785 -0.6513 -0.9064
   54CHL1  H16B 3945   5.963   5.275   7.609 -1.8210  0.7194 -0.7911
   54CHL1   C17 3946   5.761   5.194   7.645 -0.0197  0.9451  0.3274
   54CHL1   H17 3947   5.740   5.302   7.633 -0.1024  0.7311 -1.8454
   54CHL1   C13 3948   5.674   5.141   7.529 -0.1053 -0.1357 -0.8209
   54CHL1   C18 3949   5.671   4.984   7.533  0.1716  0.1159  0.1998
   54CHL1  H18A 3950   5.632   4.937   7.440 -0.7507 -0.3658  0.8200
   54CHL1  H18B 3951   5.771   4.937   7.544  0.4554  0.3723 -1.0701
   54CHL1  H18C 3952   5.607   4.947   7.616  1.4987  0.4080  1.3950
   54CHL1   C12 3953   5.536   5.205   7.515  0.4416 -0.0666 -0.3209
   54CHL1  H12A 3954   5.464   5.198   7.600 -0.7793  0.9801 -1.2425
   54CHL1  H12B 3955   5.551   5.313   7.497 -0.1521 -0.0112 -0.4949
   54CHL1   C11 3956   5.467   5.172   7.380 -0.1326  0.3306 -0.4690
   54CHL1  H11A 3957   5.441   5.065   7.392  1.4341  0.1261  1.6620
   54CHL1  H11B 3958   5.379   5.239   7.378  0.0781  0.9282  3.4309
   54CHL1    C9 3959   5.561   5.178   7.254  0.2942  0.1959 -0.3994
   54CHL1    H9 3960   5.567   5.286   7.229 -0.5470  0.4650  0.4964
   54CHL1   C10 3961   5.506   5.109   7.128  0.2881 -0.0478  0.0868
   54CHL1   C19 3962   5.476   4.959   7.156 -0.5893  0.3625  0.0551
   54CHL1  H19A 3963   5.413   4.915   7.076 -0.6164  3.1246 -1.5952
   54CHL1  H19B 3964   5.567   4.897   7.169 -1.0515 -0.5157 -0.7793
   54CHL1  H19C 3965   5.422   4.951   7.253 -0.5907 -1.1712 -0.0549
   54CHL1    C1 3966   5.368   5.175   7.087  0.2622  0.3963  0.4672
   54CHL1   H1A 3967   5.292   5.154   7.166 -2.0668  2.5328 -1.0445
   54CHL1   H1B 3968   5.388   5.282   7.106  1.7465  0.0651  0.8603
   54CHL1    C2 3969   5.314   5.157   6.950 -0.4538  0.2471  0.5292
   54CHL1   H2A 3970   5.225   5.221   6.935 -0.4946 -0.1032 -0.8370
   54CHL1   H2B 3971   5.267   5.057   6.941  0.3352 -0.0554 -0.4528
   54CHL1   C20 3972   5.733   5.148   7.788 -0.7252  0.1512 -0.3996
   54CHL1   H20 3973   5.753   5.040   7.807 -2.5408  0.0405  1.2270
   54CHL1   C21 3974   5.583   5.165   7.835 -0.7894 -0.3678  0.4287
   54CHL1  H21A 3975   5.559   5.273   7.832 -0.9035 -0.3958  0.2972
   54CHL1  H21B 3976   5.576   5.119   7.936  1.3061 -0.5024  0.5594
   54CHL1  H21C 3977   5.514   5.101   7.776 -2.0327 -0.0484  1.4772
   54CHL1   C22 3978   5.816   5.225   7.886  0.2716  0.1811  0.6412
   54CHL1  H22A 3979   5.920   5.233   7.848 -0.5148 -1.4741 -2.1333
   54CHL1  H22B 3980   5.764   5.323   7.879 -1.6563 -0.8180  0.2678
   54CHL1   C23 3981   5.822   5.177   8.030 -0.4119  0.4817 -0.0657
   54CHL1  H23A 3982   5.731   5.211   8.083 -1.7904 -0.0449 -1.9769
   54CHL1  H23B 3983   5.814   5.066   8.029 -0.2182  0.4506  0.8696
   54CHL1   C24 3984   5.947   5.220   8.114  0.0430  0.4074 -0.4448
   54CHL1  H24A 3985   6.037   5.176   8.067  0.2342 -1.8558  1.8114
   54CHL1  H24B 3986   5.966   5.329   8.121 -0.0613  0.6282 -2.8474
   54CHL1   C25 3987   5.941   5.180   8.259 -0.1717  0.0084 -0.6181
   54CHL1   H25 3988   5.848   5.219   8.306 -0.2007 -0.3618 -0.3659
   54CHL1   C26 3989   5.937   5.029   8.281 -0.1407  0.3934  0.1808
   54CHL1  H26A 3990   5.839   4.977   8.271 -0.3831  1.1995 -2.1729
   54CHL1  H26B 3991   6.010   4.985   8.210  1.8340  3.0614  0.4015
   54CHL1  H26C 3992   5.968   5.005   8.386 -1.7909 -1.4081  0.3140
   54CHL1   C27 3993   6.058   5.244   8.337 -0.2481  0.0846 -0.1681
   54CHL1  H27A 3994   6.042   5.352   8.356 -1.0950 -0.4637  2.6529
   54CHL1  H27B 3995   6.068   5.199   8.438  0.6332 -1.4403 -0.8990
   54CHL1  H27C 3996   6.155   5.227   8.285 -0.7623  1.7397 -1.7837
   55CHL1    C3 3997   4.834   6.316   7.064  0.0620 -0.3282  0.1418
   55CHL1    H3 3998   4.735   6.292   7.109  0.6551  0.7610  2.1105
   55CHL1    O3 3999   4.848   6.271   6.931 -0.2954 -0.4110 -0.0655
   55CHL1   H3' 4000   4.928   6.309   6.893 -0.5700 -0.5523 -0.7981
   55CHL1    C4 4001   4.861   6.460   7.070  0.1412  0.5364 -0.2311
   55CHL1   H4A 4002   4.956   6.496   7.025  0.2336  1.3275  0.5730
   55CHL1   H4B 4003   4.781   6.508   7.010 -1.7440 -1.1713  0.7898
   55CHL1    C5 4004   4.852   6.500   7.211  0.4043 -0.7427 -0.6810
   55CHL1    C6 4005   4.756   6.589   7.246  0.4321  0.2648  0.2837
   55CHL1    H6 4006   4.693   6.637   7.170  1.4373 -0.9611 -1.3987
   55CHL1    C7 4007   4.739   6.642   7.386  0.1564  0.1911  0.2931
   55CHL1   H7A 4008   4.729   6.753   7.385 -1.1957  0.0935 -0.7814
   55CHL1   H7B 4009   4.637   6.615   7.423 -0.3608  0.3674 -0.9486
   55CHL1    C8 4010   4.861   6.609   7.481  0.6683 -0.3731  0.1070
   55CHL1    H8 4011   4.950   6.673   7.466 -0.7896  1.1131 -3.1804
   55CHL1   C14 4012   4.814   6.637   7.628  1.1146 -0.2043 -0.0178
   55CHL1   H14 4013   4.729   6.566   7.636  0.5824  0.0670 -2.4183
   55CHL1   C15 4014   4.767   6.776   7.664 -0.5229  0.0900  0.5837
   55CHL1  H15A 4015   4.842   6.843   7.616 -1.2148 -0.0825 -0.7796
   55CHL1  H15B 4016   4.668   6.801   7.620  0.7261  1.6327 -1.4990
   55CHL1   C16 4017   4.772   6.780   7.816  0.2862  0.5199  0.3137
   55CHL1  H16A 4018   4.833   6.867   7.848  1.9482 -0.2665 -0.5681
   55CHL1  H16B 4019   4.672   6.781   7.863  0.8466 -2.8172  1.8615
   55CHL1   C17 4020   4.842   6.643   7.861  0.4804 -0.3317  0.7340
   55CHL1   H17 4021   4.761   6.568   7.874 -0.4174  0.8997  2.7329
   55CHL1   C13 4022   4.918   6.598   7.737 -0.1570  0.6464  0.4013
   55CHL1   C18 4023   5.047   6.685   7.729 -0.2747  0.2542 -0.9720
   55CHL1  H18A 4024   5.025   6.792   7.754 -1.6498 -0.3887  0.8223
   55CHL1  H18B 4025   5.125   6.641   7.794 -1.8822 -0.1703  0.7697
   55CHL1  H18C 4026   5.093   6.685   7.628  1.3542 -2.4995 -0.3272
   55CHL1   C12 4027   4.942   6.447   7.713 -0.2118  0.7812 -0.5175
   55CHL1  H12A 4028   5.007   6.399   7.789 -1.4703 -2.3783 -1.2675
   55CHL1  H12B 4029   4.844   6.397   7.725  1.1175 -2.2379 -1.3635
   55CHL1   C11 4030   4.992   6.407   7.576 -0.1530 -0.4223  0.0574
   55CHL1  H11A 4031   5.095   6.449   7.568 -0.5978  0.8987  0.9694
   55CHL1  H11B 4032   5.000   6.297   7.559  0.2261 -0.6748  1.6521
   55CHL1    C9 4033   4.904   6.467   7.462 -0.1766  0.0629 -0.2430
   55CHL1    H9 4034   4.811   6.407   7.476 -0.2442 -0.0167 -1.0234
   55CHL1   C10 4035   4.955   6.432   7.319 -0.3984 -0.0316  0.1566
   55CHL1   C19 4036   5.091   6.502   7.290 -0.0616  0.0332 -0.4328
   55CHL1  H19A 4037   5.068   6.610   7.282 -2.5844 -0.5354 -2.0941
   55CHL1  H19B 4038   5.163   6.483   7.372  0.1801  1.5285 -0.2660
   55CHL1  H19C 4039   5.132   6.475   7.190  1.1078 -0.7904  0.2572
   55CHL1    C1 4040   4.955   6.284   7.292  0.3164 -0.3773 -0.3340
   55CHL1   H1A 4041   5.055   6.253   7.330 -0.0803  0.3309  1.3829
   55CHL1   H1B 4042   4.887   6.220   7.352 -0.7368  0.8739 -0.1718
   55CHL1    C2 4043   4.948   6.246   7.143 -0.3943  0.0144 -0.5340
   55CHL1   H2A 4044   4.943   6.135   7.142 -3.5207  0.0404  0.5155
   55CHL1   H2B 4045   5.042   6.285   7.099  0.1217 -0.1283  0.4146
   55CHL1   C20 4046   4.913   6.670   7.994  0.5361  0.1839  0.1319
   55CHL1   H20 4047   4.988   6.752   7.986 -0.6524  1.3438  0.3430
   55CHL1   C21 4048   4.985   6.538   8.041  0.2829 -0.2115  0.5018
   55CHL1  H21A 4049   5.056   6.517   7.959 -1.2510 -0.7505 -0.7356
   55CHL1  H21B 4050   4.924   6.446   8.057  0.4459 -0.4343 -0.1394
   55CHL1  H21C 4051   5.036   6.550   8.139  0.6119  0.0425  0.2982
   55CHL1   C22 4052   4.808   6.713   8.099 -0.4365 -0.1292  0.2665
   55CHL1  H22A 4053   4.766   6.813   8.074  0.0101  0.6236  2.3674
   55CHL1  H22B 4054   4.727   6.639   8.115  0.4738 -1.4738 -1.0497
   55CHL1   C23 4055   4.869   6.730   8.241  0.3242  0.2599  0.0195
   55CHL1  H23A 4056   4.788   6.764   8.309  1.2640  1.2365  0.7017
   55CHL1  H23B 4057   4.897   6.627   8.272  0.8879  0.9451  1.8973
   55CHL1   C24 4058   4.987   6.827   8.259  0.0863 -0.0096  0.2138
   55CHL1  H24A 4059   5.066   6.797   8.187 -0.1623  2.8877 -1.3877
   55CHL1  H24B 4060   4.954   6.925   8.220  0.5425 -0.1998 -0.6627
   55CHL1   C25 4061   5.035   6.852   8.406  0.3317  0.5559  0.6822
   55CHL1   H25 4062   4.942   6.843   8.467 -0.9246  2.5613 -0.7797
   55CHL1   C26 4063   5.138   6.747   8.442  0.0100  0.3035 -0.0748
   55CHL1  H26A 4064   5.098   6.644   8.428  2.3608 -0.6675 -0.0686
   55CHL1  H26B 4065   5.236   6.767   8.395 -0.4518  1.0390 -0.7504
   55CHL1  H26C 4066   5.162   6.764   8.550 -0.8281  1.8203 -0.1032
   55CHL1   C27 4067   5.100   6.987   8.398  0.5052  0.1396  0.0634
   55CHL1  H27A 4068   5.160   6.998   8.491  0.9115  1.7577 -0.3753
   55CHL1  H27B 4069   5.169   6.994   8.312 -0.1255  2.6706 -0.3027
   55CHL1  H27C 4070   5.024   7.068   8.401  2.1588  1.7071  0.9230
   56CHL1    C3 4071   4.318   5.049   6.871 -0.8182  0.0502  0.6197
   56CHL1    H3 4072   4.247   4.978   6.920 -1.4158  0.7878  0.8632
   56CHL1    O3 4073   4.296   5.058   6.734 -0.3063  0.0093  0.3681
   56CHL1   H3' 4074   4.294   4.968   6.700 -1.5427 -0.0256  0.4690
   56CHL1    C4 4075   4.291   5.181   6.937  0.2581  0.0097  0.0828
   56CHL1   H4A 4076   4.347   5.263   6.887  2.3915 -1.4860 -0.1285
   56CHL1   H4B 4077   4.184   5.204   6.918  0.8130  2.8368 -0.0868
   56CHL1    C5 4078   4.326   5.181   7.084 -0.1069  0.2973 -0.7705
   56CHL1    C6 4079   4.239   5.204   7.188  0.1366  0.3448 -0.2812
   56CHL1    H6 4080   4.139   5.242   7.163  0.3377 -0.1132 -1.8973
   56CHL1    C7 4081   4.289   5.219   7.330 -0.0877  0.4144 -0.6791
   56CHL1   H7A 4082   4.249   5.304   7.389 -0.3560 -0.5405  0.5812
   56CHL1   H7B 4083   4.246   5.127   7.377  0.1364  0.3537 -0.5903
   56CHL1    C8 4084   4.446   5.209   7.352  0.9595 -0.3309  0.0211
   56CHL1    H8 4085   4.485   5.310   7.326 -2.4074  0.8955 -0.7165
   56CHL1   C14 4086   4.475   5.174   7.497  0.4229 -0.5576  1.3167
   56CHL1   H14 4087   4.427   5.075   7.503 -1.6144  0.2388 -0.5940
   56CHL1   C15 4088   4.423   5.267   7.607 -0.4985 -0.0022 -0.2141
   56CHL1  H15A 4089   4.426   5.372   7.572 -1.3212 -0.2248 -1.0118
   56CHL1  H15B 4090   4.317   5.248   7.635 -1.0430  2.1269 -0.6577
   56CHL1   C16 4091   4.506   5.241   7.730 -0.3907  0.3921 -0.2449
   56CHL1  H16A 4092   4.545   5.337   7.769  1.9936  0.0140 -1.4757
   56CHL1  H16B 4093   4.445   5.190   7.807 -0.7184  0.0679 -0.7125
   56CHL1   C17 4094   4.621   5.144   7.681 -0.6256 -0.6129  0.6494
   56CHL1   H17 4095   4.578   5.042   7.695  0.6317 -1.3044 -0.3713
   56CHL1   C13 4096   4.630   5.158   7.529  0.0126  0.3861  0.0982
   56CHL1   C18 4097   4.701   5.285   7.492 -0.1192  0.6294 -0.3253
   56CHL1  H18A 4098   4.810   5.268   7.506  0.3055  2.0371 -1.6181
   56CHL1  H18B 4099   4.689   5.311   7.385 -0.8855  0.0062 -0.4014
   56CHL1  H18C 4100   4.663   5.370   7.553 -1.9027  0.3010 -0.9183
   56CHL1   C12 4101   4.677   5.042   7.440  0.3373 -0.3128  0.3670
   56CHL1  H12A 4102   4.782   5.011   7.453 -0.1500 -2.3140 -0.1096
   56CHL1  H12B 4103   4.610   4.958   7.467  0.3965 -0.5128 -0.1002
   56CHL1   C11 4104   4.655   5.076   7.289  0.7045 -0.1713  0.1477
   56CHL1  H11A 4105   4.721   5.163   7.269  0.3271  0.2833  0.7955
   56CHL1  H11B 4106   4.698   4.989   7.235 -0.5635 -0.7029 -0.0534
   56CHL1    C9 4107   4.507   5.104   7.258 -0.1112 -0.1988  0.2781
   56CHL1    H9 4108   4.464   5.004   7.280  0.6856 -0.4233  0.8149
   56CHL1   C10 4109   4.468   5.123   7.106  0.1330  0.0729 -0.5179
   56CHL1   C19 4110   4.560   5.235   7.060 -0.7212 -0.2169  0.6785
   56CHL1  H19A 4111   4.555   5.243   6.949 -0.9078 -1.4904  0.5751
   56CHL1  H19B 4112   4.523   5.331   7.102 -4.0925 -0.6899 -0.8532
   56CHL1  H19C 4113   4.665   5.211   7.086 -0.5045 -0.4199 -0.3292
   56CHL1    C1 4114   4.506   4.991   7.031 -0.0950  0.3843  0.1685
   56CHL1   H1A 4115   4.613   4.964   7.038 -0.0819 -0.2420 -1.7419
   56CHL1   H1B 4116   4.453   4.900   7.067  2.9954 -1.9086 -0.6409
   56CHL1    C2 4117   4.468   5.003   6.879  0.5627  0.0072  0.0505
   56CHL1   H2A 4118   4.477   4.904   6.829  0.3729  0.0628 -0.0965
   56CHL1   H2B 4119   4.539   5.074   6.832  1.6258 -2.2501 -1.9706
   56CHL1   C20 4120   4.748   5.160   7.765 -0.0442 -0.1520  0.2691
   56CHL1   H20 4121   4.786   5.263   7.751 -0.9940  0.4665  1.9552
   56CHL1   C21 4122   4.846   5.048   7.731  0.0236  0.3346 -0.8214
   56CHL1  H21A 4123   4.907   5.070   7.641  0.9763  2.0565  0.1841
   56CHL1  H21B 4124   4.793   4.951   7.719  0.4093  0.0571 -0.3752
   56CHL1  H21C 4125   4.916   5.041   7.817 -1.3802  2.1932  0.5565
   56CHL1   C22 4126   4.711   5.151   7.917 -0.1272  0.5683  0.3145
   56CHL1  H22A 4127   4.652   5.243   7.938 -2.3884 -0.3402 -1.6200
   56CHL1  H22B 4128   4.651   5.062   7.943  0.4942  0.8901  3.2081
   56CHL1   C23 4129   4.827   5.154   8.017  0.0419 -0.6185 -0.7855
   56CHL1  H23A 4130   4.862   5.049   8.024 -1.5258 -1.1193 -0.0005
   56CHL1  H23B 4131   4.904   5.228   7.984  0.1103 -0.5793 -0.5385
   56CHL1   C24 4132   4.781   5.199   8.155 -1.0006  1.0809 -0.4319
   56CHL1  H24A 4133   4.760   5.308   8.145  0.7866  1.4360 -0.6361
   56CHL1  H24B 4134   4.691   5.137   8.174  0.5878 -0.7060  1.7344
   56CHL1   C25 4135   4.882   5.184   8.270 -0.2368 -0.2536  0.6958
   56CHL1   H25 4136   4.980   5.191   8.218 -1.4785  0.0550 -1.7268
   56CHL1   C26 4137   4.884   5.297   8.375 -0.4813  0.4119  0.3194
   56CHL1  H26A 4138   4.977   5.294   8.434 -1.2930  2.5998  1.8349
   56CHL1  H26B 4139   4.795   5.291   8.442 -1.9768  3.8895 -1.1041
   56CHL1  H26C 4140   4.901   5.392   8.320  1.4305 -1.4566 -2.6008
   56CHL1   C27 4141   4.870   5.048   8.344 -0.6673  0.8127 -0.2597
   56CHL1  H27A 4142   4.909   4.965   8.283  0.2387 -0.1429  1.5320
   56CHL1  H27B 4143   4.926   5.046   8.440 -0.9591  1.1277 -0.0762
   56CHL1  H27C 4144   4.767   5.017   8.374  0.9638 -2.4311  2.8343
   57SAPC     N 4145   4.603   2.131  11.251  0.1586  0.0031  1.2377
   57SAPC   C12 4146   4.665   2.052  11.140  0.2088  0.5938  0.6940
   57SAPC  H12A 4147   4.579   2.026  11.079  0.8974  1.1898 -0.5700
   57SAPC  H12B 4148   4.697   1.954  11.174 -1.6777  0.1867  1.4460
   57SAPC   C13 4149   4.704   2.146  11.363 -0.5559  0.2333 -0.6000
   57SAPC  H13A 4150   4.789   2.209  11.341  0.6873 -0.5908  1.5779
   57SAPC  H13B 4151   4.666   2.189  11.454  1.4026  1.2850 -0.2339
   57SAPC  H13C 4152   4.741   2.049  11.392  2.5297  0.8861 -1.9572
   57SAPC   C14 4153   4.563   2.270  11.210  0.1128  0.3808 -0.2512
   57SAPC  H14A 4154   4.484   2.266  11.137 -1.8892 -0.6674  1.8250
   57SAPC  H14B 4155   4.536   2.333  11.294 -0.8084  1.0878 -1.0622
   57SAPC  H14C 4156   4.647   2.311  11.155 -0.2889  0.8866 -0.4950
   57SAPC   C15 4157   4.484   2.058  11.307 -0.3347  0.2673  0.2013
   57SAPC  H15A 4158   4.520   1.963  11.345  2.4491  1.0185 -0.3213
   57SAPC  H15B 4159   4.442   2.115  11.387  2.4930  1.5176  0.9290
   57SAPC  H15C 4160   4.407   2.052  11.232  0.4534  0.1154 -0.6183
   57SAPC   C11 4161   4.775   2.115  11.046 -0.1668 -0.1731  0.7056
   57SAPC  H11A 4162   4.819   2.042  10.974  0.2089  1.4071 -0.7376
   57SAPC  H11B 4163   4.863   2.157  11.099  1.1253  2.4964 -3.0843
   57SAPC     P 4164   4.632   2.201  10.850  0.2149 -0.5532  0.1734
   57SAPC   O13 4165   4.543   2.083  10.869 -0.1916 -0.1475 -0.2099
   57SAPC   O14 4166   4.564   2.329  10.837 -0.0647 -0.3328  0.5248
   57SAPC   O12 4167   4.728   2.223  10.974 -0.2691  0.0119 -0.1603
   57SAPC   O11 4168   4.727   2.180  10.729 -0.3913 -0.2708 -0.7077
   57SAPC    C1 4169   4.849   2.260  10.718  0.2203  0.4708 -0.5871
   57SAPC    HA 4170   4.880   2.319  10.807 -1.8421 -0.2495  0.6940
   57SAPC    HB 4171   4.930   2.189  10.692  0.5388  0.8847 -0.7420
   57SAPC    C2 4172   4.842   2.370  10.613 -0.1913 -0.2390 -0.4220
   57SAPC    HS 4173   4.758   2.439  10.636 -0.4419 -0.1332 -1.5926
   57SAPC   O21 4174   4.811   2.315  10.483 -0.7157  0.5325  0.7325
   57SAPC   C21 4175   4.692   2.309  10.445 -0.2903 -1.0339  0.6709
   57SAPC   O22 4176   4.593   2.357  10.501 -0.3081  0.1184 -0.1849
   57SAPC   C22 4177   4.701   2.234  10.319  0.9476  0.5152 -0.0818
   57SAPC   H2R 4178   4.784   2.160  10.323 -0.5596 -1.2363  0.4892
   57SAPC   H2S 4179   4.610   2.171  10.321  1.8335 -0.8618 -1.2505
   57SAPC    C3 4180   4.976   2.445  10.605 -0.5175  0.4452 -0.4183
   57SAPC    HX 4181   5.054   2.385  10.553 -1.2944  0.3833 -1.5502
   57SAPC    HY 4182   5.011   2.471  10.707  0.0396 -2.8580  0.3349
   57SAPC   O31 4183   4.955   2.559  10.517  0.0612  0.0581 -0.0414
   57SAPC   C31 4184   4.913   2.670  10.568 -0.2750 -0.0825  0.0948
   57SAPC   O32 4185   4.872   2.685  10.684  0.1911  0.3194  0.1041
   57SAPC   C32 4186   4.939   2.778  10.459  0.3296  0.5822 -0.2529
   57SAPC   H2X 4187   5.022   2.836  10.503 -1.1128  2.8363 -0.3357
   57SAPC   H2Y 4188   4.852   2.847  10.447 -0.5675 -0.6768 -1.3017
   57SAPC   C23 4189   4.711   2.331  10.194  0.3070  0.1725  0.2311
   57SAPC   H3R 4190   4.627   2.404  10.198 -0.7829 -0.8842 -1.5540
   57SAPC   H3S 4191   4.674   2.280  10.102 -0.7443  2.3876 -0.6310
   57SAPC   C24 4192   4.846   2.402  10.177 -0.4475 -0.5810 -0.3984
   57SAPC   H4R 4193   4.876   2.451  10.271  0.3744  0.0151 -0.9525
   57SAPC   H4S 4194   4.835   2.490  10.111 -2.1568  0.0134  0.6413
   57SAPC   C25 4195   4.952   2.304  10.143 -0.5593  0.1123 -0.1658
   57SAPC   H5R 4196   4.992   2.244  10.225 -1.3811  1.0091  0.9212
   57SAPC   C26 4197   4.986   2.276  10.015 -0.0683 -0.3837 -0.1950
   57SAPC   H6R 4198   5.070   2.209   9.993 -1.6158 -1.8314 -2.1072
   57SAPC   C27 4199   4.930   2.334   9.884 -0.2437  0.1630  0.1624
   57SAPC   H7R 4200   4.836   2.389   9.905 -1.1679 -1.6900  1.0800
   57SAPC   H7S 4201   4.888   2.263   9.810  0.2502  0.2545 -0.2175
   57SAPC   C28 4202   5.027   2.433   9.824 -0.3076 -0.1191 -0.2964
   57SAPC   H8R 4203   5.097   2.470   9.900 -1.9315  1.5347  0.4764
   57SAPC   C29 4204   5.026   2.485   9.693 -0.2459  0.6246 -0.4712
   57SAPC   H9R 4205   5.105   2.557   9.667  1.9462 -0.9590  1.3905
   57SAPC  C210 4206   4.926   2.438   9.587  0.1296 -0.8761  0.0175
   57SAPC  H10R 4207   4.827   2.423   9.634  0.5674 -1.0839  0.8930
   57SAPC  H10S 4208   4.967   2.340   9.553  4.4722  0.4740  0.7228
   57SAPC  C211 4209   4.892   2.548   9.488  0.4454 -0.8201 -0.3294
   57SAPC  H11R 4210   4.804   2.609   9.516  1.2846  0.6104 -0.6778
   57SAPC  C212 4211   4.969   2.592   9.388 -0.9039 -0.4299  0.3294
   57SAPC  H12R 4212   4.923   2.672   9.328 -0.4399 -0.1174  0.3875
   57SAPC  C213 4213   5.105   2.528   9.363 -1.2082  0.7767  0.1255
   57SAPC  H13R 4214   5.155   2.498   9.458  0.7044  2.1992 -0.3806
   57SAPC  H13S 4215   5.176   2.608   9.336 -1.8366  1.1421 -0.4848
   57SAPC  C214 4216   5.100   2.419   9.264 -0.4929 -0.0279  0.3028
   57SAPC  H14R 4217   5.012   2.406   9.199  0.5598  0.5340 -1.2845
   57SAPC  C215 4218   5.204   2.339   9.235  0.0947  0.1959  0.1639
   57SAPC  H15R 4219   5.198   2.266   9.152 -0.6234  1.1941 -0.6810
   57SAPC  C216 4220   5.341   2.337   9.301  0.1075  0.1850 -0.1334
   57SAPC  H16R 4221   5.356   2.252   9.371 -1.3462 -0.8522 -1.0319
   57SAPC  H16S 4222   5.351   2.433   9.357  0.3608  0.2229 -0.2429
   57SAPC  C217 4223   5.457   2.316   9.207  0.0166  0.4722  0.1391
   57SAPC  H17R 4224   5.550   2.315   9.268  0.3415 -0.7458 -0.3417
   57SAPC  H17S 4225   5.460   2.387   9.121  1.1102  0.0668 -0.1791
   57SAPC  C218 4226   5.458   2.163   9.167  0.3150 -0.0828 -0.0239
   57SAPC  H18R 4227   5.368   2.123   9.115  0.2896  0.7710 -0.6671
   57SAPC  H18S 4228   5.464   2.102   9.259  1.6088 -2.9522 -1.8492
   57SAPC  C219 4229   5.585   2.115   9.101  0.0331 -0.7639  0.4454
   57SAPC  H19R 4230   5.597   2.007   9.125 -1.8914 -0.8532  1.1206
   57SAPC  H19S 4231   5.667   2.181   9.137  0.3953 -1.0895  0.2297
   57SAPC  C220 4232   5.578   2.119   8.948  0.3850  0.4350 -0.1140
   57SAPC  H20R 4233   5.531   2.029   8.903 -0.8221  0.4665  1.0136
   57SAPC  H20S 4234   5.681   2.120   8.906  0.8962 -1.2443  1.0073
   57SAPC  H20T 4235   5.519   2.202   8.905  1.1512  0.9641 -0.1642
   57SAPC   C33 4236   4.974   2.721  10.318 -0.1622 -0.4310 -0.2316
   57SAPC   H3X 4237   4.879   2.683  10.275 -0.4843  1.6362 -1.4646
   57SAPC   H3Y 4238   5.056   2.645  10.311  0.2544  0.1130 -1.6077
   57SAPC   C34 4239   4.997   2.829  10.215 -0.3248 -0.3667  1.1286
   57SAPC   H4X 4240   5.082   2.891  10.252 -0.1927  1.1970 -1.4677
   57SAPC   H4Y 4241   4.906   2.890  10.196  0.3338  1.1015  2.4397
   57SAPC   C35 4242   5.041   2.768  10.078 -0.0370 -0.4658 -0.1630
   57SAPC   H5X 4243   4.966   2.710  10.020  1.3615 -1.6079 -0.8856
   57SAPC   H5Y 4244   5.126   2.700  10.102  0.0224 -0.3976 -0.1826
   57SAPC   C36 4245   5.079   2.882   9.990  1.1823  0.1924 -0.3740
   57SAPC   H6X 4246   5.164   2.924  10.048  2.1612 -2.5374  0.3555
   57SAPC   H6Y 4247   5.001   2.956   9.962 -1.0978 -2.4182 -1.4450
   57SAPC   C37 4248   5.145   2.836   9.861 -0.0219  0.8916 -0.0406
   57SAPC   H7X 4249   5.061   2.797   9.799  0.8174  1.5983 -1.6647
   57SAPC   H7Y 4250   5.206   2.746   9.884 -0.2602  0.9437  0.8428
   57SAPC   C38 4251   5.221   2.950   9.786 -0.0530 -0.0296  0.0636
   57SAPC   H8X 4252   5.282   3.003   9.861 -0.0291  0.4529 -0.2962
   57SAPC   H8Y 4253   5.141   3.020   9.751  0.3274 -0.7975 -2.5426
   57SAPC   C39 4254   5.310   2.904   9.675 -0.0785  0.1080 -0.2698
   57SAPC   H9X 4255   5.251   2.870   9.587 -0.1666  0.7872 -0.4767
   57SAPC   H9Y 4256   5.359   2.812   9.714 -0.4126 -0.0379 -0.1901
   57SAPC  C310 4257   5.424   2.995   9.647  0.2851 -0.2384 -0.7823
   57SAPC  H10X 4258   5.459   3.031   9.745 -1.1821  3.1739 -1.3581
   57SAPC  H10Y 4259   5.391   3.083   9.588  0.1015  0.1787 -0.0651
   57SAPC  C311 4260   5.545   2.933   9.570 -0.1250  0.7722  0.0288
   57SAPC  H11X 4261   5.621   2.885   9.634 -0.8479 -0.7471 -0.1895
   57SAPC  H11Y 4262   5.604   3.012   9.519  2.7264 -1.6765 -0.7098
   57SAPC  C312 4263   5.500   2.823   9.474 -0.0704 -0.0239 -0.3867
   57SAPC  H12X 4264   5.423   2.868   9.408 -1.6158 -2.4322 -0.3462
   57SAPC  H12Y 4265   5.444   2.743   9.527 -0.2094  0.1415 -0.2876
   57SAPC  C313 4266   5.611   2.767   9.395 -0.3831  0.4428  0.0945
   57SAPC  H13X 4267   5.669   2.710   9.471 -0.7786  0.7478  0.6356
   57SAPC  H13Y 4268   5.684   2.847   9.373  0.6379 -1.0372 -2.2315
   57SAPC  C314 4269   5.599   2.684   9.268 -0.2085 -0.0976 -0.1005
   57SAPC  H14X 4270   5.539   2.591   9.275 -0.3638  0.0707  0.8697
   57SAPC  H14Y 4271   5.698   2.650   9.230 -1.8174 -3.8868 -1.3508
   57SAPC  C315 4272   5.537   2.774   9.160  0.1283  0.0990  0.0511
   57SAPC  H15X 4273   5.620   2.846   9.149  0.7610 -0.6956 -0.4777
   57SAPC  H15Y 4274   5.448   2.829   9.198  0.9569  2.0090 -0.6277
   57SAPC  C316 4275   5.516   2.713   9.021  0.1700 -0.2936  0.0384
   57SAPC  H16X 4276   5.411   2.679   9.010  0.6873 -2.1891  0.6912
   57SAPC  H16Y 4277   5.582   2.625   9.002  2.1913  1.2437 -0.4769
   57SAPC  C317 4278   5.553   2.818   8.910 -0.5588 -0.1447  1.1735
   57SAPC  H17X 4279   5.662   2.818   8.891 -0.5675  0.2556  1.1085
   57SAPC  H17Y 4280   5.512   2.914   8.948  1.2943  1.4081 -0.5139
   57SAPC  C318 4281   5.476   2.789   8.780  0.1551  0.6406  0.7141
   57SAPC  H18X 4282   5.374   2.833   8.789  0.7987  2.5551 -0.5200
   57SAPC  H18Y 4283   5.472   2.680   8.760  2.4749  0.5490  0.5022
   57SAPC  H18Z 4284   5.509   2.832   8.682  0.9397  0.5287  0.9245
   58SAPC     N 4285   0.593   6.041  11.043  0.7061 -0.4030  0.3223
   58SAPC   C12 4286   0.563   5.904  10.954  0.0438  0.5496  0.2766
   58SAPC  H12A 4287   0.470   5.867  10.993  0.4835 -0.6612  0.2296
   58SAPC  H12B 4288   0.643   5.837  10.982 -0.1803 -0.2988 -1.0574
   58SAPC   C13 4289   0.725   6.098  10.988 -0.1204 -0.5699  0.2997
   58SAPC  H13A 4290   0.716   6.090  10.881 -1.2739  0.5373  0.2877
   58SAPC  H13B 4291   0.748   6.199  11.019  2.3016 -0.9579  0.0064
   58SAPC  H13C 4292   0.808   6.036  11.020 -0.4084 -0.7052  0.8064
   58SAPC   C14 4293   0.488   6.142  11.024  1.0744 -0.3814 -0.3417
   58SAPC  H14A 4294   0.492   6.226  11.092  1.3441  0.7150 -1.6726
   58SAPC  H14B 4295   0.479   6.182  10.924  0.9495 -0.0699 -0.2084
   58SAPC  H14C 4296   0.397   6.089  11.048  0.0501 -0.2284 -3.4658
   58SAPC   C15 4297   0.596   6.015  11.186 -0.0269  0.1064 -0.0711
   58SAPC  H15A 4298   0.501   5.984  11.227 -1.4748  0.9551 -2.5389
   58SAPC  H15B 4299   0.672   5.949  11.224  1.7936  1.9564 -0.3799
   58SAPC  H15C 4300   0.608   6.106  11.242  1.4815 -1.1698  1.8001
   58SAPC   C11 4301   0.568   5.927  10.803  0.0576  0.0605 -0.0392
   58SAPC  H11A 4302   0.510   6.016  10.771 -0.2234 -0.4463 -0.9960
   58SAPC  H11B 4303   0.523   5.836  10.757  0.7927 -1.6918  2.4996
   58SAPC     P 4304   0.802   5.847  10.699  0.4783 -0.0828 -0.0086
   58SAPC   O13 4305   0.934   5.914  10.693  0.2727 -0.4837 -0.2352
   58SAPC   O14 4306   0.797   5.730  10.787 -0.3173 -0.2519 -0.5165
   58SAPC   O12 4307   0.694   5.950  10.747 -0.6008  0.6313 -0.1819
   58SAPC   O11 4308   0.754   5.816  10.551 -0.1563  0.1486 -0.4270
   58SAPC    C1 4309   0.698   5.921  10.460 -1.7119 -0.4074 -0.1215
   58SAPC    HA 4310   0.713   6.022  10.504 -0.4334 -0.8186  0.4273
   58SAPC    HB 4311   0.763   5.930  10.371 -1.9768 -1.6122 -0.4510
   58SAPC    C2 4312   0.551   5.885  10.423  0.7054  0.1355  0.3417
   58SAPC    HS 4313   0.510   5.837  10.515  0.2190 -0.0897  0.0076
   58SAPC   O21 4314   0.554   5.792  10.310  0.0236 -0.2931 -0.3679
   58SAPC   C21 4315   0.446   5.725  10.292 -0.6964  0.4850 -0.6382
   58SAPC   O22 4316   0.340   5.736  10.355  0.1131  0.5460  0.1823
   58SAPC   C22 4317   0.467   5.625  10.178  0.2447 -0.7046 -0.9989
   58SAPC   H2R 4318   0.568   5.642  10.133  1.1082 -2.0557  0.3561
   58SAPC   H2S 4319   0.465   5.524  10.223  1.1259 -0.9411 -1.4590
   58SAPC    C3 4320   0.465   6.010  10.388 -0.8148 -0.5647  0.0506
   58SAPC    HX 4321   0.477   6.076  10.476  1.4949 -1.5916  0.5930
   58SAPC    HY 4322   0.357   5.985  10.381 -0.9961  0.2497 -0.1463
   58SAPC   O31 4323   0.503   6.072  10.260 -0.1590 -0.2399 -0.1756
   58SAPC   C31 4324   0.463   6.203  10.249  0.0389  0.5040 -0.1108
   58SAPC   O32 4325   0.415   6.267  10.339  0.9110 -0.5953 -0.2010
   58SAPC   C32 4326   0.485   6.255  10.108  0.0498  0.0488 -0.9215
   58SAPC   H2X 4327   0.421   6.191  10.044 -2.2296  0.3509  0.9136
   58SAPC   H2Y 4328   0.595   6.247  10.089  0.1884 -1.5773  0.2823
   58SAPC   C23 4329   0.361   5.646  10.077 -0.7469  0.1199  0.2031
   58SAPC   H3R 4330   0.261   5.615  10.114 -0.8966  1.2343  0.7693
   58SAPC   H3S 4331   0.383   5.591   9.983  0.7064  1.8559 -0.5334
   58SAPC   C24 4332   0.342   5.790  10.026  0.2526  0.6160 -0.8628
   58SAPC   H4R 4333   0.297   5.857  10.103 -0.8404  1.2539 -2.0083
   58SAPC   H4S 4334   0.274   5.799   9.938  0.1999 -1.1151 -1.0409
   58SAPC   C25 4335   0.470   5.862   9.986  0.1049  0.2821  0.3137
   58SAPC   H5R 4336   0.530   5.897  10.071  1.3847  1.8794 -1.1984
   58SAPC   C26 4337   0.523   5.867   9.867 -0.2774  0.3220  0.0123
   58SAPC   H6R 4338   0.617   5.923   9.854  0.4912 -0.9364 -0.0406
   58SAPC   C27 4339   0.457   5.825   9.735 -0.8199 -0.0433 -0.2942
   58SAPC   H7R 4340   0.379   5.754   9.770  0.5083 -0.5264  1.8674
   58SAPC   H7S 4341   0.538   5.771   9.681  1.6737  3.3438 -0.2855
   58SAPC   C28 4342   0.390   5.931   9.653  0.3876  0.5398  0.0570
   58SAPC   H8R 4343   0.323   5.998   9.710 -1.2973  1.0400 -2.3762
   58SAPC   C29 4344   0.371   5.944   9.523  0.1185 -0.3380  0.5664
   58SAPC   H9R 4345   0.311   6.028   9.484 -1.1274 -1.8175 -0.8818
   58SAPC  C210 4346   0.428   5.852   9.411  0.0933  0.0514 -0.1686
   58SAPC  H10R 4347   0.366   5.858   9.319  1.0580 -0.3237 -0.8646
   58SAPC  H10S 4348   0.417   5.748   9.450 -1.4705  0.4560  0.5369
   58SAPC  C211 4349   0.583   5.879   9.390  0.5386  0.2550  0.3631
   58SAPC  H11R 4350   0.629   5.941   9.469  3.1600 -0.3823 -0.5520
   58SAPC  C212 4351   0.665   5.831   9.289  0.4385 -0.4883 -0.0075
   58SAPC  H12R 4352   0.774   5.843   9.297  0.3479 -0.3977  1.3253
   58SAPC  C213 4353   0.609   5.740   9.186  0.0821  0.8433 -0.3626
   58SAPC  H13R 4354   0.662   5.750   9.089  0.7552 -1.9014 -0.3696
   58SAPC  H13S 4355   0.503   5.757   9.161 -0.1634 -2.4845 -2.1862
   58SAPC  C214 4356   0.611   5.592   9.224 -0.5666  0.3031 -0.3135
   58SAPC  H14R 4357   0.518   5.549   9.264  0.7033 -1.0928  1.2828
   58SAPC  C215 4358   0.725   5.513   9.212  0.0115 -0.2539 -0.1270
   58SAPC  H15R 4359   0.719   5.415   9.261  0.5179 -0.2265 -0.0051
   58SAPC  C216 4360   0.858   5.557   9.155 -0.7313 -0.2081 -0.0803
   58SAPC  H16R 4361   0.929   5.535   9.239 -0.1279  1.3142 -0.1647
   58SAPC  H16S 4362   0.872   5.662   9.123  1.5744 -0.8925 -1.5350
   58SAPC  C217 4363   0.893   5.479   9.033 -0.3343  0.0006 -1.0489
   58SAPC  H17R 4364   0.905   5.370   9.051  3.2098  0.4428  0.1745
   58SAPC  H17S 4365   0.993   5.521   9.006 -0.8686  1.4542 -0.8525
   58SAPC  C218 4366   0.798   5.502   8.922  0.7762 -0.7203 -0.5657
   58SAPC  H18R 4367   0.788   5.612   8.918  0.8749 -0.5089  2.4835
   58SAPC  H18S 4368   0.694   5.478   8.953  0.7748 -0.1531 -0.1127
   58SAPC  C219 4369   0.834   5.427   8.796  0.7548  0.1502 -0.0482
   58SAPC  H19R 4370   0.785   5.327   8.799 -0.3673  0.6856  2.3642
   58SAPC  H19S 4371   0.943   5.407   8.804  1.3882  3.0484 -0.4800
   58SAPC  C220 4372   0.810   5.497   8.658 -0.2410 -0.0523 -0.8018
   58SAPC  H20R 4373   0.879   5.583   8.644  0.0556  0.3857  2.5015
   58SAPC  H20S 4374   0.707   5.539   8.657 -0.0859  0.3359 -0.6239
   58SAPC  H20T 4375   0.828   5.419   8.581 -2.3903  0.2667 -1.7032
   58SAPC   C33 4376   0.443   6.409  10.100  0.4892 -0.4824 -0.4705
   58SAPC   H3X 4377   0.467   6.464  10.193 -2.0872  1.1168 -0.6575
   58SAPC   H3Y 4378   0.333   6.413  10.083  0.1113 -1.2797  1.5457
   58SAPC   C34 4379   0.505   6.490   9.983  0.2930 -0.2418  0.7294
   58SAPC   H4X 4380   0.609   6.529   9.994  1.6633 -1.9436 -3.7437
   58SAPC   H4Y 4381   0.436   6.577   9.975 -2.1844 -2.1561  0.0252
   58SAPC   C35 4382   0.483   6.427   9.841  0.1251 -0.2808 -0.3769
   58SAPC   H5X 4383   0.550   6.338   9.841  0.3271 -0.1631 -2.0364
   58SAPC   H5Y 4384   0.527   6.498   9.768  1.2103  0.8679  1.3160
   58SAPC   C36 4385   0.340   6.390   9.811 -0.1607 -0.4730 -0.0989
   58SAPC   H6X 4386   0.272   6.474   9.833  0.3217 -0.0423 -0.2287
   58SAPC   H6Y 4387   0.308   6.313   9.885 -0.8149 -0.0881  0.0227
   58SAPC   C37 4388   0.317   6.347   9.665  0.5540  0.2968 -0.1412
   58SAPC   H7X 4389   0.212   6.312   9.659  0.3823  0.9455 -1.0760
   58SAPC   H7Y 4390   0.385   6.266   9.633 -0.8597 -0.7686 -0.5429
   58SAPC   C38 4391   0.328   6.464   9.564  0.0692 -0.2584 -0.7255
   58SAPC   H8X 4392   0.427   6.509   9.587 -1.7045  2.7899  1.8225
   58SAPC   H8Y 4393   0.255   6.543   9.594 -0.0299 -0.6737  0.1778
   58SAPC   C39 4394   0.315   6.424   9.415 -0.1180 -0.1261 -0.4999
   58SAPC   H9X 4395   0.308   6.515   9.351 -0.7751 -1.8565 -3.0253
   58SAPC   H9Y 4396   0.220   6.367   9.411 -0.7402  0.5011  2.5542
   58SAPC  C310 4397   0.427   6.329   9.363  0.8327 -0.5390 -0.3218
   58SAPC  H10X 4398   0.453   6.241   9.426  0.4262  1.1994  2.4518
   58SAPC  H10Y 4399   0.521   6.387   9.350  0.7784 -0.1122  1.0144
   58SAPC  C311 4400   0.390   6.275   9.226 -0.2605 -0.6796 -0.2317
   58SAPC  H11X 4401   0.373   6.361   9.157  0.5719  0.4442  0.9176
   58SAPC  H11Y 4402   0.286   6.238   9.227 -0.5051 -0.1177 -1.9193
   58SAPC  C312 4403   0.490   6.187   9.163  0.0217  0.1109 -0.0955
   58SAPC  H12X 4404   0.476   6.089   9.213 -0.1592  0.4312  0.4948
   58SAPC  H12Y 4405   0.587   6.235   9.188 -1.2762  2.1282  1.4306
   58SAPC  C313 4406   0.477   6.155   9.010  0.5162  0.6231  0.0318
   58SAPC  H13X 4407   0.485   6.247   8.948 -0.6862  1.7525  1.4766
   58SAPC  H13Y 4408   0.383   6.096   9.006  1.8098 -1.6302  1.1428
   58SAPC  C314 4409   0.576   6.041   8.958  0.1011 -0.0043  0.5537
   58SAPC  H14X 4410   0.531   5.940   8.971  2.1379 -0.8949  1.1680
   58SAPC  H14Y 4411   0.679   6.062   8.995  0.6263  0.0645 -0.9017
   58SAPC  C315 4412   0.589   6.055   8.806 -0.4175  0.1478 -0.5710
   58SAPC  H15X 4413   0.596   6.162   8.779  0.4967  0.3459  0.3565
   58SAPC  H15Y 4414   0.493   6.017   8.767 -0.6098 -2.2425  1.8829
   58SAPC  C316 4415   0.696   5.970   8.741 -0.7278  0.1685  0.7315
   58SAPC  H16X 4416   0.685   5.864   8.771 -0.7683 -0.0906 -0.1918
   58SAPC  H16Y 4417   0.794   6.016   8.766 -0.1041 -0.7412  0.0019
   58SAPC  C317 4418   0.688   5.962   8.586  0.1290  0.7031  0.0134
   58SAPC  H17X 4419   0.722   6.050   8.527 -1.4176  0.4348 -1.3747
   58SAPC  H17Y 4420   0.584   5.936   8.555  0.8998 -1.4008 -1.0304
   58SAPC  C318 4421   0.776   5.855   8.526 -0.4576 -0.2565 -0.0459
   58SAPC  H18X 4422   0.882   5.879   8.548 -0.2556 -3.0397  2.6331
   58SAPC  H18Y 4423   0.770   5.849   8.416  0.2487 -0.6642 -0.0631
   58SAPC  H18Z 4424   0.758   5.751   8.559 -0.5356 -1.5454 -3.7679
   59SAPC     N 4425   2.271   6.354  11.114 -0.1233 -0.3768  0.5864
   59SAPC   C12 4426   2.122   6.323  11.137 -0.6536 -0.1717 -0.0278
   59SAPC  H12A 4427   2.066   6.367  11.056 -1.0197  1.5115  1.0894
   59SAPC  H12B 4428   2.090   6.373  11.228 -1.7374  0.4615 -0.7381
   59SAPC   C13 4429   2.287   6.501  11.082 -0.8482  0.9927 -0.4652
   59SAPC  H13A 4430   2.234   6.528  10.992  2.1963  1.6721 -2.2220
   59SAPC  H13B 4431   2.266   6.564  11.167  1.0290  0.4500  0.4639
   59SAPC  H13C 4432   2.389   6.528  11.058 -0.0501  0.6679  2.2605
   59SAPC   C14 4433   2.346   6.333  11.234  0.1830  0.0342 -0.5020
   59SAPC  H14A 4434   2.299   6.383  11.317  2.3537 -0.5713  1.2043
   59SAPC  H14B 4435   2.338   6.229  11.264 -0.5764  0.4240  0.7080
   59SAPC  H14C 4436   2.451   6.357  11.230  0.1717  0.1290 -0.2209
   59SAPC   C15 4437   2.321   6.280  10.996 -0.0292 -0.1438 -0.7208
   59SAPC  H15A 4438   2.263   6.311  10.911 -1.9786 -1.9014 -0.1372
   59SAPC  H15B 4439   2.422   6.303  10.967  0.5928 -1.9099 -0.1001
   59SAPC  H15C 4440   2.312   6.173  11.014 -2.5433  0.4217  2.4437
   59SAPC   C11 4441   2.082   6.176  11.159 -0.1261 -0.1873 -0.0186
   59SAPC  H11A 4442   1.980   6.178  11.202  0.1313  0.3417  0.5856
   59SAPC  H11B 4443   2.134   6.134  11.248 -0.8360 -1.6301 -0.2479
   59SAPC     P 4444   1.998   6.126  10.920  0.2724  0.0613 -0.0969
   59SAPC   O13 4445   2.074   6.090  10.803  0.8412  0.1492  0.5635
   59SAPC   O14 4446   1.863   6.057  10.943  0.3400 -0.2995  0.0240
   59SAPC   O12 4447   2.089   6.095  11.045 -0.2754  0.3663 -0.0094
   59SAPC   O11 4448   1.971   6.278  10.914  0.4656  1.1416  0.0201
   59SAPC    C1 4449   1.859   6.358  10.896  0.4998  0.6147 -0.4228
   59SAPC    HA 4450   1.798   6.338  10.987  3.3870 -0.9531  1.3391
   59SAPC    HB 4451   1.900   6.461  10.904  1.0681  0.3583  0.0593
   59SAPC    C2 4452   1.785   6.340  10.754 -0.1183 -0.3833  0.1301
   59SAPC    HS 4453   1.732   6.242  10.763 -1.1023  0.0665 -0.4866
   59SAPC   O21 4454   1.881   6.351  10.645 -0.1418  0.4415  0.1304
   59SAPC   C21 4455   1.870   6.267  10.543 -0.3056  0.3362  0.2209
   59SAPC   O22 4456   1.786   6.181  10.537  0.2597  0.1006 -0.2356
   59SAPC   C22 4457   1.981   6.286  10.441 -0.8651 -1.1615 -0.2259
   59SAPC   H2R 4458   2.032   6.382  10.461 -2.4702 -0.4795  0.7802
   59SAPC   H2S 4459   2.045   6.198  10.461  0.1345 -0.1469  1.2579
   59SAPC    C3 4460   1.682   6.456  10.737 -0.1856 -0.8426 -0.7341
   59SAPC    HX 4461   1.749   6.545  10.740  0.5565 -1.4297  1.2376
   59SAPC    HY 4462   1.618   6.461  10.827  0.0046 -4.0054 -0.3064
   59SAPC   O31 4463   1.605   6.442  10.617  0.0769 -0.1131 -0.3869
   59SAPC   C31 4464   1.513   6.361  10.627 -0.2575  0.6359  0.1995
   59SAPC   O32 4465   1.484   6.292  10.725  0.9800  0.1803 -0.1088
   59SAPC   C32 4466   1.456   6.345  10.478  0.0308  0.2497  0.2687
   59SAPC   H2X 4467   1.535   6.336  10.400  0.8259  0.9473  0.9770
   59SAPC   H2Y 4468   1.417   6.446  10.454  0.1706  0.1603 -0.3572
   59SAPC   C23 4469   1.933   6.266  10.295  0.0155  0.1718  0.2879
   59SAPC   H3R 4470   1.899   6.162  10.275 -0.2887  0.4534 -0.7195
   59SAPC   H3S 4471   2.027   6.271  10.236  0.8433  0.2060  1.5737
   59SAPC   C24 4472   1.834   6.370  10.247 -0.2699  0.5051  0.1579
   59SAPC   H4R 4473   1.857   6.471  10.288 -0.7425  0.7684 -0.2073
   59SAPC   H4S 4474   1.732   6.346  10.282  0.3592 -0.1280  1.6245
   59SAPC   C25 4475   1.826   6.366  10.100  0.4152  0.2383  0.1944
   59SAPC   H5R 4476   1.772   6.276  10.067 -1.7586  0.9522  1.5673
   59SAPC   C26 4477   1.879   6.444  10.011 -0.3294 -0.9615  0.2020
   59SAPC   H6R 4478   1.867   6.409   9.907 -0.1010 -0.3886 -0.0214
   59SAPC   C27 4479   1.965   6.573  10.019  0.2805 -0.8126  0.7504
   59SAPC   H7R 4480   2.068   6.537  10.039 -0.7179 -3.5649  1.4850
   59SAPC   H7S 4481   1.952   6.630  10.113  0.1969  0.2094  0.1253
   59SAPC   C28 4482   1.934   6.674   9.911  0.1550  0.7470  0.3358
   59SAPC   H8R 4483   1.826   6.690   9.904  0.2160  1.9205  1.6398
   59SAPC   C29 4484   2.019   6.735   9.828 -0.1479  0.5373 -0.0305
   59SAPC   H9R 4485   1.970   6.797   9.751 -1.6791 -1.0077 -0.3649
   59SAPC  C210 4486   2.169   6.708   9.821  0.1763  0.4448  0.2370
   59SAPC  H10R 4487   2.179   6.615   9.761 -2.4556 -1.7461  2.9367
   59SAPC  H10S 4488   2.210   6.677   9.919  1.1870 -2.5195 -0.9963
   59SAPC  C211 4489   2.247   6.827   9.774 -0.3574  0.0124  0.0222
   59SAPC  H11R 4490   2.280   6.824   9.669  0.2172  0.6376  0.1733
   59SAPC  C212 4491   2.290   6.935   9.845  0.2350  0.2053  0.0544
   59SAPC  H12R 4492   2.340   7.017   9.792 -1.0260  0.0421 -1.4776
   59SAPC  C213 4493   2.262   6.963   9.996 -0.8834 -0.2823  0.0876
   59SAPC  H13R 4494   2.196   6.884  10.040 -1.4359  0.4834  0.6722
   59SAPC  H13S 4495   2.208   7.059  10.012  2.6255  1.5592  2.2270
   59SAPC  C214 4496   2.391   6.962  10.078 -0.4501  0.1468  0.0957
   59SAPC  H14R 4497   2.483   6.997  10.030 -0.0167  1.0777  1.5572
   59SAPC  C215 4498   2.409   6.922  10.206 -0.1827 -0.1807  0.1632
   59SAPC  H15R 4499   2.502   6.946  10.260  0.1808 -0.6023 -0.2557
   59SAPC  C216 4500   2.309   6.865  10.295  0.3104 -0.5937  0.4190
   59SAPC  H16R 4501   2.218   6.926  10.276  0.8239 -0.3563 -1.4777
   59SAPC  H16S 4502   2.340   6.885  10.400 -0.6544  0.5087  0.5197
   59SAPC  C217 4503   2.276   6.713  10.275 -0.2722 -1.1609  0.4783
   59SAPC  H17R 4504   2.346   6.661  10.344  0.6553 -2.2483 -1.2365
   59SAPC  H17S 4505   2.305   6.681  10.173 -0.4271  2.4746 -0.8692
   59SAPC  C218 4506   2.132   6.689  10.313 -0.3234  0.2639 -0.0362
   59SAPC  H18R 4507   2.111   6.581  10.295  0.0056 -0.2672  2.4207
   59SAPC  H18S 4508   2.071   6.748  10.242  0.5995 -1.8448 -2.7684
   59SAPC  C219 4509   2.113   6.708  10.461 -0.3408 -0.1636  0.2268
   59SAPC  H19R 4510   2.135   6.808  10.504 -3.8099  0.0773  1.7723
   59SAPC  H19S 4511   2.180   6.631  10.504  2.0652  0.9324 -1.3710
   59SAPC  C220 4512   1.974   6.676  10.502 -0.4156  0.1783 -0.2132
   59SAPC  H20R 4513   1.935   6.582  10.459 -2.2063  0.4585  0.6948
   59SAPC  H20S 4514   1.904   6.759  10.477 -0.2888 -0.0545 -1.3690
   59SAPC  H20T 4515   1.963   6.657  10.611 -2.9453  0.2930 -0.3787
   59SAPC   C33 4516   1.338   6.243  10.457 -0.9067 -0.1839 -1.3706
   59SAPC   H3X 4517   1.253   6.259  10.526  0.4208  0.5166  0.1718
   59SAPC   H3Y 4518   1.364   6.135  10.472  0.7223  0.5354  1.7442
   59SAPC   C34 4519   1.272   6.254  10.322 -0.3682 -0.2824 -0.0716
   59SAPC   H4X 4520   1.229   6.353  10.296  0.3232 -0.1002 -0.5506
   59SAPC   H4Y 4521   1.194   6.176  10.305  0.1158 -0.5654 -1.1046
   59SAPC   C35 4522   1.370   6.230  10.216 -0.2853  0.3425 -0.2740
   59SAPC   H5X 4523   1.426   6.137  10.239 -0.0284  0.6116  0.1962
   59SAPC   H5Y 4524   1.435   6.320  10.207  2.8037 -1.7516 -0.4095
   59SAPC   C36 4525   1.302   6.203  10.078  0.2529 -0.7657  0.1286
   59SAPC   H6X 4526   1.251   6.301  10.065  0.6630 -0.3308  1.5627
   59SAPC   H6Y 4527   1.218   6.130  10.077  0.3191 -0.8492  0.5225
   59SAPC   C37 4528   1.385   6.194   9.948  0.4333  0.3650 -0.7890
   59SAPC   H7X 4529   1.423   6.090   9.949  1.7696  0.8331  0.1630
   59SAPC   H7Y 4530   1.476   6.257   9.955  1.1193 -0.6915  0.1115
   59SAPC   C38 4531   1.308   6.212   9.819  0.1787 -0.2902  0.2617
   59SAPC   H8X 4532   1.253   6.308   9.813 -0.4855 -0.6244  0.8348
   59SAPC   H8Y 4533   1.242   6.127   9.791 -0.1675  0.5741 -1.7196
   59SAPC   C39 4534   1.404   6.199   9.696 -0.1204 -0.7264 -0.3618
   59SAPC   H9X 4535   1.457   6.101   9.702  1.0034 -0.0726  1.2245
   59SAPC   H9Y 4536   1.489   6.270   9.708  0.7542 -1.8252  0.1063
   59SAPC  C310 4537   1.343   6.214   9.557  0.2789  0.6826 -0.2248
   59SAPC  H10X 4538   1.308   6.320   9.560  1.6983  1.1449  1.7159
   59SAPC  H10Y 4539   1.257   6.145   9.542 -1.3221  2.2896  1.0968
   59SAPC  C311 4540   1.432   6.199   9.433 -0.1095  0.3601  0.4826
   59SAPC  H11X 4541   1.488   6.103   9.442  1.4817  0.9818 -2.0474
   59SAPC  H11Y 4542   1.509   6.278   9.427  0.4291  0.0708  2.7329
   59SAPC  C312 4543   1.348   6.208   9.307  0.1833  0.2438  0.4805
   59SAPC  H12X 4544   1.281   6.296   9.297  0.4383  0.3104 -0.8358
   59SAPC  H12Y 4545   1.290   6.115   9.293 -0.2982  0.6434 -0.2284
   59SAPC  C313 4546   1.450   6.210   9.187  0.5453 -0.2233 -0.4498
   59SAPC  H13X 4547   1.527   6.132   9.200  1.6990  0.8005 -0.9463
   59SAPC  H13Y 4548   1.505   6.306   9.193 -3.5144  2.3651 -0.6349
   59SAPC  C314 4549   1.383   6.222   9.049 -0.2408 -0.2433 -0.0927
   59SAPC  H14X 4550   1.316   6.309   9.058 -0.0532 -0.2720  2.2646
   59SAPC  H14Y 4551   1.314   6.136   9.038  1.3458 -1.6754  0.7161
   59SAPC  C315 4552   1.481   6.238   8.939  0.2619  0.4298  0.4226
   59SAPC  H15X 4553   1.562   6.163   8.951  0.6450  0.7263 -0.2866
   59SAPC  H15Y 4554   1.525   6.338   8.957 -0.3786  0.5955  1.1350
   59SAPC  C316 4555   1.423   6.245   8.794 -1.1059 -0.5508  0.0788
   59SAPC  H16X 4556   1.377   6.346   8.784  0.2351  0.0843  0.0752
   59SAPC  H16Y 4557   1.354   6.161   8.774 -0.7439 -0.1046 -3.9364
   59SAPC  C317 4558   1.538   6.253   8.685  0.6690 -0.5525 -0.6344
   59SAPC  H17X 4559   1.595   6.158   8.678 -1.1714 -1.5724 -3.3732
   59SAPC  H17Y 4560   1.603   6.340   8.708  2.3387 -1.5520 -1.3305
   59SAPC  C318 4561   1.487   6.285   8.540 -0.2978 -0.5119 -0.5168
   59SAPC  H18X 4562   1.441   6.386   8.540  1.9985  0.5899 -0.7392
   59SAPC  H18Y 4563   1.431   6.206   8.485  0.9165 -1.2565 -0.7203
   59SAPC  H18Z 4564   1.579   6.293   8.479 -0.5473  0.4901 -0.7852
   60SAPC     N 4565   4.043   6.143  10.797  0.1199 -0.3447  0.0475
   60SAPC   C12 4566   4.005   6.175  10.650 -0.0705  0.4583  0.3561
   60SAPC  H12A 4567   4.023   6.085  10.593  0.6809  2.3534 -2.6503
   60SAPC  H12B 4568   4.080   6.241  10.609 -1.6526  0.8221 -2.2017
   60SAPC   C13 4569   3.935   6.077  10.878  0.8883  0.0130 -0.3461
   60SAPC  H13A 4570   3.855   6.149  10.886  1.9482  1.2639 -0.6334
   60SAPC  H13B 4571   3.900   5.978  10.855  0.2237  0.1766 -0.0667
   60SAPC  H13C 4572   3.971   6.070  10.979  0.0273 -0.6109 -0.0701
   60SAPC   C14 4573   4.173   6.063  10.823  0.2721 -0.6783 -0.1611
   60SAPC  H14A 4574   4.162   5.959  10.796  3.4425 -0.6776 -1.8952
   60SAPC  H14B 4575   4.257   6.095  10.763  0.3999 -1.3200 -0.3268
   60SAPC  H14C 4576   4.189   6.075  10.930 -0.9921  0.2638 -0.0472
   60SAPC   C15 4577   4.060   6.278  10.862 -0.1669 -0.2712  0.3692
   60SAPC  H15A 4578   4.153   6.319  10.825 -0.2539 -0.0999  0.3365
   60SAPC  H15B 4579   3.975   6.337  10.833 -0.8621 -1.6191 -0.4432
   60SAPC  H15C 4580   4.064   6.273  10.970 -1.0057  1.7434  0.5262
   60SAPC   C11 4581   3.866   6.233  10.613  0.0817  0.0072  0.1821
   60SAPC  H11A 4582   3.791   6.150  10.612 -0.7182  0.6839 -2.1093
   60SAPC  H11B 4583   3.875   6.261  10.506 -1.1100  1.9617  0.5453
   60SAPC     P 4584   3.696   6.366  10.778 -0.4126  0.1284  0.3570
   60SAPC   O13 4585   3.682   6.256  10.874 -0.2020 -0.6954  0.2817
   60SAPC   O14 4586   3.703   6.505  10.826  0.5360 -0.0042 -0.1157
   60SAPC   O12 4587   3.831   6.349  10.688 -0.4543  0.7339 -0.1702
   60SAPC   O11 4588   3.583   6.355  10.669  0.2143  0.6517 -0.5588
   60SAPC    C1 4589   3.600   6.414  10.536  0.0425  0.0748  0.7418
   60SAPC    HA 4590   3.545   6.511  10.537  1.4696  0.9156  1.6187
   60SAPC    HB 4591   3.700   6.439  10.495  0.0251 -2.3230 -0.9358
   60SAPC    C2 4592   3.544   6.313  10.433 -0.4388  0.3339 -0.3691
   60SAPC    HS 4593   3.610   6.225  10.444 -0.4407  0.5222  1.5172
   60SAPC   O21 4594   3.541   6.384  10.302  0.7437  0.4949  0.3072
   60SAPC   C21 4595   3.656   6.364  10.236  0.6432  0.4091  0.7343
   60SAPC   O22 4596   3.740   6.288  10.266 -0.3903  0.4516  0.3433
   60SAPC   C22 4597   3.646   6.430  10.100  0.3029  0.0745 -0.3063
   60SAPC   H2R 4598   3.553   6.400  10.047 -0.0296 -0.8506  0.7621
   60SAPC   H2S 4599   3.642   6.539  10.120  1.9365 -0.2264  2.0697
   60SAPC    C3 4600   3.398   6.273  10.470 -0.4312 -0.4243 -0.7805
   60SAPC    HX 4601   3.341   6.367  10.483 -0.3102 -0.6426  1.8681
   60SAPC    HY 4602   3.394   6.232  10.574  1.1521  0.4291 -0.3493
   60SAPC   O31 4603   3.340   6.176  10.386  0.1416 -0.4095  0.6304
   60SAPC   C31 4604   3.370   6.050  10.412  0.1639  0.2041  0.1817
   60SAPC   O32 4605   3.462   6.012  10.480 -0.1404 -0.4037 -0.3516
   60SAPC   C32 4606   3.289   5.967  10.313 -0.2434  0.6455 -0.0655
   60SAPC   H2X 4607   3.181   5.996  10.309  0.2447  2.4388 -1.6456
   60SAPC   H2Y 4608   3.284   5.863  10.353 -4.9426  0.5358 -0.2957
   60SAPC   C23 4609   3.764   6.391  10.008  0.2738 -0.8105  0.6299
   60SAPC   H3R 4610   3.765   6.281   9.997 -0.3715 -0.7273 -0.3533
   60SAPC   H3S 4611   3.857   6.413  10.066 -0.0037 -2.0071  1.5547
   60SAPC   C24 4612   3.764   6.477   9.880  0.4903 -0.5440  0.3051
   60SAPC   H4R 4613   3.860   6.460   9.827  1.2908 -0.8537  1.7914
   60SAPC   H4S 4614   3.769   6.584   9.912 -1.4606 -0.1464 -0.5631
   60SAPC   C25 4615   3.638   6.455   9.798  0.4867  0.5958  0.2059
   60SAPC   H5R 4616   3.547   6.506   9.832 -0.2853 -1.9239  2.3034
   60SAPC   C26 4617   3.629   6.386   9.683 -0.6646  0.1677  0.4128
   60SAPC   H6R 4618   3.531   6.370   9.635  0.0898 -1.0238 -0.8266
   60SAPC   C27 4619   3.741   6.324   9.603 -0.3245  0.3807 -0.1646
   60SAPC   H7R 4620   3.728   6.214   9.611  0.2473  0.0581 -2.7095
   60SAPC   H7S 4621   3.839   6.353   9.648 -0.1493  2.2237 -1.5916
   60SAPC   C28 4622   3.759   6.364   9.459 -0.2226 -0.4085 -0.1397
   60SAPC   H8R 4623   3.759   6.473   9.447  1.8188 -0.3862 -0.3809
   60SAPC   C29 4624   3.787   6.281   9.359 -0.3039  0.1173  0.5713
   60SAPC   H9R 4625   3.815   6.333   9.266  0.6984  0.2084  0.9178
   60SAPC  C210 4626   3.789   6.126   9.380 -0.0789  0.3213  0.0032
   60SAPC  H10R 4627   3.701   6.096   9.441  0.9383 -1.2113  0.7880
   60SAPC  H10S 4628   3.869   6.103   9.453 -1.1403 -1.5841  0.6455
   60SAPC  C211 4629   3.795   6.031   9.258  0.4209  0.5147  0.2584
   60SAPC  H11R 4630   3.884   5.967   9.251 -0.4548 -0.6941 -0.1799
   60SAPC  C212 4631   3.702   6.022   9.158  0.0291 -0.4875 -0.4122
   60SAPC  H12R 4632   3.736   5.962   9.072 -0.3926 -2.9134  1.0045
   60SAPC  C213 4633   3.575   6.110   9.162  0.7794 -0.2749 -0.0370
   60SAPC  H13R 4634   3.560   6.156   9.262 -2.5248  1.1695 -1.0383
   60SAPC  H13S 4635   3.490   6.039   9.150  2.4989 -2.1827 -1.5978
   60SAPC  C214 4636   3.564   6.209   9.052  0.6814 -0.1490 -0.5855
   60SAPC  H14R 4637   3.628   6.297   9.068  0.8401 -0.6127  1.6856
   60SAPC  C215 4638   3.473   6.221   8.953  0.1875  0.0091 -0.1280
   60SAPC  H15R 4639   3.496   6.307   8.888  0.9644 -0.7549 -0.8963
   60SAPC  C216 4640   3.364   6.129   8.910 -0.8114 -0.1033  0.4362
   60SAPC  H16R 4641   3.354   6.038   8.972  1.3395 -1.3042 -0.8492
   60SAPC  H16S 4642   3.392   6.093   8.808  1.4386 -0.8629  1.2660
   60SAPC  C217 4643   3.223   6.195   8.910  0.1354  0.1235  0.2555
   60SAPC  H17R 4644   3.204   6.254   9.003 -0.6065 -0.0728  0.2346
   60SAPC  H17S 4645   3.138   6.123   8.905 -2.1205  2.2532  3.5679
   60SAPC  C218 4646   3.208   6.308   8.803 -0.3209 -0.4264 -0.2751
   60SAPC  H18R 4647   3.196   6.268   8.700 -3.8970  1.7109 -0.8610
   60SAPC  H18S 4648   3.302   6.368   8.809  1.1080 -2.4963 -0.8315
   60SAPC  C219 4649   3.083   6.399   8.809 -0.3641 -0.4875  0.1752
   60SAPC  H19R 4650   3.087   6.457   8.904  0.3937  1.0323 -0.7452
   60SAPC  H19S 4651   2.994   6.333   8.807  0.0155 -1.0062  0.1814
   60SAPC  C220 4652   3.058   6.500   8.692 -0.2069  0.0635  0.3499
   60SAPC  H20R 4653   3.085   6.456   8.593  2.0779 -0.0420  0.9667
   60SAPC  H20S 4654   3.117   6.594   8.696 -0.2625  0.1955 -1.1019
   60SAPC  H20T 4655   2.954   6.538   8.699 -0.4348 -0.6011  0.6879
   60SAPC   C33 4656   3.355   5.957  10.173 -0.2846 -0.0385 -0.1270
   60SAPC   H3X 4657   3.297   5.886  10.110 -1.0938  0.5376 -0.0511
   60SAPC   H3Y 4658   3.460   5.922  10.171 -0.5829 -0.9634 -0.4384
   60SAPC   C34 4659   3.357   6.092  10.097 -0.0340 -0.1166 -0.4221
   60SAPC   H4X 4660   3.427   6.156  10.155  0.1293 -2.0426  1.6524
   60SAPC   H4Y 4661   3.252   6.128  10.108  0.5228  1.0517  1.7352
   60SAPC   C35 4662   3.376   6.081   9.946  0.1615 -0.8265 -0.1212
   60SAPC   H5X 4663   3.355   6.185   9.912  1.1266  0.0019  1.7239
   60SAPC   H5Y 4664   3.301   6.011   9.903 -1.4215  0.9384 -0.3692
   60SAPC   C36 4665   3.521   6.048   9.898 -0.2712  0.0237  0.4762
   60SAPC   H6X 4666   3.568   5.972   9.964 -0.6239 -2.4255 -1.9645
   60SAPC   H6Y 4667   3.574   6.146   9.903  0.3970 -0.3421  0.6805
   60SAPC   C37 4668   3.525   6.001   9.760  0.7115 -0.0045 -0.1576
   60SAPC   H7X 4669   3.622   6.028   9.711 -0.5071  1.4736 -1.8975
   60SAPC   H7Y 4670   3.444   6.057   9.709  1.7632  0.9249 -0.8712
   60SAPC   C38 4671   3.496   5.854   9.744 -0.1543 -0.2002  0.0825
   60SAPC   H8X 4672   3.394   5.827   9.781 -0.2511  0.7500  0.5162
   60SAPC   H8Y 4673   3.572   5.794   9.798  0.2804  0.6430  0.4192
   60SAPC   C39 4674   3.509   5.809   9.598  0.6601  0.6902  0.6244
   60SAPC   H9X 4675   3.504   5.698   9.598  0.5341  0.5280 -3.6723
   60SAPC   H9Y 4676   3.609   5.846   9.566  0.4137  1.4703  0.7357
   60SAPC  C310 4677   3.406   5.869   9.502  0.4046  0.3002 -0.6328
   60SAPC  H10X 4678   3.406   5.979   9.516  3.4485  0.0891  2.2131
   60SAPC  H10Y 4679   3.312   5.827   9.542 -0.7933  2.4298 -1.0549
   60SAPC  C311 4680   3.432   5.829   9.361 -0.4825 -0.3510 -0.2660
   60SAPC  H11X 4681   3.536   5.857   9.335 -0.8326  1.6346  0.3036
   60SAPC  H11Y 4682   3.367   5.883   9.290  1.2441  2.4733  0.1761
   60SAPC  C312 4683   3.419   5.678   9.316 -0.8066  0.0108 -0.1331
   60SAPC  H12X 4684   3.319   5.641   9.346 -1.4126  0.8892 -1.0258
   60SAPC  H12Y 4685   3.508   5.629   9.362 -1.5220 -1.7479 -0.5535
   60SAPC  C313 4686   3.432   5.665   9.166  0.2953  0.2595  0.1403
   60SAPC  H13X 4687   3.513   5.729   9.126 -1.9873  2.1821 -1.6927
   60SAPC  H13Y 4688   3.340   5.702   9.116  0.5341 -0.1140 -0.5974
   60SAPC  C314 4689   3.458   5.521   9.126  0.2323  0.0191 -0.1625
   60SAPC  H14X 4690   3.376   5.460   9.169 -0.1070 -0.2501 -1.1652
   60SAPC  H14Y 4691   3.550   5.487   9.177 -0.8354 -1.9162  0.5736
   60SAPC  C315 4692   3.463   5.505   8.970  0.0054 -1.1111 -0.2517
   60SAPC  H15X 4693   3.543   5.571   8.928 -3.2039  1.0060 -3.7105
   60SAPC  H15Y 4694   3.372   5.552   8.927  1.2420  1.1261 -0.6096
   60SAPC  C316 4695   3.487   5.366   8.934  0.0009  0.2511 -0.2354
   60SAPC  H16X 4696   3.404   5.301   8.968 -0.5967  0.4111 -1.3417
   60SAPC  H16Y 4697   3.571   5.322   8.992 -2.1381 -4.4257 -0.2026
   60SAPC  C317 4698   3.516   5.354   8.783 -0.8372  0.0362  0.5544
   60SAPC  H17X 4699   3.570   5.443   8.745  2.1565 -1.0772  1.9267
   60SAPC  H17Y 4700   3.422   5.343   8.724  0.4805 -3.0551 -1.2012
   60SAPC  C318 4701   3.604   5.229   8.756 -0.4630  0.5010  0.3817
   60SAPC  H18X 4702   3.545   5.137   8.772 -1.8691  1.2147 -0.5007
   60SAPC  H18Y 4703   3.699   5.222   8.815 -0.5283 -0.3078  0.3916
   60SAPC  H18Z 4704   3.627   5.220   8.648 -0.8897 -1.0018  0.3991
   61SAPC     N 4705   4.364   5.333  11.138  0.1802  0.6978  0.6335
   61SAPC   C12 4706   4.322   5.199  11.076 -0.4018 -0.0782 -0.4361
   61SAPC  H12A 4707   4.317   5.205  10.969  4.8681 -1.7268 -1.0681
   61SAPC  H12B 4708   4.225   5.176  11.117 -0.0530 -1.3050 -0.2697
   61SAPC   C13 4709   4.268   5.440  11.096 -0.9321 -0.0321 -0.5933
   61SAPC  H13A 4710   4.164   5.420  11.119 -0.5755  0.4583  1.6890
   61SAPC  H13B 4711   4.276   5.537  11.143 -1.4936  0.1330 -0.8251
   61SAPC  H13C 4712   4.268   5.463  10.990 -0.5892  1.3112 -0.3160
   61SAPC   C14 4713   4.361   5.326  11.286 -0.2854  0.2133  0.1461
   61SAPC  H14A 4714   4.426   5.247  11.321  3.0742  3.0215  0.8334
   61SAPC  H14B 4715   4.411   5.410  11.331  1.6477 -0.8968  0.2126
   61SAPC  H14C 4716   4.264   5.308  11.331  0.3242  0.8261  1.7843
   61SAPC   C15 4717   4.512   5.365  11.108  0.1827 -0.6201 -0.2332
   61SAPC  H15A 4718   4.591   5.309  11.156 -0.8589  0.0053  2.4330
   61SAPC  H15B 4719   4.524   5.373  11.001 -0.2779  2.3724 -0.1340
   61SAPC  H15C 4720   4.520   5.467  11.143 -1.4436 -0.2349 -0.9404
   61SAPC   C11 4721   4.421   5.087  11.104 -0.3783  0.8144 -0.5293
   61SAPC  H11A 4722   4.356   4.998  11.096 -0.2787  0.5109  1.4863
   61SAPC  H11B 4723   4.463   5.091  11.207  1.7091  2.3432 -1.3545
   61SAPC     P 4724   4.522   4.991  10.886 -0.2203 -0.4539 -0.2572
   61SAPC   O13 4725   4.659   4.984  10.831 -0.1566  0.1282  0.5709
   61SAPC   O14 4726   4.457   4.864  10.921 -0.4159  0.4181 -0.1727
   61SAPC   O12 4727   4.531   5.084  11.008  0.4082  0.1307 -1.0281
   61SAPC   O11 4728   4.432   5.070  10.796 -0.3490 -0.1362 -0.1033
   61SAPC    C1 4729   4.447   5.212  10.764  0.0684  0.3344  0.3845
   61SAPC    HA 4730   4.374   5.275  10.821 -0.5495  1.9444 -2.0005
   61SAPC    HB 4731   4.548   5.244  10.796 -0.6948 -0.2140  3.6979
   61SAPC    C2 4732   4.418   5.238  10.612  0.2033  0.5442 -0.0812
   61SAPC    HS 4733   4.322   5.182  10.607  0.2445  0.2821  1.5845
   61SAPC   O21 4734   4.511   5.184  10.524  0.0171 -0.1205 -0.3843
   61SAPC   C21 4735   4.466   5.146  10.408 -0.4738  0.8128  0.1927
   61SAPC   O22 4736   4.352   5.118  10.378  0.0724 -0.2373 -0.0100
   61SAPC   C22 4737   4.585   5.122  10.315  0.7885 -0.0915 -0.1617
   61SAPC   H2R 4738   4.672   5.131  10.383 -0.0955  2.9869  0.7413
   61SAPC   H2S 4739   4.581   5.019  10.273 -1.6081 -0.8560  1.6764
   61SAPC    C3 4740   4.385   5.393  10.570 -0.0037  0.0050  0.2808
   61SAPC    HX 4741   4.476   5.456  10.563  0.8808 -1.2049  0.5832
   61SAPC    HY 4742   4.329   5.426  10.660  0.4925  1.5091  0.0658
   61SAPC   O31 4743   4.309   5.408  10.450 -0.4083  0.1118 -0.3254
   61SAPC   C31 4744   4.184   5.438  10.457  0.1858  0.7578 -0.6737
   61SAPC   O32 4745   4.114   5.413  10.557  0.1074 -0.2463  0.1277
   61SAPC   C32 4746   4.137   5.499  10.327 -0.0586  0.1502  0.2085
   61SAPC   H2X 4747   4.111   5.604  10.353 -0.0576  0.6088 -1.5203
   61SAPC   H2Y 4748   4.039   5.447  10.314 -0.0536 -0.1140  1.1558
   61SAPC   C23 4749   4.583   5.227  10.204 -0.0666  0.6576  0.7116
   61SAPC   H3R 4750   4.597   5.331  10.242  0.0191  1.4253 -1.3368
   61SAPC   H3S 4751   4.491   5.238  10.143  0.3694  0.2146 -0.0397
   61SAPC   C24 4752   4.705   5.200  10.113 -0.2232 -0.1426  0.0922
   61SAPC   H4R 4753   4.696   5.092  10.091 -1.4222  0.4283 -2.6789
   61SAPC   H4S 4754   4.798   5.216  10.171  0.3243  1.7433 -1.1785
   61SAPC   C25 4755   4.698   5.292   9.988 -0.0663 -0.4375  0.3254
   61SAPC   H5R 4756   4.750   5.389   9.995  2.2569 -1.6642  1.1050
   61SAPC   C26 4757   4.634   5.260   9.869 -0.3335  0.0617 -0.2206
   61SAPC   H6R 4758   4.644   5.338   9.792 -0.6446 -0.4629 -0.7946
   61SAPC   C27 4759   4.557   5.133   9.845  0.6776  0.0261  0.4653
   61SAPC   H7R 4760   4.494   5.114   9.934 -0.3881  4.6264  0.9425
   61SAPC   H7S 4761   4.621   5.045   9.823  0.6140 -0.2332  1.2925
   61SAPC   C28 4762   4.462   5.157   9.728 -0.0087  1.0056 -0.0111
   61SAPC   H8R 4763   4.355   5.159   9.755  0.1421  0.1799  0.6966
   61SAPC   C29 4764   4.494   5.146   9.597 -0.3103  0.0798 -0.0574
   61SAPC   H9R 4765   4.420   5.147   9.515  0.7435  0.0112 -1.0469
   61SAPC  C210 4766   4.640   5.124   9.555 -0.3429 -0.4880 -0.4221
   61SAPC  H10R 4767   4.650   5.013   9.555  0.0691 -0.4534 -0.5506
   61SAPC  H10S 4768   4.714   5.164   9.627 -1.9672  1.2249  0.3497
   61SAPC  C211 4769   4.661   5.186   9.415 -0.0923 -0.1404  0.1269
   61SAPC  H11R 4770   4.691   5.291   9.425  0.9495 -0.5451  1.5090
   61SAPC  C212 4771   4.620   5.129   9.293  0.1209 -0.2899  0.1451
   61SAPC  H12R 4772   4.664   5.166   9.200  0.3710 -1.9206 -0.4122
   61SAPC  C213 4773   4.560   4.993   9.274 -0.6358  0.5530 -0.7230
   61SAPC  H13R 4774   4.493   4.967   9.358  1.0657  0.0703  0.5350
   61SAPC  H13S 4775   4.643   4.920   9.283 -1.7991 -0.6782  0.4493
   61SAPC  C214 4776   4.490   4.961   9.145 -0.1528  0.1203 -0.0691
   61SAPC  H14R 4777   4.380   4.960   9.150 -0.1123 -1.3480  1.4512
   61SAPC  C215 4778   4.552   4.926   9.031  0.3757 -0.1076 -0.0574
   61SAPC  H15R 4779   4.495   4.896   8.942  1.3842 -1.4051 -0.2939
   61SAPC  C216 4780   4.704   4.915   9.018 -0.0868 -0.0008  0.5048
   61SAPC  H16R 4781   4.733   4.813   9.049 -1.2043 -0.0078  1.6303
   61SAPC  H16S 4782   4.755   4.986   9.086 -0.0465  0.9269 -0.4615
   61SAPC  C217 4783   4.752   4.956   8.873  0.0550 -0.1279  0.7420
   61SAPC  H17R 4784   4.686   4.901   8.803  0.5149 -1.6512  1.4543
   61SAPC  H17S 4785   4.859   4.933   8.855 -0.2079 -3.2850  2.4415
   61SAPC  C218 4786   4.727   5.104   8.841 -1.0145  0.3766  0.1480
   61SAPC  H18R 4787   4.636   5.140   8.893 -1.9219 -0.5866 -0.7069
   61SAPC  H18S 4788   4.693   5.103   8.736 -0.3529  2.0664 -0.1008
   61SAPC  C219 4789   4.837   5.207   8.860 -0.0590  0.3349  0.6134
   61SAPC  H19R 4790   4.868   5.208   8.967  3.5630  3.0853 -0.2897
   61SAPC  H19S 4791   4.792   5.308   8.853  0.4927  0.6375  1.1952
   61SAPC  C220 4792   4.958   5.181   8.769  0.4764  1.0164  0.0472
   61SAPC  H20R 4793   4.943   5.212   8.663 -1.0717  1.2532  0.3156
   61SAPC  H20S 4794   4.998   5.080   8.790  1.0638  1.6740  2.4078
   61SAPC  H20T 4795   5.040   5.246   8.805  0.6497  0.2601  1.0560
   61SAPC   C33 4796   4.228   5.482  10.202  0.8146 -0.6038  0.2655
   61SAPC   H3X 4797   4.257   5.375  10.196 -1.4141 -1.3507  1.7402
   61SAPC   H3Y 4798   4.319   5.546  10.208  0.1398  0.4082 -0.0793
   61SAPC   C34 4799   4.160   5.532  10.078  0.9373 -0.6431 -0.3353
   61SAPC   H4X 4800   4.163   5.643  10.074  3.3122 -0.3659  3.7351
   61SAPC   H4Y 4801   4.056   5.493  10.081  0.1710  1.1971 -1.2007
   61SAPC   C35 4802   4.221   5.462   9.950 -0.2796 -0.2992 -0.1149
   61SAPC   H5X 4803   4.199   5.354   9.964 -2.3640  0.4141  3.3129
   61SAPC   H5Y 4804   4.328   5.485   9.937 -0.2670 -0.4523 -0.2757
   61SAPC   C36 4805   4.157   5.507   9.820  0.1120 -0.3401  1.1102
   61SAPC   H6X 4806   4.178   5.613   9.797 -2.1986 -0.1687 -0.5195
   61SAPC   H6Y 4807   4.046   5.498   9.822 -0.0154 -0.7853 -2.1537
   61SAPC   C37 4808   4.208   5.422   9.698 -0.6933  0.4711 -0.3287
   61SAPC   H7X 4809   4.225   5.317   9.729 -2.8154  0.0958 -0.2631
   61SAPC   H7Y 4810   4.305   5.470   9.674 -0.7894  1.6662  1.4887
   61SAPC   C38 4811   4.116   5.422   9.579  0.2341 -0.1550 -0.6050
   61SAPC   H8X 4812   4.102   5.520   9.529  1.6111  0.0060 -0.7155
   61SAPC   H8Y 4813   4.017   5.407   9.627 -0.1645  0.1559 -1.3112
   61SAPC   C39 4814   4.135   5.312   9.480  0.3032  0.7264 -0.6349
   61SAPC   H9X 4815   4.037   5.301   9.429 -0.1624  0.4794  0.2836
   61SAPC   H9Y 4816   4.152   5.214   9.530 -0.9694  1.5187  1.4901
   61SAPC  C310 4817   4.251   5.334   9.381  0.7533 -0.0371  0.7686
   61SAPC  H10X 4818   4.350   5.319   9.429 -0.0817 -1.6067  2.1080
   61SAPC  H10Y 4819   4.248   5.441   9.352 -1.2922  0.2168  1.7560
   61SAPC  C311 4820   4.244   5.244   9.259  0.9290  0.0636 -0.4178
   61SAPC  H11X 4821   4.224   5.138   9.288 -1.2039  0.2752 -0.9756
   61SAPC  H11Y 4822   4.345   5.244   9.213  0.6514 -2.1939 -1.1762
   61SAPC  C312 4823   4.132   5.291   9.162  0.5182  0.2637 -0.4889
   61SAPC  H12X 4824   4.168   5.391   9.130  2.9103  0.0541  1.2161
   61SAPC  H12Y 4825   4.035   5.278   9.215 -0.1149 -0.2955 -1.7506
   61SAPC  C313 4826   4.133   5.184   9.044  0.0958  0.4947  0.9474
   61SAPC  H13X 4827   4.062   5.211   8.963 -0.5841 -0.2143  1.2968
   61SAPC  H13Y 4828   4.108   5.082   9.079 -2.4048  0.6864 -0.0528
   61SAPC  C314 4829   4.263   5.170   8.957 -0.3363  0.5541  0.4789
   61SAPC  H14X 4830   4.350   5.147   9.022  0.0044 -1.0813 -0.4992
   61SAPC  H14Y 4831   4.285   5.270   8.913  1.8873 -0.3097 -0.4892
   61SAPC  C315 4832   4.261   5.077   8.836  0.0140  0.5514 -0.8239
   61SAPC  H15X 4833   4.159   5.065   8.792 -0.1344  1.7492 -0.8184
   61SAPC  H15Y 4834   4.299   4.975   8.861  0.6121  0.7860 -0.7722
   61SAPC  C316 4835   4.363   5.122   8.716 -0.3453  0.1809 -0.5409
   61SAPC  H16X 4836   4.457   5.143   8.773 -1.2526 -0.4161  1.2762
   61SAPC  H16Y 4837   4.321   5.219   8.682  2.5582  1.8428  0.2115
   61SAPC  C317 4838   4.366   5.027   8.600  0.1413 -0.1649 -0.4876
   61SAPC  H17X 4839   4.263   5.001   8.566 -0.0312 -0.6304  0.3394
   61SAPC  H17Y 4840   4.417   4.932   8.625  2.1710  1.2133  0.8646
   61SAPC  C318 4841   4.452   5.071   8.486 -0.6631 -0.0208 -0.3009
   61SAPC  H18X 4842   4.453   4.994   8.406 -1.4176  1.0890 -1.4065
   61SAPC  H18Y 4843   4.557   5.080   8.520 -0.8873  2.7413 -0.1104
   61SAPC  H18Z 4844   4.423   5.172   8.449  0.9230  0.0011 -1.5536
   62SAPC     N 4845   3.892   4.440  10.863 -0.4986 -0.1635  0.6428
   62SAPC   C12 4846   3.786   4.524  10.930 -0.3392  1.1732 -0.1109
   62SAPC  H12A 4847   3.836   4.549  11.023  1.2610 -0.2148 -0.5548
   62SAPC  H12B 4848   3.701   4.459  10.945  0.4931 -1.0013 -3.7311
   62SAPC   C13 4849   3.841   4.362  10.755 -0.1384  1.1902  0.2387
   62SAPC  H13A 4850   3.767   4.294  10.795 -1.0608  0.8772 -1.8794
   62SAPC  H13B 4851   3.799   4.416  10.671  0.0410  0.2840 -0.4457
   62SAPC  H13C 4852   3.921   4.300  10.717  0.7901  2.0198  0.7665
   62SAPC   C14 4853   4.006   4.520  10.801 -1.3821  0.1838 -0.0433
   62SAPC  H14A 4854   4.051   4.580  10.878 -0.2700 -0.8563  0.1529
   62SAPC  H14B 4855   4.082   4.460  10.755 -0.1893  0.8185  1.0397
   62SAPC  H14C 4856   3.964   4.585  10.726 -1.7791 -1.6076 -1.4500
   62SAPC   C15 4857   3.957   4.357  10.967 -0.0533  1.1184 -0.9431
   62SAPC  H15A 4858   3.886   4.303  11.028  1.8838  0.7269  1.0968
   62SAPC  H15B 4859   4.029   4.280  10.942 -0.2079 -0.4262  2.7892
   62SAPC  H15C 4860   4.003   4.414  11.046 -2.1345 -0.6608  1.7113
   62SAPC   C11 4861   3.752   4.651  10.851  0.1357  0.3340  0.1489
   62SAPC  H11A 4862   3.728   4.636  10.744 -0.0514  0.8282  0.1191
   62SAPC  H11B 4863   3.838   4.721  10.851  0.4887 -0.0825 -0.6943
   62SAPC     P 4864   3.583   4.860  10.891 -0.0126 -0.2377 -0.0378
   62SAPC   O13 4865   3.472   4.879  10.987  0.0195 -0.3864 -0.2391
   62SAPC   O14 4866   3.691   4.962  10.903 -0.3284 -0.3787  0.0795
   62SAPC   O12 4867   3.639   4.715  10.912  0.3927 -0.7819  0.4237
   62SAPC   O11 4868   3.523   4.847  10.746 -0.4800  0.2313  0.4234
   62SAPC    C1 4869   3.476   4.726  10.691  0.2419 -0.1830 -0.2187
   62SAPC    HA 4870   3.499   4.635  10.751 -0.3656  0.0346  0.3575
   62SAPC    HB 4871   3.365   4.716  10.692  0.2048  0.0763  1.7040
   62SAPC    C2 4872   3.539   4.701  10.550  0.5020 -0.8340 -0.3200
   62SAPC    HS 4873   3.647   4.692  10.573  0.5200 -0.6720 -0.3415
   62SAPC   O21 4874   3.496   4.804  10.457 -0.1193  0.2240 -0.6561
   62SAPC   C21 4875   3.580   4.844  10.367 -0.3376 -0.0161 -0.2709
   62SAPC   O22 4876   3.692   4.804  10.347  0.1005  0.3354  0.2645
   62SAPC   C22 4877   3.502   4.939  10.280 -0.2106 -0.4073  0.9284
   62SAPC   H2R 4878   3.406   4.896  10.244  0.3844 -0.0159 -1.2631
   62SAPC   H2S 4879   3.484   5.032  10.337  1.1388  0.3218  0.2119
   62SAPC    C3 4880   3.516   4.560  10.497  0.6848 -0.0089  0.1783
   62SAPC    HX 4881   3.410   4.528  10.510  1.4525 -2.3657  1.0310
   62SAPC    HY 4882   3.561   4.488  10.569  3.1381  1.2939  0.0562
   62SAPC   O31 4883   3.560   4.535  10.362  0.7499 -0.2954  0.4520
   62SAPC   C31 4884   3.678   4.482  10.357 -0.3818  0.3238  0.1993
   62SAPC   O32 4885   3.755   4.467  10.451 -0.4628 -0.2378  0.2692
   62SAPC   C32 4886   3.715   4.419  10.215  0.3566 -0.9216  0.0988
   62SAPC   H2X 4887   3.661   4.324  10.200  2.4942 -1.9400 -1.6882
   62SAPC   H2Y 4888   3.821   4.387  10.216  0.5910 -0.1558  0.7994
   62SAPC   C23 4889   3.598   4.979  10.166 -0.2896 -0.4536  1.2019
   62SAPC   H3R 4890   3.632   4.888  10.114 -0.4319  0.1389  0.0471
   62SAPC   H3S 4891   3.685   5.027  10.216 -0.8100  0.8221  0.9169
   62SAPC   C24 4892   3.547   5.085  10.057 -0.1119 -0.0770 -0.5940
   62SAPC   H4R 4893   3.639   5.123  10.007  0.5351 -0.0686  0.5701
   62SAPC   H4S 4894   3.515   5.175  10.114  1.3121  0.5700 -0.7697
   62SAPC   C25 4895   3.442   5.034   9.959 -0.1590 -0.6115  0.4408
   62SAPC   H5R 4896   3.442   4.926   9.939  1.1556 -0.5652  0.1311
   62SAPC   C26 4897   3.352   5.112   9.896  0.3250 -0.6027  0.5307
   62SAPC   H6R 4898   3.281   5.071   9.823  1.6504 -2.0672 -0.0011
   62SAPC   C27 4899   3.338   5.262   9.915  0.2313 -0.3381  0.2151
   62SAPC   H7R 4900   3.320   5.312   9.817 -1.8069 -0.5041  0.4474
   62SAPC   H7S 4901   3.432   5.308   9.951 -0.1093  0.5023  0.0655
   62SAPC   C28 4902   3.233   5.298  10.022  0.1265  0.1376  0.5047
   62SAPC   H8R 4903   3.221   5.223  10.102  0.1029 -2.0618 -1.4673
   62SAPC   C29 4904   3.176   5.420  10.040  0.7190  0.3129  0.0099
   62SAPC   H9R 4905   3.104   5.439  10.121 -0.3241  1.8871 -1.2235
   62SAPC  C210 4906   3.193   5.536   9.945 -0.3982  0.3106  0.3040
   62SAPC  H10R 4907   3.272   5.516   9.869 -1.6614 -0.7009 -0.8112
   62SAPC  H10S 4908   3.226   5.634   9.984 -1.1284  1.4420 -1.7997
   62SAPC  C211 4909   3.075   5.567   9.856  0.3551 -0.2061 -0.6525
   62SAPC  H11R 4910   2.979   5.579   9.908  0.1191 -0.0140 -1.1303
   62SAPC  C212 4911   3.079   5.590   9.727 -0.1842  0.3727  0.6513
   62SAPC  H12R 4912   2.983   5.604   9.676  0.8348 -0.5606 -1.6724
   62SAPC  C213 4913   3.189   5.587   9.625 -0.1520  0.3352  0.0521
   62SAPC  H13R 4914   3.283   5.611   9.678  0.8117 -3.2647  0.2624
   62SAPC  H13S 4915   3.173   5.670   9.552 -1.5232 -2.2007 -2.7799
   62SAPC  C214 4916   3.208   5.451   9.566  0.0833  0.3120  0.4328
   62SAPC  H14R 4917   3.301   5.401   9.596  0.0308 -0.3603 -0.4874
   62SAPC  C215 4918   3.125   5.382   9.483  0.0478 -0.1223 -0.2889
   62SAPC  H15R 4919   3.168   5.285   9.453  1.2698  0.4189 -0.3416
   62SAPC  C216 4920   2.993   5.429   9.430 -0.2314  0.6133  0.3771
   62SAPC  H16R 4921   2.949   5.509   9.492  0.0090 -1.3490  3.2565
   62SAPC  H16S 4922   2.932   5.336   9.429 -0.2465  0.4773  3.8233
   62SAPC  C217 4923   2.996   5.477   9.282 -0.1571  0.3196  0.1658
   62SAPC  H17R 4924   2.989   5.402   9.200  1.1702  1.0747 -0.6860
   62SAPC  H17S 4925   3.080   5.548   9.265 -1.1116  1.7267  1.1090
   62SAPC  C218 4926   2.868   5.554   9.256 -0.3613  0.4296 -0.0415
   62SAPC  H18R 4927   2.886   5.643   9.320  1.0844  0.6305 -0.6917
   62SAPC  H18S 4928   2.772   5.509   9.291 -0.5073 -1.6395 -2.7617
   62SAPC  C219 4929   2.860   5.603   9.115  0.0855  0.4356  0.5188
   62SAPC  H19R 4930   2.759   5.642   9.090 -0.0934  0.6300  1.4937
   62SAPC  H19S 4931   2.863   5.519   9.043 -0.2450  0.6822  0.2119
   62SAPC  C220 4932   2.968   5.708   9.079  0.2803 -0.7543 -0.7424
   62SAPC  H20R 4933   2.956   5.740   8.973 -3.5523 -0.6346 -0.4298
   62SAPC  H20S 4934   3.070   5.669   9.097  0.6930  0.8883  0.8259
   62SAPC  H20T 4935   2.955   5.795   9.148 -0.0017  0.4571 -2.2497
   62SAPC   C33 4936   3.670   4.516  10.100 -1.0574  0.0779 -0.9935
   62SAPC   H3X 4937   3.727   4.610  10.119 -0.8892 -0.0625 -0.8074
   62SAPC   H3Y 4938   3.559   4.521  10.101 -1.1850 -1.8050 -2.0340
   62SAPC   C34 4939   3.689   4.477   9.961 -0.3366  0.2095  0.6992
   62SAPC   H4X 4940   3.637   4.393   9.909 -1.1489  0.8077  0.5292
   62SAPC   H4Y 4941   3.795   4.441   9.957 -0.5819 -0.4579 -0.0842
   62SAPC   C35 4942   3.661   4.602   9.868  0.2077  0.5714 -0.0260
   62SAPC   H5X 4943   3.731   4.681   9.902  1.9303 -1.5957  1.7967
   62SAPC   H5Y 4944   3.557   4.640   9.877  0.4432  1.2435 -0.0400
   62SAPC   C36 4945   3.671   4.563   9.721  0.2470  0.3843  0.4608
   62SAPC   H6X 4946   3.591   4.491   9.695 -1.8310  2.2930  1.2274
   62SAPC   H6Y 4947   3.769   4.513   9.704  1.1353  2.4139 -0.7847
   62SAPC   C37 4948   3.650   4.677   9.621  0.2107 -0.0570  0.3781
   62SAPC   H7X 4949   3.724   4.759   9.635 -1.0355  1.3205 -0.7391
   62SAPC   H7Y 4950   3.549   4.723   9.627  0.5391  0.5775  4.4940
   62SAPC   C38 4951   3.658   4.629   9.470 -0.7526  0.4435  0.0939
   62SAPC   H8X 4952   3.577   4.554   9.457 -0.4311  0.3413 -1.4664
   62SAPC   H8Y 4953   3.756   4.580   9.451 -0.3665  0.3961  1.9952
   62SAPC   C39 4954   3.634   4.734   9.362  0.5318 -0.0413 -0.1859
   62SAPC   H9X 4955   3.651   4.836   9.401 -2.2642  0.2376  0.5839
   62SAPC   H9Y 4956   3.527   4.741   9.331  1.2969  0.3774 -3.0034
   62SAPC  C310 4957   3.721   4.709   9.239 -0.7411 -1.0379 -0.8757
   62SAPC  H10X 4958   3.691   4.617   9.185 -2.8229 -1.3786  0.7449
   62SAPC  H10Y 4959   3.825   4.695   9.277 -0.5826  1.1850 -0.3543
   62SAPC  C311 4960   3.723   4.824   9.137  0.0930 -0.5724 -1.5584
   62SAPC  H11X 4961   3.748   4.918   9.191 -2.3860 -0.6736 -0.0465
   62SAPC  H11Y 4962   3.619   4.840   9.101  0.6405 -2.5222 -4.2733
   62SAPC  C312 4963   3.824   4.807   9.020 -0.0195  0.2217  0.6240
   62SAPC  H12X 4964   3.792   4.707   8.982 -0.2768  1.3057 -2.1588
   62SAPC  H12Y 4965   3.927   4.797   9.062  0.7187  1.8706 -0.7223
   62SAPC  C313 4966   3.811   4.900   8.906 -0.1747 -0.1135  0.0912
   62SAPC  H13X 4967   3.843   5.002   8.936  1.0852 -0.0502 -1.3695
   62SAPC  H13Y 4968   3.709   4.913   8.865  0.1397  0.8898 -0.4024
   62SAPC  C314 4969   3.893   4.858   8.788 -0.0748  0.4358 -0.3522
   62SAPC  H14X 4970   3.870   4.753   8.758  1.2771  0.5524 -2.0009
   62SAPC  H14Y 4971   4.000   4.869   8.818  0.2745  1.0677 -1.7528
   62SAPC  C315 4972   3.868   4.933   8.655 -0.0285 -0.3103 -0.2683
   62SAPC  H15X 4973   3.892   5.041   8.663 -1.7015  0.0244  0.7462
   62SAPC  H15Y 4974   3.759   4.940   8.634 -0.0880 -2.5454 -0.9639
   62SAPC  C316 4975   3.938   4.869   8.537 -0.3561  0.4957  0.2651
   62SAPC  H16X 4976   3.906   4.762   8.535 -3.5122  1.3286  0.5177
   62SAPC  H16Y 4977   4.047   4.875   8.559 -0.5006 -0.9525  1.5302
   62SAPC  C317 4978   3.912   4.937   8.402 -0.2128  0.2420  0.5044
   62SAPC  H17X 4979   3.890   5.041   8.433 -0.5904  1.2016 -2.6770
   62SAPC  H17Y 4980   3.815   4.899   8.363  0.3006 -0.7075  0.1224
   62SAPC  C318 4981   4.021   4.941   8.297  0.8123  0.5219 -0.9590
   62SAPC  H18X 4982   4.048   4.840   8.259  2.1446  0.3548  0.3277
   62SAPC  H18Y 4983   4.114   4.976   8.347  0.8727  0.3785 -0.9702
   62SAPC  H18Z 4984   4.000   5.011   8.214  0.9234  1.2676 -0.3740
   63SAPC     N 4985   0.301   1.794   6.479 -0.5653 -0.1709 -0.5461
   63SAPC   C12 4986   0.184   1.884   6.535 -0.3745  0.0859  0.0771
   63SAPC  H12A 4987   0.225   1.948   6.611  1.0434 -1.5538  0.7568
   63SAPC  H12B 4988   0.106   1.835   6.591 -0.7420  0.2954 -0.2405
   63SAPC   C13 4989   0.410   1.882   6.428 -1.2321 -0.0748  0.0097
   63SAPC  H13A 4990   0.495   1.827   6.390 -0.9091  0.5913 -0.2538
   63SAPC  H13B 4991   0.380   1.944   6.345 -2.2668  0.1500  0.5319
   63SAPC  H13C 4992   0.445   1.959   6.495  0.4492  0.4533 -1.3721
   63SAPC   C14 4993   0.360   1.726   6.605  0.1601 -0.3340  0.1517
   63SAPC  H14A 4994   0.453   1.683   6.570  1.7439  1.6374  1.6856
   63SAPC  H14B 4995   0.389   1.789   6.688 -0.3520 -1.2193  1.0248
   63SAPC  H14C 4996   0.299   1.651   6.653  0.3233  0.9446  2.4996
   63SAPC   C15 4997   0.266   1.694   6.365  0.3689  0.6365  0.5903
   63SAPC  H15A 4998   0.182   1.636   6.401 -1.9454  2.6589 -1.2395
   63SAPC  H15B 4999   0.214   1.747   6.287  1.2888 -0.1480 -0.5769
   63SAPC  H15C 5000   0.351   1.637   6.332  1.7620  1.2849  2.8641
   63SAPC   C11 5001   0.100   1.962   6.429  0.1585 -0.1191 -0.4948
   63SAPC  H11A 5002   0.163   2.021   6.359  0.9273 -0.4702 -0.1233
   63SAPC  H11B 5003   0.032   2.030   6.484 -0.5842 -0.5460 -0.8797
   63SAPC     P 5004  -0.120   1.811   6.410 -0.2166 -0.1519  0.1841
   63SAPC   O13 5005  -0.225   1.898   6.355  0.1808  0.4776  0.1467
   63SAPC   O14 5006  -0.127   1.670   6.369  0.3279  0.6320 -0.2515
   63SAPC   O12 5007   0.019   1.861   6.359 -0.4892  0.2644  0.4907
   63SAPC   O11 5008  -0.101   1.812   6.568  0.7558  0.0048  0.2247
   63SAPC    C1 5009  -0.100   1.694   6.643  0.4172  0.3909 -0.0990
   63SAPC    HA 5010  -0.183   1.625   6.613  0.3340  0.6577 -0.4919
   63SAPC    HB 5011  -0.009   1.631   6.631  1.0242  1.2888 -0.3388
   63SAPC    C2 5012  -0.107   1.724   6.795  0.4882 -0.1268  0.0239
   63SAPC    HS 5013  -0.153   1.642   6.854  3.6701 -3.8701 -2.2332
   63SAPC   O21 5014  -0.163   1.857   6.808 -0.1517  0.4804  0.5478
   63SAPC   C21 5015  -0.288   1.846   6.787  0.0723  0.3539  0.9895
   63SAPC   O22 5016  -0.347   1.738   6.763 -0.0272 -0.4184  0.0795
   63SAPC   C22 5017  -0.343   1.981   6.795 -0.3744  0.0363  0.1214
   63SAPC   H2R 5018  -0.283   2.043   6.725 -1.3103 -1.4502 -2.1227
   63SAPC   H2S 5019  -0.446   1.979   6.752  0.7429 -1.1073 -2.7274
   63SAPC    C3 5020   0.031   1.730   6.861  0.1873  0.8198 -0.1716
   63SAPC    HX 5021   0.098   1.806   6.816  2.8190 -1.3234 -0.0929
   63SAPC    HY 5022   0.090   1.642   6.828  0.6900  0.7834  0.7820
   63SAPC   O31 5023   0.027   1.721   6.999  0.2902 -0.3930 -0.6365
   63SAPC   C31 5024   0.013   1.842   7.062  0.0510 -0.2501 -0.3974
   63SAPC   O32 5025   0.034   1.949   7.012  0.2223 -0.2731  0.1928
   63SAPC   C32 5026  -0.014   1.818   7.210 -0.2851 -1.0247  0.5466
   63SAPC   H2X 5027  -0.063   1.910   7.247 -2.0148 -1.4899 -0.4641
   63SAPC   H2Y 5028   0.078   1.798   7.270  0.4927 -4.8016 -1.5503
   63SAPC   C23 5029  -0.341   2.041   6.938 -0.6858  0.1563  0.0056
   63SAPC   H3R 5030  -0.369   2.148   6.924 -0.2040  0.3988  0.8525
   63SAPC   H3S 5031  -0.237   2.058   6.973 -1.1129 -2.4025  2.8934
   63SAPC   C24 5032  -0.436   1.976   7.052 -0.2035 -0.1033  0.5283
   63SAPC   H4R 5033  -0.404   1.872   7.077  0.6607  0.3135  1.1861
   63SAPC   H4S 5034  -0.538   1.972   7.007 -1.2068 -0.4354  2.6674
   63SAPC   C25 5035  -0.429   2.070   7.167 -0.0290 -0.6125 -0.4140
   63SAPC   H5R 5036  -0.329   2.096   7.206 -0.6401 -0.3668  1.0857
   63SAPC   C26 5037  -0.532   2.149   7.214 -0.0861 -0.7892 -0.4835
   63SAPC   H6R 5038  -0.523   2.219   7.297 -1.1655 -2.3796  1.0494
   63SAPC   C27 5039  -0.670   2.141   7.164  1.0956  0.2855  0.3871
   63SAPC   H7R 5040  -0.674   2.099   7.062 -0.4400  1.3605 -0.0288
   63SAPC   H7S 5041  -0.709   2.244   7.154  0.3496  0.1498  1.7185
   63SAPC   C28 5042  -0.758   2.069   7.259  0.7477 -0.0104 -0.1914
   63SAPC   H8R 5043  -0.790   1.976   7.210  3.1598 -1.8034  1.3935
   63SAPC   C29 5044  -0.802   2.103   7.377  0.2302 -0.1556  0.4524
   63SAPC   H9R 5045  -0.864   2.033   7.434 -0.9608  0.6186  0.1565
   63SAPC  C210 5046  -0.772   2.229   7.454 -0.0623 -0.5990  0.7766
   63SAPC  H10R 5047  -0.712   2.305   7.400 -1.5759 -0.4829 -0.8371
   63SAPC  H10S 5048  -0.719   2.197   7.547  1.6197 -0.2009 -0.0027
   63SAPC  C211 5049  -0.898   2.299   7.491 -0.7728  0.3882  0.2714
   63SAPC  H11R 5050  -0.962   2.322   7.405 -1.1396 -0.4644  0.3003
   63SAPC  C212 5051  -0.947   2.329   7.615 -0.2198 -0.0354  0.2490
   63SAPC  H12R 5052  -1.047   2.375   7.614  0.3659  1.3692 -1.7892
   63SAPC  C213 5053  -0.880   2.302   7.751 -0.5694 -0.4686  0.0279
   63SAPC  H13R 5054  -0.874   2.405   7.793 -1.1565  0.2265 -1.4846
   63SAPC  H13S 5055  -0.781   2.255   7.736 -1.4259 -1.3347 -3.9865
   63SAPC  C214 5056  -0.951   2.207   7.836 -0.0872  0.0735  0.0842
   63SAPC  H14R 5057  -1.045   2.168   7.795  0.6886 -0.3524 -1.3739
   63SAPC  C215 5058  -0.919   2.170   7.957  0.2321  0.2303  0.0616
   63SAPC  H15R 5059  -0.985   2.108   8.020  0.6642  0.4108  0.7026
   63SAPC  C216 5060  -0.807   2.233   8.036 -0.4554  0.2992 -0.0582
   63SAPC  H16R 5061  -0.790   2.343   8.027  1.6936 -0.0678 -1.2729
   63SAPC  H16S 5062  -0.708   2.191   8.008 -0.3009  0.3122  0.4396
   63SAPC  C217 5063  -0.821   2.200   8.191 -0.5373 -0.1152 -0.3334
   63SAPC  H17R 5064  -0.845   2.092   8.201  0.1809 -0.1984  0.7586
   63SAPC  H17S 5065  -0.907   2.262   8.225  0.4375  1.9758 -1.4687
   63SAPC  C218 5066  -0.688   2.230   8.272  0.0318 -0.0937 -0.3343
   63SAPC  H18R 5067  -0.611   2.162   8.229 -0.8942  0.1137 -2.4646
   63SAPC  H18S 5068  -0.707   2.206   8.379 -0.8396 -2.8546 -1.0143
   63SAPC  C219 5069  -0.640   2.374   8.259  0.6258  0.0036  0.1376
   63SAPC  H19R 5070  -0.621   2.399   8.152  0.0143 -0.7993 -0.1715
   63SAPC  H19S 5071  -0.542   2.383   8.310  2.1933 -2.8198 -2.1064
   63SAPC  C220 5072  -0.748   2.483   8.302 -0.4553  0.2514 -0.4470
   63SAPC  H20R 5073  -0.847   2.472   8.255 -0.1835 -1.6705 -0.6414
   63SAPC  H20S 5074  -0.713   2.587   8.279 -0.3261  0.5240  0.8935
   63SAPC  H20T 5075  -0.764   2.478   8.412 -0.2328 -0.9907 -0.4650
   63SAPC   C33 5076  -0.117   1.703   7.235  0.0545  0.0482  0.0618
   63SAPC   H3X 5077  -0.088   1.599   7.206 -1.6236 -0.5842  0.5395
   63SAPC   H3Y 5078  -0.215   1.713   7.185  0.5600  0.4128 -0.8663
   63SAPC   C34 5079  -0.151   1.708   7.385  0.4144 -0.0563 -0.0519
   63SAPC   H4X 5080  -0.206   1.800   7.414  0.0813 -0.3578  0.2590
   63SAPC   H4Y 5081  -0.058   1.708   7.446 -0.9248 -1.6465  2.0833
   63SAPC   C35 5082  -0.234   1.583   7.418  0.2114 -0.3138 -0.7576
   63SAPC   H5X 5083  -0.160   1.501   7.405  1.3178  0.7220 -1.1540
   63SAPC   H5Y 5084  -0.318   1.572   7.347  0.4328  1.4618 -1.3422
   63SAPC   C36 5085  -0.273   1.574   7.568  0.0155 -0.1125  0.6708
   63SAPC   H6X 5086  -0.328   1.482   7.597  4.6901 -3.3174  0.4844
   63SAPC   H6Y 5087  -0.336   1.659   7.603  1.4116  1.6496 -0.8924
   63SAPC   C37 5088  -0.155   1.562   7.671  0.0566  0.1593  0.0579
   63SAPC   H7X 5089  -0.088   1.650   7.661  0.7042 -0.0728  1.8630
   63SAPC   H7Y 5090  -0.075   1.490   7.641  1.0937  0.7698  1.2286
   63SAPC   C38 5091  -0.200   1.552   7.824 -0.5177  0.1582  1.0746
   63SAPC   H8X 5092  -0.237   1.453   7.856 -1.3537  0.1760  0.1992
   63SAPC   H8Y 5093  -0.280   1.629   7.835 -1.4167 -0.5276 -0.4045
   63SAPC   C39 5094  -0.074   1.584   7.910  0.8607  0.0242 -0.0495
   63SAPC   H9X 5095  -0.052   1.691   7.889 -0.7731  0.8369  1.9727
   63SAPC   H9Y 5096   0.009   1.513   7.891  0.8265  0.3137 -1.3391
   63SAPC  C310 5097  -0.103   1.586   8.053  0.1206  0.0421 -0.2507
   63SAPC  H10X 5098  -0.131   1.480   8.073 -0.3434  0.6460  2.7692
   63SAPC  H10Y 5099  -0.191   1.651   8.074  0.7551  0.7297  0.2951
   63SAPC  C311 5100   0.017   1.637   8.132  0.1262 -0.5066 -0.3666
   63SAPC  H11X 5101   0.011   1.748   8.132  0.9046 -0.4564  0.4861
   63SAPC  H11Y 5102   0.112   1.604   8.085  0.3647 -0.2585 -0.0649
   63SAPC  C312 5103   0.026   1.588   8.275 -0.0552 -0.3339  0.5356
   63SAPC  H12X 5104   0.041   1.478   8.264 -0.4230 -0.3289 -0.0618
   63SAPC  H12Y 5105  -0.073   1.608   8.321 -0.2298  0.1255 -0.0418
   63SAPC  C313 5106   0.133   1.653   8.356 -0.0838 -0.0359  0.0235
   63SAPC  H13X 5107   0.118   1.763   8.358  0.7445  0.1880 -2.6104
   63SAPC  H13Y 5108   0.231   1.636   8.307 -0.6331 -0.4225 -0.9708
   63SAPC  C314 5109   0.129   1.602   8.502 -0.0730  0.0106  0.0025
   63SAPC  H14X 5110   0.151   1.493   8.502 -2.6103 -0.5808 -0.7513
   63SAPC  H14Y 5111   0.029   1.616   8.549  0.1680 -0.3518  0.6314
   63SAPC  C315 5112   0.233   1.669   8.589  0.8006  0.2823 -0.3502
   63SAPC  H15X 5113   0.222   1.641   8.696 -0.5436 -0.2641 -0.6138
   63SAPC  H15Y 5114   0.237   1.780   8.581  1.2796  0.3296  0.4619
   63SAPC  C316 5115   0.379   1.633   8.560 -0.1996 -0.6392  0.0256
   63SAPC  H16X 5116   0.410   1.680   8.464  1.1633 -0.5963  0.4681
   63SAPC  H16Y 5117   0.382   1.522   8.552 -0.1988 -0.6352 -0.0286
   63SAPC  C317 5118   0.480   1.679   8.666 -0.9130 -0.0109  0.4953
   63SAPC  H17X 5119   0.583   1.669   8.625 -0.9969 -3.4534  0.8345
   63SAPC  H17Y 5120   0.478   1.611   8.754 -1.2125  0.8449  1.1599
   63SAPC  C318 5121   0.475   1.824   8.720 -0.1919 -0.1695 -0.2954
   63SAPC  H18X 5122   0.571   1.859   8.764 -1.0957  1.0604  0.7709
   63SAPC  H18Y 5123   0.387   1.829   8.788 -0.0609  1.0991 -0.1904
   63SAPC  H18Z 5124   0.461   1.892   8.634  0.8614  1.2407  0.6020
   64SAPC     N 5125   2.027   3.918   6.162  0.2058 -0.0564  0.5739
   64SAPC   C12 5126   2.154   3.949   6.091  0.1091 -0.0654  0.4782
   64SAPC  H12A 5127   2.135   4.039   6.034 -2.5105 -0.0678  1.2092
   64SAPC  H12B 5128   2.178   3.857   6.038 -0.8473 -0.8539  1.3672
   64SAPC   C13 5129   2.000   4.028   6.263 -0.0702  0.2268 -0.0950
   64SAPC  H13A 5130   2.078   4.012   6.335 -1.1899 -0.2777  1.0495
   64SAPC  H13B 5131   1.999   4.129   6.225  1.1473 -0.1650 -1.2634
   64SAPC  H13C 5132   1.915   4.013   6.327  0.3975  1.7538  0.9314
   64SAPC   C14 5133   1.917   3.918   6.056 -0.5560 -0.2400 -0.3967
   64SAPC  H14A 5134   1.939   3.874   5.960 -0.1934 -0.6218 -0.1489
   64SAPC  H14B 5135   1.827   3.870   6.091 -0.3546 -0.8385 -0.6728
   64SAPC  H14C 5136   1.883   4.018   6.037 -1.4740 -0.2994  0.8161
   64SAPC   C15 5137   2.032   3.789   6.236  0.0633  0.1077  0.7404
   64SAPC  H15A 5138   2.113   3.790   6.306 -0.0506  0.1921  0.8722
   64SAPC  H15B 5139   1.943   3.778   6.297 -1.3938 -1.8941 -1.5151
   64SAPC  H15C 5140   2.035   3.705   6.168 -1.5044 -2.6166  3.7272
   64SAPC   C11 5141   2.279   3.963   6.170  0.2724 -0.2894  0.1500
   64SAPC  H11A 5142   2.250   4.013   6.265 -2.7426 -0.1708 -0.7390
   64SAPC  H11B 5143   2.351   4.029   6.117 -1.1627  0.4575 -0.9471
   64SAPC     P 5144   2.436   3.772   6.115 -0.2275  0.5249 -0.5906
   64SAPC   O13 5145   2.370   3.702   6.006  0.2450  0.8096 -0.0670
   64SAPC   O14 5146   2.535   3.871   6.071  0.1692 -0.4195 -0.1842
   64SAPC   O12 5147   2.325   3.831   6.205 -0.0262 -0.0515 -0.6601
   64SAPC   O11 5148   2.502   3.653   6.207 -0.0349  0.1930  0.5948
   64SAPC    C1 5149   2.542   3.657   6.335 -0.4755  0.1172 -0.2804
   64SAPC    HA 5150   2.652   3.643   6.347 -0.8326 -2.6034  0.5597
   64SAPC    HB 5151   2.527   3.759   6.376 -0.4503  0.1821 -0.4331
   64SAPC    C2 5152   2.467   3.555   6.429  0.2970 -0.2055  0.9176
   64SAPC    HS 5153   2.517   3.554   6.528  0.1161  0.6452  1.0255
   64SAPC   O21 5154   2.457   3.427   6.361 -0.4646  0.3373 -0.0436
   64SAPC   C21 5155   2.532   3.332   6.423 -0.1675 -0.3012  0.0331
   64SAPC   O22 5156   2.591   3.349   6.532 -0.1975 -0.0394 -0.1666
   64SAPC   C22 5157   2.542   3.207   6.342  0.3590  0.6022 -0.1285
   64SAPC   H2R 5158   2.442   3.171   6.309 -0.3098  1.4385  0.9406
   64SAPC   H2S 5159   2.597   3.239   6.251  1.6400 -0.3062  0.2972
   64SAPC    C3 5160   2.320   3.606   6.451 -0.1975  0.1371  0.1021
   64SAPC    HX 5161   2.270   3.527   6.511 -1.6693 -1.5026 -3.0490
   64SAPC    HY 5162   2.281   3.616   6.348 -1.1781 -2.9295  0.0743
   64SAPC   O31 5163   2.330   3.733   6.516  0.1394 -0.3308  0.2669
   64SAPC   C31 5164   2.212   3.781   6.537  0.0883 -0.7764  0.4590
   64SAPC   O32 5165   2.105   3.719   6.520  0.2453 -0.3617 -0.6153
   64SAPC   C32 5166   2.228   3.932   6.574 -0.0238  0.3165 -0.0750
   64SAPC   H2X 5167   2.128   3.973   6.548 -1.0834 -0.3293  2.6590
   64SAPC   H2Y 5168   2.309   3.988   6.523 -0.1612  0.2274 -0.3913
   64SAPC   C23 5169   2.628   3.103   6.425 -0.8448  0.9544  0.6940
   64SAPC   H3R 5170   2.601   3.094   6.532  3.3395  0.2479  1.8527
   64SAPC   H3S 5171   2.734   3.137   6.425 -1.1278  1.8590  0.6908
   64SAPC   C24 5172   2.620   2.956   6.364  0.3335 -0.7505  0.3292
   64SAPC   H4R 5173   2.703   2.892   6.400 -0.0011 -0.8259  0.9862
   64SAPC   H4S 5174   2.622   2.956   6.253 -1.1457  0.6321  0.2625
   64SAPC   C25 5175   2.495   2.888   6.409  0.1339 -0.0713 -0.0434
   64SAPC   H5R 5176   2.414   2.891   6.334  1.4484 -2.7001 -1.7180
   64SAPC   C26 5177   2.479   2.831   6.534  0.0606  0.0693  0.3935
   64SAPC   H6R 5178   2.383   2.794   6.573 -1.1862  2.0245 -0.6353
   64SAPC   C27 5179   2.583   2.830   6.635  0.1356 -0.1285 -0.1311
   64SAPC   H7R 5180   2.572   2.921   6.697  0.3378  1.0753 -1.8097
   64SAPC   H7S 5181   2.688   2.841   6.602  0.3510 -0.6575  0.3382
   64SAPC   C28 5182   2.580   2.707   6.722 -0.3080  0.0104 -0.1902
   64SAPC   H8R 5183   2.648   2.631   6.679  0.5873  1.0950 -0.7491
   64SAPC   C29 5184   2.508   2.682   6.831  0.8772  0.8589 -0.6986
   64SAPC   H9R 5185   2.513   2.582   6.876 -0.4687  0.4088 -1.4772
   64SAPC  C210 5186   2.398   2.765   6.898 -0.0870 -0.3198  0.1025
   64SAPC  H10R 5187   2.374   2.857   6.840 -2.3546  0.4064  2.0421
   64SAPC  H10S 5188   2.439   2.792   6.998  2.1436 -0.1690 -0.7830
   64SAPC  C211 5189   2.274   2.679   6.909 -0.0147 -0.1192  0.1056
   64SAPC  H11R 5190   2.234   2.641   6.814 -1.0712 -1.6502  1.1157
   64SAPC  C212 5191   2.214   2.637   7.017  0.5420  0.8233  0.4128
   64SAPC  H12R 5192   2.133   2.563   7.008  0.5344  0.9576 -0.9635
   64SAPC  C213 5193   2.256   2.673   7.152  0.1431 -0.0904  0.6742
   64SAPC  H13R 5194   2.165   2.670   7.215 -0.1338 -1.2302  0.2547
   64SAPC  H13S 5195   2.287   2.779   7.158  0.2276 -0.0943  0.3448
   64SAPC  C214 5196   2.343   2.584   7.224 -0.1469  0.3440 -0.5967
   64SAPC  H14R 5197   2.382   2.496   7.171 -1.3632 -0.4051 -0.2716
   64SAPC  C215 5198   2.401   2.617   7.346  0.4386  0.2549 -0.4502
   64SAPC  H15R 5199   2.474   2.546   7.389  0.4827 -0.6794 -1.9995
   64SAPC  C216 5200   2.381   2.742   7.423 -0.7145 -0.1367  0.7764
   64SAPC  H16R 5201   2.355   2.827   7.357 -3.1204 -0.5666  1.0613
   64SAPC  H16S 5202   2.473   2.770   7.478  1.6408 -1.9659 -1.8991
   64SAPC  C217 5203   2.257   2.710   7.518 -0.3261 -1.0076  0.0114
   64SAPC  H17R 5204   2.159   2.688   7.470 -1.1916 -0.4137  1.4312
   64SAPC  H17S 5205   2.236   2.805   7.572 -0.8756  0.1787 -2.1601
   64SAPC  C218 5206   2.294   2.607   7.616 -0.5737  0.0070  0.7370
   64SAPC  H18R 5207   2.395   2.627   7.656 -0.0157 -1.0897 -0.0860
   64SAPC  H18S 5208   2.296   2.508   7.566 -4.2662  0.1744 -0.0644
   64SAPC  C219 5209   2.199   2.602   7.734 -0.3467  0.2906  0.2070
   64SAPC  H19R 5210   2.090   2.599   7.711 -1.1926  1.5399  3.4841
   64SAPC  H19S 5211   2.203   2.695   7.796  1.9702  0.9760 -0.8824
   64SAPC  C220 5212   2.226   2.493   7.829  0.2863  0.4261 -0.9990
   64SAPC  H20R 5213   2.238   2.398   7.774 -0.2475  0.6581 -1.5198
   64SAPC  H20S 5214   2.147   2.490   7.908  1.8073  2.6068  0.7547
   64SAPC  H20T 5215   2.321   2.516   7.882 -0.0877 -0.2761  0.0072
   64SAPC   C33 5216   2.264   3.936   6.723  0.4485 -0.4166 -0.7511
   64SAPC   H3X 5217   2.367   3.904   6.749  0.2774  1.0313  2.1293
   64SAPC   H3Y 5218   2.194   3.882   6.791  0.5203  2.3387  1.7561
   64SAPC   C34 5219   2.260   4.086   6.769  0.5309  0.3214  0.1787
   64SAPC   H4X 5220   2.156   4.121   6.748 -0.6569 -1.9703  1.7564
   64SAPC   H4Y 5221   2.325   4.149   6.704  1.6281  0.3248  1.2464
   64SAPC   C35 5222   2.317   4.102   6.911 -0.6488  0.4084 -0.3522
   64SAPC   H5X 5223   2.336   4.209   6.934  1.2252 -0.2453  1.3699
   64SAPC   H5Y 5224   2.414   4.050   6.919 -0.4465  0.5910 -1.4062
   64SAPC   C36 5225   2.227   4.050   7.025 -0.6297  0.4598 -0.1896
   64SAPC   H6X 5226   2.231   3.939   7.032  1.7930  0.6118  3.7010
   64SAPC   H6Y 5227   2.125   4.087   7.004 -0.1559  2.1018  0.3167
   64SAPC   C37 5228   2.275   4.112   7.152  0.4273 -0.3201 -0.5252
   64SAPC   H7X 5229   2.268   4.223   7.148  0.7459 -0.3103 -0.7906
   64SAPC   H7Y 5230   2.380   4.082   7.174  0.1762 -0.1957  0.9913
   64SAPC   C38 5231   2.198   4.060   7.277  0.0316 -0.5126  0.5476
   64SAPC   H8X 5232   2.212   3.950   7.283 -0.0974 -0.5336  0.4789
   64SAPC   H8Y 5233   2.089   4.076   7.260  0.1608  1.3373  1.1998
   64SAPC   C39 5234   2.246   4.132   7.398 -0.8209  0.7558  0.0410
   64SAPC   H9X 5235   2.221   4.240   7.390 -2.0009  0.5171  0.3499
   64SAPC   H9Y 5236   2.357   4.126   7.401 -0.7912  0.7784 -0.7435
   64SAPC  C310 5237   2.203   4.064   7.528 -0.4443 -1.0400  0.9095
   64SAPC  H10X 5238   2.259   3.968   7.521  1.4874  0.1395 -0.9547
   64SAPC  H10Y 5239   2.093   4.050   7.529 -0.6353 -0.2612 -1.7829
   64SAPC  C311 5240   2.264   4.129   7.655  0.5531  0.4828  0.1643
   64SAPC  H11X 5241   2.373   4.138   7.640  0.8422 -1.4476  0.8532
   64SAPC  H11Y 5242   2.247   4.053   7.735  0.2719  3.8007  3.5082
   64SAPC  C312 5243   2.195   4.260   7.699  0.5397  0.5298 -0.1700
   64SAPC  H12X 5244   2.086   4.248   7.718  0.3434 -1.2787 -2.0264
   64SAPC  H12Y 5245   2.213   4.337   7.622 -0.2710  0.8561 -0.0394
   64SAPC  C313 5246   2.255   4.321   7.832  0.1611 -0.7996  0.1945
   64SAPC  H13X 5247   2.204   4.416   7.859 -0.4828 -1.4118  1.2116
   64SAPC  H13Y 5248   2.360   4.350   7.810  0.4122 -0.7976  1.3303
   64SAPC  C314 5249   2.266   4.244   7.959 -0.0613  0.1945 -0.2717
   64SAPC  H14X 5250   2.355   4.181   7.940  1.4206  0.9882  3.2773
   64SAPC  H14Y 5251   2.170   4.188   7.968  0.2314 -0.1876  0.5159
   64SAPC  C315 5252   2.291   4.338   8.078  0.4053 -0.4925 -0.5918
   64SAPC  H15X 5253   2.217   4.421   8.071 -0.9737 -1.3998  1.9646
   64SAPC  H15Y 5254   2.394   4.379   8.081 -0.2270  1.1590 -0.4104
   64SAPC  C316 5255   2.262   4.275   8.214 -0.2091  0.4371 -0.3754
   64SAPC  H16X 5256   2.316   4.179   8.227 -1.6440 -0.4442 -0.7856
   64SAPC  H16Y 5257   2.154   4.251   8.221  0.1817 -1.1713  0.4358
   64SAPC  C317 5258   2.272   4.368   8.337 -0.0782 -0.1811 -0.2493
   64SAPC  H17X 5259   2.207   4.452   8.305 -0.0112 -0.2223 -0.4950
   64SAPC  H17Y 5260   2.381   4.388   8.343 -0.0745 -0.5945  1.7648
   64SAPC  C318 5261   2.244   4.302   8.467  0.3286  0.0996  0.0216
   64SAPC  H18X 5262   2.214   4.377   8.543  1.5570  1.0217 -0.3869
   64SAPC  H18Y 5263   2.321   4.236   8.513 -1.5863 -2.0965  0.2973
   64SAPC  H18Z 5264   2.159   4.230   8.462 -1.5137  2.2289 -0.7610
   65SAPC     N 5265   2.631   5.456   6.003 -0.5109 -0.1720  0.6218
   65SAPC   C12 5266   2.776   5.473   5.963 -0.0111 -0.5983 -0.4894
   65SAPC  H12A 5267   2.780   5.474   5.855  2.3418 -3.0775 -0.5415
   65SAPC  H12B 5268   2.835   5.387   5.991 -0.9805 -1.0269  0.2624
   65SAPC   C13 5269   2.549   5.579   5.948 -0.2014  0.0532 -0.1318
   65SAPC  H13A 5270   2.568   5.670   6.003 -0.6874 -0.0608  0.2333
   65SAPC  H13B 5271   2.563   5.594   5.842 -0.1747 -3.5456 -0.7670
   65SAPC  H13C 5272   2.443   5.573   5.963 -0.7870  0.5841 -3.3262
   65SAPC   C14 5273   2.582   5.332   5.937  0.3951 -0.2708  0.3129
   65SAPC  H14A 5274   2.581   5.349   5.831 -2.0148 -1.3777  0.1027
   65SAPC  H14B 5275   2.644   5.251   5.973 -0.8706 -0.6488  1.7455
   65SAPC  H14C 5276   2.481   5.319   5.972  0.0942 -1.9188 -1.0486
   65SAPC   C15 5277   2.616   5.451   6.152  0.3497  0.3745  0.9011
   65SAPC  H15A 5278   2.660   5.358   6.185  1.5084  0.3064 -0.7193
   65SAPC  H15B 5279   2.681   5.523   6.199  0.9139  1.3500 -1.2333
   65SAPC  H15C 5280   2.513   5.463   6.181 -1.0851  1.0312 -3.6620
   65SAPC   C11 5281   2.856   5.591   6.005  0.0732  0.1030  0.7566
   65SAPC  H11A 5282   2.793   5.677   5.975  1.2500  0.4353 -0.8759
   65SAPC  H11B 5283   2.944   5.588   5.939 -1.6385  1.3676 -1.7285
   65SAPC     P 5284   3.007   5.491   6.175  0.2478  0.0920 -0.0923
   65SAPC   O13 5285   3.006   5.362   6.096 -0.2700  0.1958 -0.4007
   65SAPC   O14 5286   3.130   5.571   6.173 -0.0812  0.3766 -0.1055
   65SAPC   O12 5287   2.879   5.581   6.141  0.4809  0.1310 -0.3443
   65SAPC   O11 5288   2.980   5.438   6.325 -0.3085  0.1935  0.0846
   65SAPC    C1 5289   2.896   5.508   6.413 -0.3733 -0.0972  0.3175
   65SAPC    HA 5290   2.879   5.611   6.375  1.2411 -0.1755 -0.7043
   65SAPC    HB 5291   2.800   5.454   6.427 -0.8904  0.8251  0.4280
   65SAPC    C2 5292   2.965   5.532   6.552 -0.2739 -0.2195  0.0033
   65SAPC    HS 5293   3.054   5.590   6.520 -0.5312 -0.3990 -1.0900
   65SAPC   O21 5294   3.009   5.410   6.609 -0.4276 -0.3028  0.4495
   65SAPC   C21 5295   3.094   5.426   6.711  0.2899  0.1319 -0.7666
   65SAPC   O22 5296   3.143   5.526   6.757  0.0607 -0.7582  0.0393
   65SAPC   C22 5297   3.119   5.296   6.787 -0.5940  0.7246  0.0472
   65SAPC   H2R 5298   3.159   5.219   6.718 -0.0996  1.2573 -0.2680
   65SAPC   H2S 5299   3.196   5.315   6.865  0.6903 -0.3192 -0.9226
   65SAPC    C3 5300   2.876   5.609   6.650 -0.5020  0.5278 -0.1562
   65SAPC    HX 5301   2.827   5.700   6.609 -1.4578  1.5024  2.8568
   65SAPC    HY 5302   2.945   5.646   6.728 -0.9029  2.3337 -0.6185
   65SAPC   O31 5303   2.771   5.523   6.705 -0.0176 -0.5250  0.3953
   65SAPC   C31 5304   2.713   5.597   6.800 -0.2950 -0.2581 -0.2351
   65SAPC   O32 5305   2.741   5.714   6.818 -0.0159 -0.2091  0.7084
   65SAPC   C32 5306   2.631   5.511   6.897 -0.4801  0.3596  0.0070
   65SAPC   H2X 5307   2.685   5.419   6.928 -1.5267 -0.6848 -1.1550
   65SAPC   H2Y 5308   2.550   5.461   6.840  0.8618 -2.9988  0.7638
   65SAPC   C23 5309   2.987   5.235   6.847  0.1969  0.0977 -0.6839
   65SAPC   H3R 5310   3.000   5.127   6.869 -0.0873  0.1597 -0.1813
   65SAPC   H3S 5311   2.902   5.233   6.775  0.2649 -1.6731 -0.7577
   65SAPC   C24 5312   2.935   5.296   6.982  0.7630 -0.3373  0.2583
   65SAPC   H4R 5313   2.832   5.257   6.991  0.1795  0.6998 -1.4145
   65SAPC   H4S 5314   2.928   5.406   6.970  0.8398 -0.3849 -0.2434
   65SAPC   C25 5315   3.013   5.251   7.103  0.1225  0.1588  0.6253
   65SAPC   H5R 5316   3.012   5.141   7.106 -1.2577  0.1444  0.3279
   65SAPC   C26 5317   3.079   5.320   7.199  0.3757  0.0808  0.0828
   65SAPC   H6R 5318   3.117   5.271   7.289  1.7893  0.3693 -0.3304
   65SAPC   C27 5319   3.091   5.471   7.204 -0.0324  0.2057 -0.0700
   65SAPC   H7R 5320   3.103   5.515   7.305  3.0493  0.5296 -0.4922
   65SAPC   H7S 5321   2.995   5.516   7.172 -2.2097 -1.9637  2.8171
   65SAPC   C28 5322   3.205   5.527   7.122 -0.3202  0.4240 -0.4007
   65SAPC   H8R 5323   3.188   5.511   7.015 -1.5631  0.5425 -0.2277
   65SAPC   C29 5324   3.323   5.579   7.166 -0.2902  0.4098 -0.5614
   65SAPC   H9R 5325   3.399   5.622   7.099  0.4175 -0.2447 -0.1957
   65SAPC  C210 5326   3.361   5.598   7.310 -0.5392 -0.1666  0.0724
   65SAPC  H10R 5327   3.277   5.640   7.369  0.8528  1.1638  1.2064
   65SAPC  H10S 5328   3.447   5.668   7.304  1.8650 -2.8999  0.0341
   65SAPC  C211 5329   3.411   5.477   7.387 -0.2930 -0.1525  0.2418
   65SAPC  H11R 5330   3.425   5.385   7.328  2.3342  0.8611 -0.8410
   65SAPC  C212 5331   3.443   5.475   7.516 -0.8722  0.0374 -1.2235
   65SAPC  H12R 5332   3.461   5.376   7.560 -0.3812  0.5761 -0.1850
   65SAPC  C213 5333   3.445   5.596   7.614 -0.5316  0.3023  0.4616
   65SAPC  H13R 5334   3.344   5.599   7.660 -0.7998  0.9247 -0.1571
   65SAPC  H13S 5335   3.465   5.689   7.557  1.3429 -1.4275 -1.9127
   65SAPC  C214 5336   3.547   5.575   7.719 -0.1763 -0.5509 -0.1830
   65SAPC  H14R 5337   3.524   5.487   7.781  4.1182  0.6116  3.5923
   65SAPC  C215 5338   3.653   5.650   7.747 -0.3308 -0.5125 -0.1921
   65SAPC  H15R 5339   3.720   5.617   7.827  2.1333  0.3241 -1.8024
   65SAPC  C216 5340   3.696   5.782   7.676  0.2587 -0.0005  0.5387
   65SAPC  H16R 5341   3.792   5.825   7.711  0.7227  1.8748 -2.6237
   65SAPC  H16S 5342   3.613   5.855   7.687  0.1830 -0.0081  0.0480
   65SAPC  C217 5343   3.728   5.756   7.528 -0.3433 -0.0079 -0.0182
   65SAPC  H17R 5344   3.664   5.688   7.468  1.4462 -2.1171  0.3132
   65SAPC  H17S 5345   3.833   5.719   7.519 -0.4094  0.1225 -1.6701
   65SAPC  C218 5346   3.720   5.883   7.439  0.3351  0.6819  0.1212
   65SAPC  H18R 5347   3.769   5.972   7.485  1.3091  0.7716 -1.0214
   65SAPC  H18S 5348   3.614   5.909   7.423 -0.6810 -1.9469  2.0073
   65SAPC  C219 5349   3.782   5.879   7.303 -0.2107 -0.2973 -0.7972
   65SAPC  H19R 5350   3.739   5.788   7.255  1.9116 -2.3727  0.9912
   65SAPC  H19S 5351   3.890   5.851   7.308  0.5044  2.2782 -0.5234
   65SAPC  C220 5352   3.758   5.989   7.206 -0.0069  0.4482 -0.4948
   65SAPC  H20R 5353   3.783   6.088   7.248  0.6088  0.1090 -0.0483
   65SAPC  H20S 5354   3.650   5.991   7.178 -0.6509  2.9517  1.7348
   65SAPC  H20T 5355   3.813   5.971   7.111 -0.4395 -1.5959 -0.4156
   65SAPC   C33 5356   2.587   5.587   7.021  0.3622 -0.5067  0.5718
   65SAPC   H3X 5357   2.504   5.656   6.992  1.8764  1.6011  0.9569
   65SAPC   H3Y 5358   2.670   5.655   7.050 -0.9094  0.8559  1.1680
   65SAPC   C34 5359   2.530   5.502   7.133  0.4106  0.1058  0.5213
   65SAPC   H4X 5360   2.599   5.419   7.161  1.1358 -0.4869 -2.6760
   65SAPC   H4Y 5361   2.434   5.457   7.101  1.2586 -1.2157 -0.2898
   65SAPC   C35 5362   2.487   5.575   7.260 -0.2525 -0.0897 -0.3501
   65SAPC   H5X 5363   2.428   5.516   7.333  0.4191  0.4900  0.6848
   65SAPC   H5Y 5364   2.430   5.664   7.224  2.1010  1.7249  0.1535
   65SAPC   C36 5365   2.602   5.655   7.329 -0.5722  0.0299 -0.6269
   65SAPC   H6X 5366   2.562   5.722   7.408  0.4502  0.2648 -0.3009
   65SAPC   H6Y 5367   2.641   5.725   7.253  1.3240 -1.0780 -0.7462
   65SAPC   C37 5368   2.710   5.560   7.387 -0.4873  0.4628 -0.6075
   65SAPC   H7X 5369   2.806   5.610   7.410  0.8197 -2.5603  1.1551
   65SAPC   H7Y 5370   2.735   5.484   7.309 -2.0533  0.9874 -1.6748
   65SAPC   C38 5371   2.662   5.482   7.511 -0.0088 -0.1686  0.3141
   65SAPC   H8X 5372   2.729   5.394   7.518  1.9868  1.3558  1.4301
   65SAPC   H8Y 5373   2.558   5.451   7.490 -1.0095  2.3624  1.1388
   65SAPC   C39 5374   2.673   5.551   7.650  0.2029 -0.5398 -0.2459
   65SAPC   H9X 5375   2.593   5.629   7.648  0.4293 -0.2578  0.9876
   65SAPC   H9Y 5376   2.774   5.596   7.649  0.1108 -0.3136 -1.6732
   65SAPC  C310 5377   2.673   5.452   7.769  0.1656  0.5760  0.4678
   65SAPC  H10X 5378   2.776   5.411   7.774 -0.4793 -0.9419  2.1834
   65SAPC  H10Y 5379   2.591   5.379   7.754  0.7616  0.5078 -3.5411
   65SAPC  C311 5380   2.648   5.522   7.904  0.8188 -0.2533 -0.1250
   65SAPC  H11X 5381   2.672   5.450   7.986 -2.2011 -1.5701 -0.2674
   65SAPC  H11Y 5382   2.541   5.537   7.930  1.0906 -0.6604  1.3040
   65SAPC  C312 5383   2.738   5.643   7.929 -0.0924 -0.3499 -0.2366
   65SAPC  H12X 5384   2.726   5.718   7.847  0.6542  0.6413  0.5227
   65SAPC  H12Y 5385   2.845   5.614   7.916 -0.3739 -1.2503 -0.5890
   65SAPC  C313 5386   2.733   5.698   8.072 -0.5785  0.5750 -0.2430
   65SAPC  H13X 5387   2.789   5.791   8.099 -2.2349  1.4814  0.2199
   65SAPC  H13Y 5388   2.768   5.618   8.141 -2.5533  0.1894  0.3882
   65SAPC  C314 5389   2.596   5.732   8.122 -0.4245  0.7393 -0.2430
   65SAPC  H14X 5390   2.539   5.637   8.124  1.0510 -0.1721  1.4459
   65SAPC  H14Y 5391   2.559   5.797   8.040  0.8559  1.1005 -0.5614
   65SAPC  C315 5392   2.588   5.795   8.263  0.2987  0.6630 -0.0928
   65SAPC  H15X 5393   2.492   5.847   8.283  0.5131  0.6001  1.2019
   65SAPC  H15Y 5394   2.671   5.868   8.274  0.4383  0.9100 -2.4192
   65SAPC  C316 5395   2.603   5.687   8.373 -0.6703  0.5669  0.0424
   65SAPC  H16X 5396   2.683   5.725   8.440 -2.0115  1.1738  1.3499
   65SAPC  H16Y 5397   2.649   5.595   8.331 -0.2900  0.4924  0.6173
   65SAPC  C317 5398   2.476   5.666   8.458  0.2875 -0.3200  1.0855
   65SAPC  H17X 5399   2.409   5.599   8.398  0.8699  0.0400 -0.0012
   65SAPC  H17Y 5400   2.425   5.763   8.474  1.5735  1.0262 -2.1212
   65SAPC  C318 5401   2.517   5.597   8.588 -0.7208 -0.4144  0.1373
   65SAPC  H18X 5402   2.428   5.572   8.649  0.8833 -1.3889  2.2083
   65SAPC  H18Y 5403   2.586   5.661   8.647 -0.4143  1.5542 -2.2150
   65SAPC  H18Z 5404   2.581   5.509   8.564  1.6314  1.5588 -1.3258
   66SAPC     N 5405   0.738   2.537   6.097 -0.8828 -0.1801 -0.4631
   66SAPC   C12 5406   0.699   2.653   6.192 -0.0707  0.0659  0.0955
   66SAPC  H12A 5407   0.699   2.624   6.296 -3.8043 -1.5897 -0.2082
   66SAPC  H12B 5408   0.597   2.683   6.177 -0.7798  1.0439  5.1635
   66SAPC   C13 5409   0.654   2.412   6.127 -0.2143 -0.0175 -0.2238
   66SAPC  H13A 5410   0.686   2.325   6.071 -0.4763 -0.4446  0.2720
   66SAPC  H13B 5411   0.658   2.389   6.233  0.0918  2.0730  0.2562
   66SAPC  H13C 5412   0.553   2.432   6.094  0.5404  1.2017 -1.9189
   66SAPC   C14 5413   0.722   2.588   5.952  0.3136  0.6532 -0.1678
   66SAPC  H14A 5414   0.793   2.669   5.945  0.5261  0.3661 -1.6880
   66SAPC  H14B 5415   0.754   2.513   5.881  0.4245 -0.4113  0.9616
   66SAPC  H14C 5416   0.627   2.636   5.937 -0.6359 -1.8290 -2.9204
   66SAPC   C15 5417   0.884   2.496   6.112  0.6255  0.7843  0.6881
   66SAPC  H15A 5418   0.945   2.574   6.068 -0.7212  1.4389 -0.0843
   66SAPC  H15B 5419   0.903   2.488   6.218  2.7884  1.8494  0.4333
   66SAPC  H15C 5420   0.913   2.404   6.063  2.5204  0.5699  2.0981
   66SAPC   C11 5421   0.784   2.781   6.192  0.4346  0.3964 -0.5342
   66SAPC  H11A 5422   0.892   2.759   6.209  0.1757 -0.4337  0.1017
   66SAPC  H11B 5423   0.746   2.848   6.272  1.9496  2.3893 -1.3856
   66SAPC     P 5424   0.636   2.930   6.038 -0.5529  0.6243  0.3132
   66SAPC   O13 5425   0.659   3.009   5.911  0.3154  0.0573  0.1110
   66SAPC   O14 5426   0.523   2.840   6.037 -0.4346 -0.4014 -0.4912
   66SAPC   O12 5427   0.766   2.840   6.061 -0.5673  0.2255  0.1546
   66SAPC   O11 5428   0.637   3.024   6.163 -0.1725  0.2734  0.0276
   66SAPC    C1 5429   0.541   3.131   6.167  0.6472  0.0431 -0.0551
   66SAPC    HA 5430   0.576   3.217   6.106  0.5426  1.5316  1.8928
   66SAPC    HB 5431   0.435   3.111   6.139  0.5664  3.5352 -3.0678
   66SAPC    C2 5432   0.542   3.172   6.312 -0.0208  0.4433  0.2338
   66SAPC    HS 5433   0.455   3.241   6.318  0.8736  1.6281 -0.2019
   66SAPC   O21 5434   0.669   3.232   6.345 -0.0562  0.3847 -0.3383
   66SAPC   C21 5435   0.672   3.363   6.349  0.0218 -0.1643  0.6979
   66SAPC   O22 5436   0.580   3.442   6.330  0.5262  0.6157 -0.7552
   66SAPC   C22 5437   0.819   3.415   6.362 -0.0061  0.8268 -0.5975
   66SAPC   H2R 5438   0.876   3.344   6.426 -2.6408  0.7552  1.8502
   66SAPC   H2S 5439   0.853   3.404   6.257  1.0805 -2.2234 -0.0375
   66SAPC    C3 5440   0.517   3.048   6.403  0.5786 -0.3471 -0.0778
   66SAPC    HX 5441   0.576   2.960   6.372  0.2464  0.1129 -2.1174
   66SAPC    HY 5442   0.411   3.017   6.386  0.8572 -1.1901 -0.3462
   66SAPC   O31 5443   0.535   3.091   6.538 -0.0292  0.1300  0.5243
   66SAPC   C31 5444   0.534   2.991   6.629 -0.0312  0.3190  0.4733
   66SAPC   O32 5445   0.522   2.872   6.600  0.2374 -0.0693 -0.1628
   66SAPC   C32 5446   0.558   3.052   6.772  0.1555 -0.1517  0.5759
   66SAPC   H2X 5447   0.457   3.084   6.805  0.3550 -0.1344  1.1852
   66SAPC   H2Y 5448   0.621   3.143   6.774  1.1375 -0.7862 -0.3788
   66SAPC   C23 5449   0.836   3.556   6.420 -0.6088  0.4024  0.3534
   66SAPC   H3R 5450   0.740   3.586   6.469 -0.8177 -0.6593  0.6222
   66SAPC   H3S 5451   0.854   3.627   6.337  0.2781  0.4114  0.5447
   66SAPC   C24 5452   0.954   3.552   6.511  0.3514  0.0321 -0.1362
   66SAPC   H4R 5453   1.039   3.539   6.441 -0.4175 -3.6016 -0.5842
   66SAPC   H4S 5454   0.957   3.461   6.574  0.4417  1.8977  2.7411
   66SAPC   C25 5455   0.960   3.682   6.588 -0.0746  0.0711 -0.0670
   66SAPC   H5R 5456   0.886   3.762   6.571 -0.3079 -0.0309  0.4774
   66SAPC   C26 5457   1.061   3.711   6.676  0.0610  0.6542 -0.2863
   66SAPC   H6R 5458   1.055   3.808   6.729  0.8727  0.2156  0.6282
   66SAPC   C27 5459   1.165   3.611   6.704  0.4246  0.7626  0.3517
   66SAPC   H7R 5460   1.187   3.564   6.606 -0.0137 -1.3329  1.1864
   66SAPC   H7S 5461   1.122   3.534   6.772 -0.9423  1.3140  0.1478
   66SAPC   C28 5462   1.290   3.674   6.761 -0.5468 -0.4598 -0.7205
   66SAPC   H8R 5463   1.308   3.780   6.740  0.3859 -0.2161  1.0869
   66SAPC   C29 5464   1.388   3.615   6.840 -0.3709  0.5098 -0.4282
   66SAPC   H9R 5465   1.467   3.672   6.892 -1.7849  0.6729  1.6688
   66SAPC  C210 5466   1.381   3.473   6.885 -0.8397  0.2317  0.2815
   66SAPC  H10R 5467   1.321   3.409   6.817  0.1299  0.1965 -0.5732
   66SAPC  H10S 5468   1.319   3.457   6.976  0.9544 -1.4375  1.2975
   66SAPC  C211 5469   1.525   3.419   6.909 -0.7326 -0.2943 -0.1212
   66SAPC  H11R 5470   1.593   3.409   6.824 -0.2397  1.6288  0.0212
   66SAPC  C212 5471   1.574   3.363   7.027 -0.6672 -0.3173  0.5142
   66SAPC  H12R 5472   1.678   3.330   7.019 -0.4031  0.4846  0.4922
   66SAPC  C213 5473   1.502   3.333   7.158 -0.1088 -0.8272  0.5862
   66SAPC  H13R 5474   1.565   3.264   7.216  0.3869 -0.8518  0.0290
   66SAPC  H13S 5475   1.410   3.280   7.124  0.1046 -0.2557 -0.9594
   66SAPC  C214 5476   1.464   3.455   7.237  0.0591  0.0067 -0.3256
   66SAPC  H14R 5477   1.474   3.550   7.181  1.0765 -0.0602 -0.2697
   66SAPC  C215 5478   1.431   3.458   7.368 -0.3319 -0.7129 -0.4655
   66SAPC  H15R 5479   1.409   3.551   7.424  1.7121 -0.4904  0.0275
   66SAPC  C216 5480   1.430   3.348   7.472  0.3591 -0.3041  0.1289
   66SAPC  H16R 5481   1.446   3.249   7.424  1.4953 -0.0293 -0.0812
   66SAPC  H16S 5482   1.336   3.348   7.532  0.2788  1.1276  0.0237
   66SAPC  C217 5483   1.541   3.369   7.578 -0.1519  0.1825 -0.5156
   66SAPC  H17R 5484   1.538   3.474   7.615  0.4599 -0.4722  1.4973
   66SAPC  H17S 5485   1.644   3.341   7.548  0.5923 -1.3782  2.9734
   66SAPC  C218 5486   1.520   3.273   7.702 -0.3115 -0.0052  0.8069
   66SAPC  H18R 5487   1.551   3.173   7.666  0.4040  0.5686 -0.2188
   66SAPC  H18S 5488   1.415   3.292   7.732  0.3004  0.8240  2.6061
   66SAPC  C219 5489   1.600   3.312   7.830  0.2186  0.6533  0.1690
   66SAPC  H19R 5490   1.546   3.263   7.913  1.1145  0.2042  0.5045
   66SAPC  H19S 5491   1.598   3.422   7.844  0.4223  0.6626  0.1284
   66SAPC  C220 5492   1.749   3.264   7.822  0.5089 -0.2326 -0.6621
   66SAPC  H20R 5493   1.771   3.155   7.821  1.8262  0.0062  0.0782
   66SAPC  H20S 5494   1.802   3.311   7.907  0.3756 -1.6373  0.2290
   66SAPC  H20T 5495   1.786   3.312   7.729  0.5528 -0.8391 -0.9645
   66SAPC   C33 5496   0.626   2.948   6.869 -0.5873  0.3078 -0.1046
   66SAPC   H3X 5497   0.736   2.952   6.854 -0.4294 -1.3566  0.4051
   66SAPC   H3Y 5498   0.590   2.846   6.841  2.1501 -0.5111 -0.8981
   66SAPC   C34 5499   0.589   2.961   7.020  1.0249 -0.6039  0.0455
   66SAPC   H4X 5500   0.491   2.915   7.044  0.5634  0.3304  0.0151
   66SAPC   H4Y 5501   0.580   3.072   7.030 -0.4413 -0.3254 -3.0596
   66SAPC   C35 5502   0.697   2.909   7.113 -0.0066 -0.3038 -0.6939
   66SAPC   H5X 5503   0.797   2.934   7.073  0.3361 -1.3791 -0.5454
   66SAPC   H5Y 5504   0.690   2.803   7.145 -0.0430  0.2695  1.3583
   66SAPC   C36 5505   0.698   2.976   7.255  0.1486 -0.0376 -0.0963
   66SAPC   H6X 5506   0.728   3.081   7.238  0.6155 -0.4724 -2.2900
   66SAPC   H6Y 5507   0.784   2.939   7.315 -0.3842 -0.8552  0.1773
   66SAPC   C37 5508   0.568   2.968   7.333 -0.9186  0.5974  0.0622
   66SAPC   H7X 5509   0.543   2.863   7.360  0.9689  0.0481 -0.1390
   66SAPC   H7Y 5510   0.483   3.002   7.271 -0.2685 -0.4151 -1.4773
   66SAPC   C38 5511   0.565   3.059   7.466 -0.0281 -0.6363 -0.1761
   66SAPC   H8X 5512   0.457   3.057   7.493 -0.5973 -2.6331 -2.2498
   66SAPC   H8Y 5513   0.586   3.164   7.437 -1.1248 -0.3675 -0.0482
   66SAPC   C39 5514   0.651   3.006   7.580  0.2047  0.0546 -0.3738
   66SAPC   H9X 5515   0.754   3.040   7.556  1.1000 -1.3148  1.3073
   66SAPC   H9Y 5516   0.642   2.895   7.575 -0.9397  0.0852  0.6604
   66SAPC  C310 5517   0.602   3.060   7.717 -0.0309 -0.3771  0.5701
   66SAPC  H10X 5518   0.595   3.171   7.721 -0.2032 -0.4082  1.3521
   66SAPC  H10Y 5519   0.680   3.028   7.790  0.8458 -1.0424 -0.6371
   66SAPC  C311 5520   0.468   3.001   7.765  0.2281  0.0627  0.6596
   66SAPC  H11X 5521   0.479   2.891   7.777  1.6870  0.1670  0.4862
   66SAPC  H11Y 5522   0.383   3.022   7.697  1.4861 -3.0206 -2.1620
   66SAPC  C312 5523   0.418   3.050   7.901 -0.8332  0.4632  0.3788
   66SAPC  H12X 5524   0.417   3.160   7.894 -0.8569  0.3732 -1.4280
   66SAPC  H12Y 5525   0.498   3.022   7.973 -0.9393 -0.3210  0.2065
   66SAPC  C313 5526   0.274   2.996   7.938 -0.2657 -0.1216  0.3408
   66SAPC  H13X 5527   0.292   2.886   7.939  1.6538  0.1258 -0.8575
   66SAPC  H13Y 5528   0.199   3.019   7.859  0.0650 -0.4258 -0.0692
   66SAPC  C314 5529   0.231   3.046   8.076 -0.6284  0.3154  0.6628
   66SAPC  H14X 5530   0.182   3.145   8.060  1.1508  1.1415  0.0077
   66SAPC  H14Y 5531   0.324   3.069   8.132 -1.1629  3.4674  0.4611
   66SAPC  C315 5532   0.143   2.948   8.148 -0.2996 -0.0682  0.2780
   66SAPC  H15X 5533   0.219   2.870   8.172 -0.9688 -1.0251 -0.6574
   66SAPC  H15Y 5534   0.066   2.908   8.080 -0.1121 -0.5981  0.3710
   66SAPC  C316 5535   0.077   3.007   8.281 -0.1153  0.2215 -0.4300
   66SAPC  H16X 5536   0.021   3.097   8.249  1.8643  0.9513 -1.9757
   66SAPC  H16Y 5537   0.156   3.037   8.353 -2.5311  2.6112  1.4185
   66SAPC  C317 5538  -0.019   2.903   8.341  0.2175 -0.4101  0.1645
   66SAPC  H17X 5539   0.033   2.809   8.369  0.7091 -0.3756 -0.6035
   66SAPC  H17Y 5540  -0.094   2.881   8.262 -0.7498 -0.6711  1.1290
   66SAPC  C318 5541  -0.086   2.944   8.476  0.3022  0.3523  0.1057
   66SAPC  H18X 5542  -0.007   2.991   8.538  0.0720  1.9723 -0.7760
   66SAPC  H18Y 5543  -0.143   2.854   8.509 -1.3566  0.3726 -2.3871
   66SAPC  H18Z 5544  -0.162   3.022   8.455 -0.6012 -0.5836 -0.2387
   67SAPC     N 5545   2.221   6.499   6.111  0.1224 -0.6536  0.1244
   67SAPC   C12 5546   2.249   6.459   6.257 -0.1874  0.1843  0.7193
   67SAPC  H12A 5547   2.191   6.530   6.314 -2.3201  0.3536 -1.5022
   67SAPC  H12B 5548   2.352   6.473   6.286  0.4208 -1.1236 -0.6691
   67SAPC   C13 5549   2.075   6.524   6.081  0.2592 -0.0060 -0.7306
   67SAPC  H13A 5550   2.066   6.563   5.980  1.5622  1.0711 -0.4621
   67SAPC  H13B 5551   2.019   6.433   6.094  0.3409 -0.0512 -0.6957
   67SAPC  H13C 5552   2.026   6.603   6.136 -2.7813 -1.3744 -1.2433
   67SAPC   C14 5553   2.291   6.627   6.090 -0.0269 -0.1455  0.5863
   67SAPC  H14A 5554   2.394   6.631   6.122  0.6913  0.1255 -1.5423
   67SAPC  H14B 5555   2.287   6.634   5.982 -0.8202 -0.2507  0.6056
   67SAPC  H14C 5556   2.237   6.705   6.141 -0.1195 -0.6862  1.3355
   67SAPC   C15 5557   2.274   6.406   6.009  0.3713 -0.6462 -0.0635
   67SAPC  H15A 5558   2.382   6.405   6.007  0.3684 -1.1962 -0.3594
   67SAPC  H15B 5559   2.229   6.309   6.024 -1.1707  0.2094  1.0629
   67SAPC  H15C 5560   2.253   6.448   5.912  1.3681  1.1854  0.4688
   67SAPC   C11 5561   2.207   6.321   6.304 -0.2901  0.7160 -0.3643
   67SAPC  H11A 5562   2.110   6.296   6.258  1.7352 -3.1618 -3.1217
   67SAPC  H11B 5563   2.205   6.322   6.415  0.0989 -1.1826 -0.3144
   67SAPC     P 5564   2.437   6.192   6.306  0.1696 -0.2622  0.2036
   67SAPC   O13 5565   2.514   6.134   6.193 -0.2902 -0.6293 -0.2674
   67SAPC   O14 5566   2.494   6.313   6.372  0.2262 -0.3192 -0.5722
   67SAPC   O12 5567   2.297   6.221   6.251  0.0910  0.3207  0.5238
   67SAPC   O11 5568   2.416   6.079   6.417  0.2065  0.6427  0.6907
   67SAPC    C1 5569   2.314   5.981   6.386 -0.8623 -0.1255 -0.7807
   67SAPC    HA 5570   2.293   5.979   6.277 -1.4313  0.5488 -0.6885
   67SAPC    HB 5571   2.362   5.884   6.410  0.9070  1.0831  0.9278
   67SAPC    C2 5572   2.192   5.995   6.481 -0.4553 -0.2398 -0.2304
   67SAPC    HS 5573   2.144   6.093   6.459  0.0802  0.1790  0.4128
   67SAPC   O21 5574   2.233   5.988   6.616 -0.2605 -0.6146 -0.3952
   67SAPC   C21 5575   2.261   6.096   6.685  0.3152 -0.0142  0.6753
   67SAPC   O22 5576   2.249   6.210   6.644  0.3023  0.0678  0.3025
   67SAPC   C22 5577   2.290   6.044   6.828  0.4721 -0.2764 -0.1472
   67SAPC   H2R 5578   2.266   6.125   6.900 -2.7535  0.3974 -1.7673
   67SAPC   H2S 5579   2.209   5.970   6.843 -1.4303  1.4786 -1.1075
   67SAPC    C3 5580   2.086   5.880   6.452  0.5387 -0.2984  0.2833
   67SAPC    HX 5581   2.124   5.786   6.495 -0.2074 -0.3833  0.7668
   67SAPC    HY 5582   2.066   5.880   6.342 -1.5544  0.4410  0.6187
   67SAPC   O31 5583   1.963   5.903   6.533  0.8368  0.1357  0.0994
   67SAPC   C31 5584   1.861   5.969   6.479  0.5365  0.7029  0.0992
   67SAPC   O32 5585   1.854   6.024   6.376  0.4663  0.1122 -0.6189
   67SAPC   C32 5586   1.746   5.965   6.582  0.1389 -0.0317  0.0696
   67SAPC   H2X 5587   1.732   5.855   6.574  3.7196 -0.9100  2.8830
   67SAPC   H2Y 5588   1.661   6.023   6.542  2.3617  3.5203  0.0940
   67SAPC   C23 5589   2.429   5.981   6.838  0.1086  0.2367 -0.1242
   67SAPC   H3R 5590   2.507   6.026   6.774  0.6692  0.4257  0.6745
   67SAPC   H3S 5591   2.424   5.876   6.803  0.8932 -0.0721  0.6525
   67SAPC   C24 5592   2.482   5.971   6.985  0.4078 -0.0262  0.8397
   67SAPC   H4R 5593   2.565   5.897   6.982  0.1953 -0.3015  1.4648
   67SAPC   H4S 5594   2.402   5.926   7.048 -0.7644 -0.5107 -0.9208
   67SAPC   C25 5595   2.534   6.103   7.036  0.8184  0.0619  0.0368
   67SAPC   H5R 5596   2.546   6.180   6.958 -1.5716 -0.0943 -0.5662
   67SAPC   C26 5597   2.551   6.146   7.163 -0.3945 -0.3551 -0.5903
   67SAPC   H6R 5598   2.588   6.246   7.190 -1.8515 -0.3394  1.6024
   67SAPC   C27 5599   2.557   6.052   7.282 -0.2468 -0.3336 -0.2674
   67SAPC   H7R 5600   2.526   5.948   7.260 -2.2963  0.1417  0.1786
   67SAPC   H7S 5601   2.498   6.088   7.369  0.6514 -2.3333  1.2581
   67SAPC   C28 5602   2.697   6.039   7.326  0.2926  0.2793 -0.6465
   67SAPC   H8R 5603   2.760   6.002   7.245  0.9063 -1.3030  0.5041
   67SAPC   C29 5604   2.750   6.070   7.451  0.6163  0.5906 -0.0569
   67SAPC   H9R 5605   2.860   6.060   7.460  0.5523 -0.8870 -0.6104
   67SAPC  C210 5606   2.678   6.117   7.575  0.4777  0.3208 -0.4263
   67SAPC  H10R 5607   2.602   6.193   7.546  0.2853 -0.5783 -2.5243
   67SAPC  H10S 5608   2.750   6.157   7.650 -1.8525 -0.9158  2.6809
   67SAPC  C211 5609   2.609   6.006   7.648  0.5175  0.0482 -0.2784
   67SAPC  H11R 5610   2.541   5.946   7.585  1.3561 -0.0929 -1.0718
   67SAPC  C212 5611   2.610   5.972   7.777  0.0703 -0.8827  0.0278
   67SAPC  H12R 5612   2.548   5.888   7.811  0.7946 -0.4571  2.6605
   67SAPC  C213 5613   2.700   6.041   7.882  0.7249 -0.3234  0.1765
   67SAPC  H13R 5614   2.792   6.082   7.835  0.2253  0.4125 -0.1891
   67SAPC  H13S 5615   2.738   5.968   7.956  0.7057  1.8361  2.4609
   67SAPC  C214 5616   2.629   6.154   7.962  0.1869  0.3884  0.4003
   67SAPC  H14R 5617   2.525   6.183   7.940 -0.2096  1.0230  2.8626
   67SAPC  C215 5618   2.683   6.216   8.072  0.8790  0.0177  0.4954
   67SAPC  H15R 5619   2.620   6.286   8.129  2.1130  1.4616  0.1357
   67SAPC  C216 5620   2.828   6.182   8.118  0.1229 -0.2379  0.1836
   67SAPC  H16R 5621   2.878   6.266   8.064 -3.3416  2.1311  0.3538
   67SAPC  H16S 5622   2.876   6.088   8.082 -0.5277 -0.3715 -0.3609
   67SAPC  C217 5623   2.837   6.198   8.272 -0.0695  0.1171  0.4371
   67SAPC  H17R 5624   2.766   6.124   8.316 -0.1652 -0.2436 -0.3012
   67SAPC  H17S 5625   2.831   6.292   8.330  1.2015  0.6650 -0.2902
   67SAPC  C218 5626   2.982   6.153   8.312  0.3778  0.0497 -0.1798
   67SAPC  H18R 5627   3.046   6.202   8.235  0.6085 -1.3076 -0.8926
   67SAPC  H18S 5628   3.010   6.048   8.288  0.4006  0.0307 -0.0703
   67SAPC  C219 5629   3.029   6.187   8.457 -0.2443 -0.5282  0.2298
   67SAPC  H19R 5630   3.013   6.294   8.484 -3.2253 -0.5188 -1.1186
   67SAPC  H19S 5631   3.138   6.169   8.458 -0.1609 -0.1454 -0.7304
   67SAPC  C220 5632   2.970   6.089   8.569 -0.3887 -0.3149  0.3839
   67SAPC  H20R 5633   2.862   6.103   8.590 -0.7397 -1.2076 -0.7146
   67SAPC  H20S 5634   3.022   6.111   8.664  1.1375 -1.5882 -0.1290
   67SAPC  H20T 5635   2.997   5.987   8.537  0.0396 -0.0938  0.0293
   67SAPC   C33 5636   1.791   6.013   6.724  0.5373 -0.9886  0.0967
   67SAPC   H3X 5637   1.880   5.956   6.756  1.3057 -0.9464 -1.7954
   67SAPC   H3Y 5638   1.700   6.007   6.787 -0.9173  0.5604 -1.7072
   67SAPC   C34 5639   1.815   6.158   6.727  0.2010  1.4459  0.4863
   67SAPC   H4X 5640   1.730   6.200   6.670 -0.9867 -1.7346 -0.3285
   67SAPC   H4Y 5641   1.904   6.178   6.664  0.3522 -1.7274 -0.4796
   67SAPC   C35 5642   1.823   6.213   6.870 -0.1652 -0.4716 -0.0198
   67SAPC   H5X 5643   1.741   6.178   6.937 -1.8365  2.2563 -0.4663
   67SAPC   H5Y 5644   1.795   6.321   6.862 -0.3212 -0.2971  2.1865
   67SAPC   C36 5645   1.962   6.225   6.932  0.7373  0.1985 -0.0063
   67SAPC   H6X 5646   2.011   6.307   6.874  0.0788  0.8237  0.2984
   67SAPC   H6Y 5647   1.996   6.122   6.909 -0.4890  0.3050 -2.6953
   67SAPC   C37 5648   1.964   6.240   7.077 -0.1343  0.0244  0.2097
   67SAPC   H7X 5649   1.877   6.182   7.114 -0.8474  0.8033 -0.2280
   67SAPC   H7Y 5650   1.947   6.347   7.103 -1.0665  0.5098 -2.0893
   67SAPC   C38 5651   2.090   6.163   7.134 -0.4369 -0.3058  0.7507
   67SAPC   H8X 5652   2.189   6.198   7.099 -1.6462  4.4636  1.3400
   67SAPC   H8Y 5653   2.078   6.054   7.118 -0.5046 -0.6168  2.6570
   67SAPC   C39 5654   2.095   6.187   7.274  0.7961 -0.6342  0.0286
   67SAPC   H9X 5655   1.994   6.179   7.319  1.2058 -1.6759  0.8240
   67SAPC   H9Y 5656   2.137   6.287   7.301 -0.1849  0.0282 -0.8152
   67SAPC  C310 5657   2.188   6.089   7.341 -0.0847  0.4038  0.6864
   67SAPC  H10X 5658   2.278   6.081   7.277 -0.5311  0.0165  0.0940
   67SAPC  H10Y 5659   2.157   5.983   7.351  2.6089 -0.3546  1.7910
   67SAPC  C311 5660   2.246   6.131   7.479 -0.1013 -0.9353  0.0973
   67SAPC  H11X 5661   2.298   6.227   7.462 -0.4280 -0.7821 -0.0427
   67SAPC  H11Y 5662   2.315   6.048   7.506 -0.6345 -1.0730  1.0894
   67SAPC  C312 5663   2.129   6.146   7.576  0.2182 -0.8245 -0.4480
   67SAPC  H12X 5664   2.070   6.051   7.577 -2.1119  0.5421 -0.4512
   67SAPC  H12Y 5665   2.067   6.228   7.534  0.6973  0.3469  1.0594
   67SAPC  C313 5666   2.180   6.185   7.714 -0.1195  0.1939  0.0834
   67SAPC  H13X 5667   2.260   6.262   7.716  1.2146 -1.1455  1.2866
   67SAPC  H13Y 5668   2.228   6.095   7.757  0.3449 -1.1805 -3.0518
   67SAPC  C314 5669   2.068   6.233   7.813 -0.4565 -0.2314 -0.6072
   67SAPC  H14X 5670   1.989   6.156   7.826 -1.5547  1.0750  0.9119
   67SAPC  H14Y 5671   2.022   6.321   7.762 -3.2260 -0.9960  0.3854
   67SAPC  C315 5672   2.118   6.293   7.952  0.0212 -0.7179  0.3116
   67SAPC  H15X 5673   2.032   6.319   8.018  0.8804 -0.5298  1.4029
   67SAPC  H15Y 5674   2.159   6.395   7.933 -2.2053 -0.1166 -1.7193
   67SAPC  C316 5675   2.222   6.205   8.021 -0.2781  0.3948 -0.7746
   67SAPC  H16X 5676   2.235   6.244   8.124  0.7353 -2.6627  0.3645
   67SAPC  H16Y 5677   2.320   6.218   7.969  0.6836 -0.0600  0.8375
   67SAPC  C317 5678   2.185   6.055   8.040 -0.7261 -0.3296  0.1631
   67SAPC  H17X 5679   2.154   6.013   7.941  4.0966  0.5597 -2.0223
   67SAPC  H17Y 5680   2.108   6.041   8.118 -1.4692  0.7966 -0.3376
   67SAPC  C318 5681   2.313   5.974   8.083  0.2194 -0.0990  1.1200
   67SAPC  H18X 5682   2.388   5.980   8.001 -0.4373  0.8412  0.5717
   67SAPC  H18Y 5683   2.295   5.869   8.114  0.8118 -0.1091  1.4483
   67SAPC  H18Z 5684   2.364   6.024   8.168 -1.2096  0.2986  1.7839
   68SAPC     N 5685   3.155   4.467   6.209  0.5267 -0.4744 -0.0468
   68SAPC   C12 5686   3.014   4.510   6.206 -0.4310 -0.1852  0.3619
   68SAPC  H12A 5687   2.963   4.504   6.301  0.4865 -1.9640  0.7800
   68SAPC  H12B 5688   2.962   4.437   6.145  0.0514 -0.1969 -0.0404
   68SAPC   C13 5689   3.219   4.458   6.076 -0.0575 -0.0672 -0.3614
   68SAPC  H13A 5690   3.321   4.423   6.075  0.1924  0.6161 -1.5097
   68SAPC  H13B 5691   3.165   4.400   6.002  0.0007 -0.6853  0.0750
   68SAPC  H13C 5692   3.230   4.562   6.046 -0.6333  0.1683  0.2333
   68SAPC   C14 5693   3.245   4.549   6.291  0.1506  0.1409 -0.5269
   68SAPC  H14A 5694   3.212   4.539   6.393 -0.1879  1.4862 -0.4818
   68SAPC  H14B 5695   3.348   4.518   6.286  0.4164  0.8280  0.4974
   68SAPC  H14C 5696   3.248   4.654   6.265 -1.4868  0.2332 -0.4899
   68SAPC   C15 5697   3.157   4.331   6.269 -0.5287  0.6911 -0.4783
   68SAPC  H15A 5698   3.117   4.338   6.369  1.3977  1.5009  0.2804
   68SAPC  H15B 5699   3.099   4.254   6.221 -0.3047 -0.6314  1.2844
   68SAPC  H15C 5700   3.259   4.296   6.258 -1.3433 -1.6601 -1.0058
   68SAPC   C11 5701   2.984   4.649   6.141 -0.4765 -0.1913  0.4153
   68SAPC  H11A 5702   2.985   4.639   6.031  0.5419  0.5987  0.3342
   68SAPC  H11B 5703   3.059   4.730   6.159 -0.7955  0.4371 -0.9401
   68SAPC     P 5704   2.847   4.746   6.324  0.6625  0.0843 -0.5429
   68SAPC   O13 5705   2.860   4.636   6.427  0.0475 -0.4844  0.4529
   68SAPC   O14 5706   2.937   4.866   6.339  0.2225 -0.3031 -0.9609
   68SAPC   O12 5707   2.850   4.685   6.177 -0.1912  0.3929  0.0418
   68SAPC   O11 5708   2.692   4.799   6.332  1.1171  0.8215 -0.1088
   68SAPC    C1 5709   2.585   4.709   6.316 -1.0472  0.4824  0.6561
   68SAPC    HA 5710   2.521   4.738   6.230 -0.0389  1.3099  0.1669
   68SAPC    HB 5711   2.619   4.604   6.300  1.1110  1.1550  0.5161
   68SAPC    C2 5712   2.494   4.703   6.445 -0.7501  0.1584  0.1765
   68SAPC    HS 5713   2.487   4.810   6.473  0.9662  0.3130  0.1418
   68SAPC   O21 5714   2.559   4.624   6.546 -0.2747 -0.4977 -0.2505
   68SAPC   C21 5715   2.615   4.693   6.647  0.0954  0.5538  0.0227
   68SAPC   O22 5716   2.649   4.809   6.644  0.0973 -0.0858 -0.3979
   68SAPC   C22 5717   2.626   4.596   6.770  0.3100  0.0242 -0.0955
   68SAPC   H2R 5718   2.527   4.609   6.819  1.5740  1.0279  2.3666
   68SAPC   H2S 5719   2.653   4.491   6.747  1.9118 -0.7407  4.2628
   68SAPC    C3 5720   2.356   4.646   6.414 -0.2034  0.2740 -0.1538
   68SAPC    HX 5721   2.366   4.538   6.389 -0.7141  0.1779  0.0421
   68SAPC    HY 5722   2.327   4.716   6.333 -1.6192  0.5306  0.5381
   68SAPC   O31 5723   2.279   4.683   6.524  0.0816 -0.1775 -0.3640
   68SAPC   C31 5724   2.188   4.605   6.565 -0.3948  0.0629 -0.1296
   68SAPC   O32 5725   2.176   4.486   6.532 -0.8161 -0.2015 -0.4014
   68SAPC   C32 5726   2.110   4.679   6.672 -0.1649  0.3985  0.6821
   68SAPC   H2X 5727   2.003   4.689   6.645  0.6623  3.7532 -2.0409
   68SAPC   H2Y 5728   2.141   4.786   6.676 -0.9469  0.8292 -2.2878
   68SAPC   C23 5729   2.735   4.653   6.861  0.2962  0.1962 -0.2000
   68SAPC   H3R 5730   2.721   4.760   6.886  0.8198  0.5337 -1.3097
   68SAPC   H3S 5731   2.831   4.663   6.807  0.7640  1.4888  0.8263
   68SAPC   C24 5732   2.767   4.582   6.993 -0.7363 -0.1506  0.2126
   68SAPC   H4R 5733   2.877   4.594   7.004 -0.4589  0.0374 -2.2282
   68SAPC   H4S 5734   2.758   4.473   6.973  0.4821  0.0419 -1.6649
   68SAPC   C25 5735   2.695   4.629   7.116  0.4766 -0.4703  0.4109
   68SAPC   H5R 5736   2.624   4.562   7.165  0.7670 -0.2127  1.2098
   68SAPC   C26 5737   2.731   4.735   7.185 -0.9649  0.4899  0.3716
   68SAPC   H6R 5738   2.666   4.756   7.271  0.8234  0.7035  1.7119
   68SAPC   C27 5739   2.841   4.835   7.162  0.1135  0.5564  0.1426
   68SAPC   H7R 5740   2.815   4.924   7.222 -0.9108 -0.0242  0.5980
   68SAPC   H7S 5741   2.841   4.858   7.053  0.7724 -1.7360 -0.4105
   68SAPC   C28 5742   2.979   4.782   7.188 -0.0032 -0.0386  0.1536
   68SAPC   H8R 5743   3.002   4.695   7.124 -1.7759  0.4136 -1.1674
   68SAPC   C29 5744   3.056   4.827   7.288 -0.2612 -0.3703  0.0088
   68SAPC   H9R 5745   3.155   4.782   7.305 -0.1245 -0.3725 -0.7669
   68SAPC  C210 5746   3.035   4.939   7.385  0.3308 -0.1116 -0.3427
   68SAPC  H10R 5747   2.981   5.025   7.339  0.1799 -0.0859 -0.1241
   68SAPC  H10S 5748   3.136   4.982   7.405  0.4134  0.5109 -1.9442
   68SAPC  C211 5749   2.956   4.927   7.517 -0.3379  0.4529 -0.1871
   68SAPC  H11R 5750   2.890   4.839   7.515 -0.4227  0.5365 -1.1452
   68SAPC  C212 5751   2.978   4.998   7.637  0.3264 -0.5349  0.0921
   68SAPC  H12R 5752   2.931   4.963   7.731  0.7250  1.3708  1.0598
   68SAPC  C213 5753   3.080   5.105   7.670 -0.6019 -0.3397 -0.4108
   68SAPC  H13R 5754   3.171   5.087   7.609 -0.1324 -1.7430  0.6572
   68SAPC  H13S 5755   3.111   5.091   7.776  0.1508  0.0675 -0.5699
   68SAPC  C214 5756   3.021   5.239   7.639  0.4204  0.1292  0.4845
   68SAPC  H14R 5757   2.929   5.234   7.578  0.6200 -1.0040  0.2443
   68SAPC  C215 5758   3.045   5.357   7.695  1.1545 -0.0842  0.7879
   68SAPC  H15R 5759   2.991   5.451   7.674 -0.0178 -0.9331 -0.1646
   68SAPC  C216 5760   3.151   5.371   7.802  0.4562 -0.2685 -0.6432
   68SAPC  H16R 5761   3.223   5.446   7.764 -0.7249  1.0554 -0.3374
   68SAPC  H16S 5762   3.209   5.281   7.831  1.5520 -0.3002 -2.7473
   68SAPC  C217 5763   3.079   5.421   7.926 -0.1408 -0.6902  0.2638
   68SAPC  H17R 5764   2.999   5.350   7.956  0.0689 -3.0901 -4.0431
   68SAPC  H17S 5765   3.030   5.519   7.909  2.2144  0.6528  0.7467
   68SAPC  C218 5766   3.173   5.412   8.046  0.1066 -0.4842 -0.3960
   68SAPC  H18R 5767   3.239   5.502   8.044 -0.2550  0.0194  3.1891
   68SAPC  H18S 5768   3.228   5.317   8.031 -0.6285 -0.5553 -2.9417
   68SAPC  C219 5769   3.101   5.416   8.176  0.2442  0.3978 -0.0850
   68SAPC  H19R 5770   3.054   5.320   8.207  0.2098  0.5950  0.4731
   68SAPC  H19S 5771   3.028   5.500   8.176  0.7342  0.8752  2.0391
   68SAPC  C220 5772   3.179   5.461   8.306  0.1152  0.2925 -0.0551
   68SAPC  H20R 5773   3.258   5.532   8.275  0.4010  1.3801  2.8295
   68SAPC  H20S 5774   3.218   5.367   8.352 -2.0252 -0.8483 -0.4067
   68SAPC  H20T 5775   3.112   5.510   8.380 -0.5639  0.3295 -0.6832
   68SAPC   C33 5776   2.103   4.611   6.809 -0.6127 -0.4451 -0.0284
   68SAPC   H3X 5777   2.067   4.507   6.807  2.6325 -1.7273  1.0764
   68SAPC   H3Y 5778   2.023   4.665   6.863 -1.3803  0.8720 -2.3109
   68SAPC   C34 5779   2.231   4.634   6.894  0.4531 -0.8271  0.6011
   68SAPC   H4X 5780   2.238   4.745   6.894  0.4033 -0.7660 -2.0326
   68SAPC   H4Y 5781   2.319   4.605   6.833  0.7748  1.0388  0.1042
   68SAPC   C35 5782   2.221   4.557   7.022  0.0974 -0.6867  0.7474
   68SAPC   H5X 5783   2.191   4.450   7.013 -1.5985 -0.2649  1.0244
   68SAPC   H5Y 5784   2.139   4.615   7.070  0.8812  0.6441  0.5231
   68SAPC   C36 5785   2.353   4.569   7.108 -0.0648 -0.1909 -0.0638
   68SAPC   H6X 5786   2.394   4.672   7.112  0.9380 -0.4401 -2.3484
   68SAPC   H6Y 5787   2.426   4.505   7.054  1.0121 -0.9291  2.1788
   68SAPC   C37 5788   2.333   4.523   7.255  0.3792 -0.3141  0.2611
   68SAPC   H7X 5789   2.431   4.503   7.304  1.2165 -1.3501 -1.6858
   68SAPC   H7Y 5790   2.274   4.429   7.267 -1.7635  0.9790  0.3783
   68SAPC   C38 5791   2.258   4.633   7.342 -0.6519  0.2770  0.7341
   68SAPC   H8X 5792   2.157   4.655   7.301 -0.3138  1.5181  0.5225
   68SAPC   H8Y 5793   2.325   4.721   7.334 -1.1354  0.5187 -0.9947
   68SAPC   C39 5794   2.235   4.590   7.484 -0.3080 -0.4991  0.1889
   68SAPC   H9X 5795   2.331   4.562   7.533  1.1984  1.9424 -1.1643
   68SAPC   H9Y 5796   2.181   4.494   7.469 -1.0689 -0.0453  0.0180
   68SAPC  C310 5797   2.171   4.694   7.565  0.0329 -0.2385  0.4297
   68SAPC  H10X 5798   2.072   4.731   7.531 -0.8222 -1.8945  0.9904
   68SAPC  H10Y 5799   2.249   4.773   7.568  1.1530 -1.3007 -0.1280
   68SAPC  C311 5800   2.163   4.642   7.711 -0.1956  0.4102  0.0447
   68SAPC  H11X 5801   2.251   4.583   7.743  0.1726  1.4646  1.0328
   68SAPC  H11Y 5802   2.080   4.573   7.736  1.2600 -1.6411 -0.5669
   68SAPC  C312 5803   2.153   4.748   7.817  0.2113  0.2646  0.2678
   68SAPC  H12X 5804   2.052   4.793   7.807 -0.1814 -1.0137 -1.8635
   68SAPC  H12Y 5805   2.243   4.812   7.805  1.0249 -0.0221  3.6355
   68SAPC  C313 5806   2.158   4.689   7.957  0.6067 -0.0506 -0.2128
   68SAPC  H13X 5807   2.257   4.644   7.979  0.3118 -0.2640  0.7023
   68SAPC  H13Y 5808   2.074   4.616   7.963 -0.9993  1.7373  0.0079
   68SAPC  C314 5809   2.129   4.797   8.055  0.3567 -0.9676 -0.1761
   68SAPC  H14X 5810   2.028   4.835   8.028  0.7678  0.6705  0.4764
   68SAPC  H14Y 5811   2.204   4.877   8.037  0.3314 -1.1650 -1.1925
   68SAPC  C315 5812   2.129   4.778   8.203 -0.2774  0.7435  0.1720
   68SAPC  H15X 5813   2.118   4.875   8.256  0.2772 -0.1439  2.0199
   68SAPC  H15Y 5814   2.226   4.732   8.234  0.0715  0.3779 -1.3835
   68SAPC  C316 5815   2.009   4.694   8.247 -0.2763  0.1406 -1.0014
   68SAPC  H16X 5816   2.024   4.671   8.355 -0.4275  2.5876 -0.3989
   68SAPC  H16Y 5817   1.990   4.598   8.195 -0.4736  0.4099 -1.4332
   68SAPC  C317 5818   1.880   4.778   8.241 -0.5296 -0.1615  0.3588
   68SAPC  H17X 5819   1.841   4.787   8.137 -1.3375  2.1157  0.7976
   68SAPC  H17Y 5820   1.903   4.883   8.270  0.2463 -0.1560 -0.2429
   68SAPC  C318 5821   1.766   4.726   8.318 -0.1100  0.3106 -0.1615
   68SAPC  H18X 5822   1.791   4.700   8.423  1.2781  0.2706 -0.4766
   68SAPC  H18Y 5823   1.722   4.643   8.258  2.3673  0.3743 -2.2716
   68SAPC  H18Z 5824   1.687   4.804   8.313 -0.1543  0.1972 -3.4211
   69SLPC     N 5825   5.714   3.490  11.179 -0.0210 -0.0818  0.2492
   69SLPC   C13 5826   5.664   3.535  11.312 -0.4738  0.4161 -0.2086
   69SLPC  H13A 5827   5.652   3.642  11.320  2.3834  0.7100  2.3639
   69SLPC  H13B 5828   5.569   3.486  11.325  0.0401 -0.7637 -0.7294
   69SLPC  H13C 5829   5.717   3.489  11.395  0.1183  0.6334 -0.4611
   69SLPC   C14 5830   5.628   3.567  11.077  0.3772  0.1243 -0.6582
   69SLPC  H14A 5831   5.664   3.668  11.063  0.2345 -0.0403 -2.3328
   69SLPC  H14B 5832   5.624   3.508  10.988 -2.9159 -0.4439 -0.2653
   69SLPC  H14C 5833   5.525   3.571  11.110  0.8299 -0.6297  0.9394
   69SLPC   C15 5834   5.684   3.347  11.151 -0.3550 -0.0532 -0.4223
   69SLPC  H15A 5835   5.708   3.319  11.049  0.2705  1.0303 -0.5886
   69SLPC  H15B 5836   5.756   3.290  11.207  0.6962  1.4605 -0.1853
   69SLPC  H15C 5837   5.582   3.318  11.174  0.2785 -1.8740  0.2780
   69SLPC   C12 5838   5.858   3.513  11.162  0.3238 -0.1471  0.2178
   69SLPC  H12A 5839   5.915   3.500  11.253 -0.3218  2.7101  1.1242
   69SLPC  H12B 5840   5.863   3.620  11.158  0.2407 -0.0631  1.7434
   69SLPC   C11 5841   5.927   3.437  11.046  0.2600  0.4535 -1.2793
   69SLPC  H11A 5842   6.014   3.496  11.008  0.7825  1.3670  1.0948
   69SLPC  H11B 5843   5.854   3.403  10.970 -0.0979 -3.0949  0.4626
   69SLPC     P 5844   5.980   3.178  11.056 -0.0524 -0.2109 -0.5533
   69SLPC   O13 5845   6.009   3.086  11.167 -0.3190 -0.0156 -0.2626
   69SLPC   O14 5846   5.847   3.157  10.986  0.0185 -0.3236 -0.1338
   69SLPC   O12 5847   5.988   3.324  11.115 -0.2682 -0.2011 -0.0442
   69SLPC   O11 5848   6.092   3.167  10.949 -0.8422 -0.3350 -0.2515
   69SLPC    C1 5849   6.199   3.259  10.924  0.3401 -0.5837 -0.0198
   69SLPC    HA 5850   6.163   3.361  10.900  0.7591 -0.6728 -1.0915
   69SLPC    HB 5851   6.266   3.260  11.013  1.9086 -1.6640 -1.1301
   69SLPC    C2 5852   6.279   3.223  10.797  0.9641  0.2753 -0.1424
   69SLPC    HS 5853   6.328   3.315  10.759  2.8885  0.0640  1.6311
   69SLPC   O21 5854   6.194   3.153  10.698  0.0815 -0.8269  0.2844
   69SLPC   C21 5855   6.112   3.248  10.639  0.2448 -0.5123  0.2287
   69SLPC   O22 5856   6.132   3.368  10.646  0.2079 -0.4827 -0.2488
   69SLPC   C22 5857   5.986   3.180  10.574  0.0694 -0.7951  0.2606
   69SLPC   H2R 5858   5.941   3.105  10.643  0.9084 -0.6213  1.0176
   69SLPC   H2S 5859   5.912   3.262  10.563  1.3103  0.6280  1.7959
   69SLPC    C3 5860   6.402   3.136  10.836  0.2650 -0.4831  0.1283
   69SLPC    HX 5861   6.367   3.052  10.900 -1.6169  1.5570  1.9758
   69SLPC    HY 5862   6.489   3.184  10.886  0.9528 -1.0931 -0.4521
   69SLPC   O31 5863   6.466   3.089  10.716 -0.4393 -1.1672 -0.0585
   69SLPC   C31 5864   6.426   2.971  10.677 -0.0517  0.0829 -0.2473
   69SLPC   O32 5865   6.344   2.899  10.731  0.5964  0.4241 -0.6304
   69SLPC   C32 5866   6.485   2.952  10.538  0.3217  0.4855 -0.5285
   69SLPC   H2X 5867   6.593   2.975  10.546  0.1438  0.8945  0.9513
   69SLPC   H2Y 5868   6.431   3.030  10.480 -1.2376 -0.0923  0.0769
   69SLPC   C23 5869   6.026   3.100  10.453  0.4938 -0.1057 -0.2492
   69SLPC   H3R 5870   5.934   3.074  10.395 -1.2600 -2.0484  3.0769
   69SLPC   H3S 5871   6.084   3.008  10.474 -0.2497 -0.4179  0.4843
   69SLPC   C24 5872   6.117   3.178  10.359 -0.5485 -0.1793 -0.3891
   69SLPC   H4R 5873   6.217   3.182  10.407 -0.6542 -2.3281  0.1170
   69SLPC   H4S 5874   6.084   3.283  10.341 -2.0069 -0.2517  1.4705
   69SLPC   C25 5875   6.126   3.129  10.218 -0.2347  0.3460  0.6984
   69SLPC   H5R 5876   6.029   3.129  10.163 -0.3634 -1.9281  0.8296
   69SLPC   H5S 5877   6.165   3.025  10.210  2.5631  1.3552  0.3515
   69SLPC   C26 5878   6.216   3.226  10.131  0.4019  0.1823  0.0824
   69SLPC   H6R 5879   6.324   3.216  10.156  1.2275  1.6624 -2.4916
   69SLPC   H6S 5880   6.187   3.332  10.147  1.5500  0.7280 -1.2208
   69SLPC   C27 5881   6.216   3.205   9.979  0.2443 -0.4357 -0.5646
   69SLPC   H7R 5882   6.120   3.157   9.952 -0.9886  0.7420  1.4618
   69SLPC   H7S 5883   6.294   3.129   9.959  0.6282  0.2203 -1.6681
   69SLPC   C28 5884   6.240   3.335   9.894  0.5294  0.6046  0.5724
   69SLPC   H8R 5885   6.346   3.365   9.905  0.4203  1.2202  0.0193
   69SLPC   H8S 5886   6.182   3.412   9.949 -0.9432 -0.9814  1.3322
   69SLPC   C29 5887   6.197   3.318   9.748  0.2264  0.7131 -1.4418
   69SLPC   H9R 5888   6.097   3.273   9.738 -0.1075  1.1485 -0.2591
   69SLPC  C210 5889   6.264   3.341   9.637 -0.2572  0.0023  0.9603
   69SLPC  H10R 5890   6.211   3.323   9.542 -1.6421 -0.3614  1.7822
   69SLPC  C211 5891   6.408   3.398   9.626 -0.4270 -0.2715  0.2116
   69SLPC  H11R 5892   6.461   3.355   9.714 -1.1174 -1.9550 -0.1487
   69SLPC  H11S 5893   6.400   3.508   9.630  0.6583 -0.0917 -1.6371
   69SLPC  C212 5894   6.491   3.347   9.510  0.0881 -0.0776 -0.7693
   69SLPC  H12R 5895   6.532   3.248   9.536  0.5729  0.5472  0.9397
   69SLPC  C213 5896   6.507   3.400   9.392  0.2732  0.6115 -0.1222
   69SLPC  H13R 5897   6.580   3.357   9.323  0.4661 -1.3633  1.2318
   69SLPC  C214 5898   6.441   3.530   9.340 -0.1850 -0.0411 -0.1456
   69SLPC  H14R 5899   6.480   3.620   9.392 -1.2692  0.5567 -0.3472
   69SLPC  H14S 5900   6.334   3.539   9.366  0.3460  1.9286  1.6851
   69SLPC  C215 5901   6.460   3.564   9.183  0.1944 -0.6202 -0.5615
   69SLPC  H15R 5902   6.569   3.563   9.160  0.1545  1.0827 -0.9454
   69SLPC  H15S 5903   6.435   3.671   9.165  1.9220 -0.0955 -0.0328
   69SLPC  C216 5904   6.386   3.474   9.087 -0.3081 -0.4252  0.5257
   69SLPC  H16R 5905   6.354   3.384   9.145 -1.0162  0.3733  1.4122
   69SLPC  H16S 5906   6.436   3.434   8.997 -0.5723 -2.8162  1.3744
   69SLPC  C217 5907   6.252   3.539   9.042 -0.3483  1.1999 -0.3584
   69SLPC  H17R 5908   6.289   3.637   9.004  0.5096  1.5893  1.3987
   69SLPC  H17S 5909   6.192   3.571   9.130  0.0469  1.0491 -0.0338
   69SLPC  C218 5910   6.164   3.458   8.939 -0.1096  0.2421  0.9623
   69SLPC  H18R 5911   6.125   3.365   8.986  1.6773 -1.9437 -1.5523
   69SLPC  H18S 5912   6.219   3.439   8.845 -1.7354  0.9387 -0.1698
   69SLPC  H18T 5913   6.069   3.503   8.904  0.4498  2.2681  1.8609
   69SLPC   C33 5914   6.466   2.812  10.486  0.0107  0.0879  0.4108
   69SLPC   H3X 5915   6.361   2.779  10.497  0.9134 -2.7746  1.2120
   69SLPC   H3Y 5916   6.523   2.732  10.538  0.4062  1.7384  2.7208
   69SLPC   C34 5917   6.487   2.813  10.336 -0.6677 -0.3549  0.4310
   69SLPC   H4X 5918   6.554   2.725  10.319 -1.9059 -0.9985 -1.3810
   69SLPC   H4Y 5919   6.539   2.904  10.299 -0.7134 -0.7922 -0.7475
   69SLPC   C35 5920   6.358   2.811  10.253  0.5062 -0.1285 -0.0234
   69SLPC   H5X 5921   6.321   2.915  10.265 -0.6287 -0.4469 -0.6623
   69SLPC   H5Y 5922   6.296   2.730  10.296  0.0132 -0.1056 -0.6767
   69SLPC   C36 5923   6.376   2.781  10.104 -0.2737  0.9248 -0.0729
   69SLPC   H6X 5924   6.276   2.778  10.056  0.2592 -0.3630 -1.2022
   69SLPC   H6Y 5925   6.405   2.676  10.079  1.3540  1.1692  0.6846
   69SLPC   C37 5926   6.458   2.886  10.027 -0.5798  0.4361  0.2504
   69SLPC   H7X 5927   6.567   2.877  10.048 -0.4597 -0.2741 -0.6135
   69SLPC   H7Y 5928   6.417   2.986  10.054  0.1458  0.5994  0.7705
   69SLPC   C38 5929   6.456   2.855   9.876 -0.1167  0.1514 -1.0067
   69SLPC   H8X 5930   6.409   2.936   9.817 -1.7592 -0.4406 -0.5531
   69SLPC   H8Y 5931   6.395   2.765   9.852  1.6580 -0.3804 -4.1684
   69SLPC   C39 5932   6.585   2.809   9.814  0.0180 -0.1469 -0.2686
   69SLPC   H9X 5933   6.631   2.717   9.857  3.7898  0.6913 -2.0844
   69SLPC   H9Y 5934   6.652   2.895   9.834 -0.5538 -0.4967  4.4119
   69SLPC  C310 5935   6.575   2.799   9.658 -0.3131  0.3416  0.4521
   69SLPC  H10X 5936   6.681   2.810   9.624  0.8028 -1.2016  3.1394
   69SLPC  H10Y 5937   6.515   2.881   9.614  0.2836  0.1658 -0.7626
   69SLPC  C311 5938   6.515   2.665   9.618  0.1434 -0.3338  0.3120
   69SLPC  H11X 5939   6.413   2.668   9.662  0.1723  1.7314  0.3390
   69SLPC  H11Y 5940   6.580   2.580   9.647 -0.0678 -1.1061 -1.3614
   69SLPC  C312 5941   6.498   2.677   9.467  0.3368 -0.1054 -0.4620
   69SLPC  H12X 5942   6.444   2.773   9.450 -0.4774 -0.1092  1.7519
   69SLPC  H12Y 5943   6.429   2.594   9.441 -3.3665  2.1436  1.3903
   69SLPC  C313 5944   6.635   2.674   9.383  0.5527  0.0871 -0.5603
   69SLPC  H13X 5945   6.683   2.575   9.394  0.4313 -0.2467 -2.6808
   69SLPC  H13Y 5946   6.705   2.747   9.429  1.0579 -1.5292  1.3781
   69SLPC  C314 5947   6.618   2.701   9.232 -0.3354  0.0243 -0.4298
   69SLPC  H14X 5948   6.717   2.663   9.200 -1.0880 -0.8093 -1.8686
   69SLPC  H14Y 5949   6.611   2.811   9.227  1.8970  0.2589  0.5187
   69SLPC  C315 5950   6.509   2.625   9.156  0.1634 -0.3853 -0.1309
   69SLPC  H15X 5951   6.408   2.641   9.199 -0.6052  0.9325 -2.2750
   69SLPC  H15Y 5952   6.537   2.518   9.146 -1.3406 -0.9002  0.8147
   69SLPC  C316 5953   6.512   2.678   9.012 -0.2511 -0.1160  0.2884
   69SLPC  H16X 5954   6.580   2.608   8.959 -0.4986 -1.2783  1.4471
   69SLPC  H16Y 5955   6.545   2.783   9.002  0.0570 -0.2204  0.1858
   69SLPC  C317 5956   6.368   2.665   8.939  0.0621 -0.6469 -0.4314
   69SLPC  H17X 5957   6.289   2.709   9.002 -1.9494 -1.6210 -2.1576
   69SLPC  H17Y 5958   6.353   2.555   8.931 -2.7740 -0.2665 -1.1985
   69SLPC  C318 5959   6.353   2.714   8.796  0.4158 -0.2799  0.6668
   69SLPC  H18X 5960   6.426   2.672   8.723 -0.5738 -0.0071 -0.5140
   69SLPC  H18Y 5961   6.370   2.823   8.803  2.8462 -0.6206  0.8059
   69SLPC  H18Z 5962   6.251   2.688   8.759  1.1045  0.1682 -1.6921
   70SLPC     N 5963   0.756   1.376  11.057  0.6402  0.2264 -0.2008
   70SLPC   C13 5964   0.661   1.325  11.154 -0.0723  0.5108  0.4201
   70SLPC  H13A 5965   0.589   1.272  11.093 -1.7947  3.4445 -0.3291
   70SLPC  H13B 5966   0.707   1.246  11.211  1.4637 -1.0745 -2.7308
   70SLPC  H13C 5967   0.617   1.390  11.229 -0.6614 -0.2258  0.7226
   70SLPC   C14 5968   0.877   1.432  11.132  0.5415 -0.6638  0.1620
   70SLPC  H14A 5969   0.922   1.364  11.203  0.3189  0.4757  1.4314
   70SLPC  H14B 5970   0.947   1.481  11.066  0.9315 -0.0167  1.0364
   70SLPC  H14C 5971   0.846   1.516  11.192 -0.0833  1.2590 -2.6887
   70SLPC   C15 5972   0.694   1.488  10.981  0.8416 -0.8608  0.0721
   70SLPC  H15A 5973   0.765   1.535  10.915  0.3266 -2.4541 -1.7114
   70SLPC  H15B 5974   0.609   1.458  10.922 -0.4462 -0.4937  1.6702
   70SLPC  H15C 5975   0.667   1.566  11.050  1.5178 -0.7305  0.2009
   70SLPC   C12 5976   0.800   1.255  10.971  0.4754 -0.4972  0.1959
   70SLPC  H12A 5977   0.827   1.175  11.038  0.7135 -0.2349  0.4158
   70SLPC  H12B 5978   0.881   1.291  10.910 -0.4606  0.7023 -0.3938
   70SLPC   C11 5979   0.689   1.203  10.870 -0.2991 -0.3220  0.2870
   70SLPC  H11A 5980   0.726   1.122  10.802  0.2127  0.9840 -1.0521
   70SLPC  H11B 5981   0.672   1.284  10.797  2.5235 -1.0334 -1.3217
   70SLPC     P 5982   0.539   1.016  10.960  0.0065 -0.6027 -0.1927
   70SLPC   O13 5983   0.659   0.935  10.989 -0.3984 -0.8089 -0.0198
   70SLPC   O14 5984   0.419   1.003  11.047 -0.2121  0.2236  0.0930
   70SLPC   O12 5985   0.572   1.169  10.943  0.3572 -0.0367 -0.3785
   70SLPC   O11 5986   0.485   0.981  10.818  0.2725  0.3981 -0.5753
   70SLPC    C1 5987   0.416   1.081  10.743 -0.2312  0.9395 -0.2960
   70SLPC    HA 5988   0.337   1.115  10.813 -0.1053  2.1116 -0.6948
   70SLPC    HB 5989   0.472   1.168  10.703 -0.6824  1.1864 -0.3934
   70SLPC    C2 5990   0.350   1.025  10.612  0.3788  0.7784  0.2591
   70SLPC    HS 5991   0.285   0.940  10.643 -0.4847 -0.1273 -3.4704
   70SLPC   O21 5992   0.450   0.988  10.515 -0.0680 -0.5923  0.5578
   70SLPC   C21 5993   0.450   0.861  10.481 -0.6951 -0.2718 -0.0557
   70SLPC   O22 5994   0.367   0.775  10.516  0.3884 -0.0996  0.0854
   70SLPC   C22 5995   0.582   0.832  10.404 -0.0240  0.6303  0.3784
   70SLPC   H2R 5996   0.647   0.922  10.405  2.5373 -0.9990 -2.2016
   70SLPC   H2S 5997   0.641   0.749  10.449  0.5444  0.5626 -0.4671
   70SLPC    C3 5998   0.254   1.130  10.540  0.3907  0.8151 -0.4107
   70SLPC    HX 5999   0.308   1.227  10.531  1.0034  0.5946  0.7600
   70SLPC    HY 6000   0.175   1.145  10.616 -0.0168  0.3188 -0.7301
   70SLPC   O31 6001   0.203   1.083  10.414  0.5481 -0.6409 -0.8691
   70SLPC   C31 6002   0.103   1.002  10.422  0.0758 -0.1028 -0.9927
   70SLPC   O32 6003   0.036   0.975  10.522 -0.4775 -0.2009  1.0503
   70SLPC   C32 6004   0.077   0.931  10.286 -0.1720  0.1968  0.3152
   70SLPC   H2X 6005   0.156   0.854  10.269 -1.4454 -0.7896 -1.4573
   70SLPC   H2Y 6006   0.081   1.007  10.204 -0.4890 -0.0493  0.0696
   70SLPC   C23 6007   0.538   0.807  10.252  0.1182 -0.9699 -0.3040
   70SLPC   H3R 6008   0.483   0.711  10.251 -1.4147 -0.1346 -1.4897
   70SLPC   H3S 6009   0.630   0.785  10.195  1.6676 -0.5258  1.8863
   70SLPC   C24 6010   0.456   0.923  10.190 -0.2145  0.2324  0.4203
   70SLPC   H4R 6011   0.505   1.022  10.191  1.0213 -0.3437  1.5939
   70SLPC   H4S 6012   0.368   0.938  10.256  1.3502 -0.8509  2.9265
   70SLPC   C25 6013   0.426   0.895  10.042  1.1598  0.2577  0.0346
   70SLPC   H5R 6014   0.372   0.799  10.030  0.4941  0.4192  1.5189
   70SLPC   H5S 6015   0.523   0.883   9.989  0.2357 -0.5627 -1.5495
   70SLPC   C26 6016   0.343   1.009   9.982  0.1560  0.1352  0.1750
   70SLPC   H6R 6017   0.402   1.102   9.972 -0.0349  0.4699  1.7700
   70SLPC   H6S 6018   0.269   1.038  10.060 -0.5812 -0.9478 -0.1022
   70SLPC   C27 6019   0.261   0.971   9.853 -0.3554  0.0846  0.2485
   70SLPC   H7R 6020   0.182   1.049   9.855  0.5379  1.0433 -0.3654
   70SLPC   H7S 6021   0.212   0.874   9.875 -0.6789 -0.1928 -1.5144
   70SLPC   C28 6022   0.335   0.992   9.724 -0.3092  0.5614 -0.2606
   70SLPC   H8R 6023   0.428   0.930   9.723  0.7967  2.1202  1.0542
   70SLPC   H8S 6024   0.369   1.097   9.715  1.3538  0.1436  0.7235
   70SLPC   C29 6025   0.243   0.949   9.609  0.0308 -0.4858  0.0372
   70SLPC   H9R 6026   0.139   0.982   9.600 -0.9810 -2.8534  1.8706
   70SLPC  C210 6027   0.276   0.866   9.507 -0.2140 -0.0144  0.1012
   70SLPC  H10R 6028   0.202   0.861   9.426 -1.0195  0.7674  0.7606
   70SLPC  C211 6029   0.404   0.802   9.484  0.0057  0.0139  0.7123
   70SLPC  H11R 6030   0.392   0.692   9.501  0.5656  0.0104  1.1290
   70SLPC  H11S 6031   0.473   0.834   9.565 -3.6018 -1.0052  4.5103
   70SLPC  C212 6032   0.465   0.839   9.347 -0.7306 -0.1794 -0.1002
   70SLPC  H12R 6033   0.410   0.914   9.289 -0.8770 -0.2833 -0.0967
   70SLPC  C213 6034   0.588   0.798   9.306 -0.9959 -0.0048  0.0395
   70SLPC  H13R 6035   0.616   0.842   9.209 -0.8957 -1.2897 -0.5430
   70SLPC  C214 6036   0.684   0.706   9.372  0.6961  0.2586  0.0006
   70SLPC  H14R 6037   0.685   0.601   9.336  4.4078 -0.0882  0.6637
   70SLPC  H14S 6038   0.670   0.697   9.482  0.4409  0.5906 -0.0063
   70SLPC  C215 6039   0.828   0.750   9.346 -0.7631  0.5770  0.1759
   70SLPC  H15R 6040   0.893   0.703   9.423 -0.0529 -0.7621 -1.1981
   70SLPC  H15S 6041   0.841   0.859   9.362  0.4425  0.7368 -1.6380
   70SLPC  C216 6042   0.888   0.701   9.209  0.3970  0.6868  0.1247
   70SLPC  H16R 6043   0.839   0.763   9.132  1.4160 -1.8741 -2.7793
   70SLPC  H16S 6044   0.870   0.592   9.195 -1.0589  1.2638 -3.2347
   70SLPC  C217 6045   1.040   0.718   9.206  0.4190  0.1900  0.2129
   70SLPC  H17R 6046   1.086   0.655   9.286  1.3335 -1.4041 -1.4851
   70SLPC  H17S 6047   1.070   0.820   9.241  0.3054  0.3376 -0.1184
   70SLPC  C218 6048   1.088   0.703   9.064  0.3726  0.5528 -0.3089
   70SLPC  H18R 6049   1.198   0.694   9.053  0.4078 -0.5347  0.7335
   70SLPC  H18S 6050   1.055   0.785   8.997  0.1388  1.0605  0.4127
   70SLPC  H18T 6051   1.058   0.601   9.033  0.7484 -0.2674  1.8403
   70SLPC   C33 6052  -0.053   0.855  10.291  0.5324  0.1758 -0.1244
   70SLPC   H3X 6053  -0.140   0.922  10.304  1.6568  1.3198  2.1103
   70SLPC   H3Y 6054  -0.058   0.796  10.385  1.6971 -0.7614 -0.6294
   70SLPC   C34 6055  -0.087   0.773  10.165 -0.3295  0.1583 -0.6191
   70SLPC   H4X 6056  -0.184   0.723  10.185 -0.2413  0.6797  1.2534
   70SLPC   H4Y 6057  -0.008   0.697  10.150  0.5286  1.2985 -2.1992
   70SLPC   C35 6058  -0.108   0.859  10.034 -0.4738  0.3142  0.3417
   70SLPC   H5X 6059  -0.033   0.941  10.026  0.4945 -0.6051 -0.2524
   70SLPC   H5Y 6060  -0.201   0.918  10.050 -0.1181  1.0875 -0.4146
   70SLPC   C36 6061  -0.122   0.780   9.912 -0.4035  0.6552  0.7405
   70SLPC   H6X 6062  -0.210   0.712   9.909 -0.8586  1.2505  0.1784
   70SLPC   H6Y 6063  -0.038   0.708   9.899  0.6903  1.8768  0.9216
   70SLPC   C37 6064  -0.119   0.859   9.779 -0.1908  0.6322  0.0109
   70SLPC   H7X 6065  -0.016   0.890   9.753  0.2260 -0.6380  0.0834
   70SLPC   H7Y 6066  -0.191   0.944   9.777 -0.1978  0.6332 -1.9318
   70SLPC   C38 6067  -0.177   0.769   9.664 -0.0531  0.4690 -0.4057
   70SLPC   H8X 6068  -0.268   0.716   9.699  0.2311  0.2128 -0.0577
   70SLPC   H8Y 6069  -0.100   0.697   9.631  0.1803  0.1638  0.7671
   70SLPC   C39 6070  -0.231   0.844   9.532 -0.9465  0.2040 -0.2448
   70SLPC   H9X 6071  -0.281   0.938   9.565  0.1182 -0.0937  2.4182
   70SLPC   H9Y 6072  -0.308   0.777   9.487  0.6054 -1.0766 -1.0794
   70SLPC  C310 6073  -0.124   0.850   9.425 -0.0548 -0.2732 -0.2878
   70SLPC  H10X 6074  -0.049   0.768   9.431 -1.9232 -1.9706  1.4694
   70SLPC  H10Y 6075  -0.052   0.934   9.436 -0.9121  0.3532  0.6932
   70SLPC  C311 6076  -0.190   0.849   9.281 -0.0301  0.0307 -0.2967
   70SLPC  H11X 6077  -0.284   0.907   9.287  0.1411  0.3530 -0.7266
   70SLPC  H11Y 6078  -0.221   0.746   9.251 -0.7377 -0.7580  2.7277
   70SLPC  C312 6079  -0.107   0.905   9.164  0.2486  0.3056 -0.7022
   70SLPC  H12X 6080  -0.064   1.003   9.193  0.2546  0.0543  0.1506
   70SLPC  H12Y 6081  -0.179   0.929   9.083 -0.8708 -0.7171 -0.0484
   70SLPC  C313 6082   0.011   0.819   9.130  0.5600  0.0084 -0.4399
   70SLPC  H13X 6083  -0.036   0.719   9.124  2.7346 -1.3488  2.4465
   70SLPC  H13Y 6084   0.061   0.807   9.228  0.5275  0.0338 -0.4203
   70SLPC  C314 6085   0.119   0.867   9.026 -0.0837  0.8917 -0.2732
   70SLPC  H14X 6086   0.203   0.799   9.054 -1.3565 -0.9851 -0.7756
   70SLPC  H14Y 6087   0.151   0.970   9.050  0.3109  0.7539 -0.1902
   70SLPC  C315 6088   0.093   0.882   8.879 -0.1004 -0.0879  0.0392
   70SLPC  H15X 6089   0.195   0.898   8.838  0.1198  0.9059  0.9327
   70SLPC  H15Y 6090   0.022   0.962   8.849 -1.4895 -1.2927  0.0008
   70SLPC  C316 6091   0.046   0.758   8.805 -0.1423 -0.3201  0.3741
   70SLPC  H16X 6092  -0.058   0.732   8.835 -0.0848  1.2032  2.0827
   70SLPC  H16Y 6093   0.120   0.680   8.833  2.0736  1.6105  0.2405
   70SLPC  C317 6094   0.065   0.776   8.650  0.1169  0.3573  0.0468
   70SLPC  H17X 6095   0.176   0.786   8.644  0.1201  2.9876  2.4099
   70SLPC  H17Y 6096   0.025   0.874   8.617  3.6014  2.1878  0.7923
   70SLPC  C318 6097   0.002   0.667   8.567  0.7722  0.2009 -0.1138
   70SLPC  H18X 6098   0.033   0.566   8.601 -2.5770 -1.2066 -0.8771
   70SLPC  H18Y 6099   0.018   0.686   8.458 -1.8624  0.9985 -0.4344
   70SLPC  H18Z 6100  -0.104   0.673   8.599  1.5017  0.2065  2.5544
   71SLPC     N 6101   6.271   5.693  10.838 -0.0425  0.2488 -0.5775
   71SLPC   C13 6102   6.163   5.599  10.887  0.4390 -0.4909 -0.2516
   71SLPC  H13A 6103   6.185   5.498  10.856 -0.5401 -0.5515 -0.7612
   71SLPC  H13B 6104   6.173   5.595  10.995  0.1246  1.4879 -0.1031
   71SLPC  H13C 6105   6.061   5.628  10.867  0.0486 -0.4894  1.5781
   71SLPC   C14 6106   6.271   5.673  10.689  0.3027 -0.2783 -0.5177
   71SLPC  H14A 6107   6.341   5.745  10.650  1.1459 -1.1355 -0.6253
   71SLPC  H14B 6108   6.320   5.581  10.661 -0.0700 -0.7841  0.4506
   71SLPC  H14C 6109   6.174   5.685  10.642 -0.1093 -0.1663  0.3471
   71SLPC   C15 6110   6.409   5.656  10.884  0.1472 -0.4372  0.1722
   71SLPC  H15A 6111   6.486   5.713  10.834  1.0173  1.7644  3.6861
   71SLPC  H15B 6112   6.429   5.686  10.985  1.5227  2.1776 -0.7757
   71SLPC  H15C 6113   6.435   5.552  10.870  0.9341 -0.2669  0.3327
   71SLPC   C12 6114   6.250   5.842  10.884 -0.5388  0.0070 -0.0460
   71SLPC  H12A 6115   6.234   5.840  10.991  1.5678 -0.8003  0.2978
   71SLPC  H12B 6116   6.157   5.872  10.837 -0.8920 -1.1650 -0.1314
   71SLPC   C11 6117   6.362   5.941  10.854 -0.0045 -0.0718 -0.6582
   71SLPC  H11A 6118   6.448   5.918  10.920 -0.5579  1.0281  0.4910
   71SLPC  H11B 6119   6.324   6.042  10.881 -2.4913 -1.6208  2.2250
   71SLPC     P 6120   6.475   6.055  10.651 -0.2126 -0.4816  0.2119
   71SLPC   O13 6121   6.498   6.153  10.762 -0.1359 -0.2752 -0.4231
   71SLPC   O14 6122   6.583   5.993  10.576  0.7948  0.2222  0.2534
   71SLPC   O12 6123   6.399   5.938  10.720 -0.0773  0.3033 -0.0809
   71SLPC   O11 6124   6.368   6.116  10.558 -0.1787  0.3354  0.0070
   71SLPC    C1 6125   6.315   6.022  10.463  0.4358  0.8901 -0.0537
   71SLPC    HA 6126   6.395   5.957  10.422 -0.1352 -0.0794  0.3479
   71SLPC    HB 6127   6.230   5.971  10.514  0.6433  1.5551  0.9977
   71SLPC    C2 6128   6.256   6.101  10.336 -0.0990  0.2327  0.8327
   71SLPC    HS 6129   6.156   6.145  10.355  0.7583  1.5934  2.4436
   71SLPC   O21 6130   6.268   6.008  10.220 -0.4371 -0.0325 -0.0731
   71SLPC   C21 6131   6.152   5.974  10.168 -0.3231  0.3243  0.7496
   71SLPC   O22 6132   6.042   5.996  10.209 -0.0215  0.3104  0.0662
   71SLPC   C22 6133   6.180   5.910  10.030 -0.2182 -0.1213  0.1648
   71SLPC   H2R 6134   6.274   5.959   9.996  0.0571  1.9530  3.4599
   71SLPC   H2S 6135   6.199   5.801  10.041 -1.9913 -0.3173  2.0052
   71SLPC    C3 6136   6.348   6.219  10.306  0.1965 -0.0087 -0.3388
   71SLPC    HX 6137   6.440   6.158  10.292  0.3881  0.5396 -1.6161
   71SLPC    HY 6138   6.347   6.290  10.391  2.4699 -0.3133 -0.0131
   71SLPC   O31 6139   6.303   6.285  10.184 -0.0795  0.5844 -0.6633
   71SLPC   C31 6140   6.404   6.326  10.111 -0.0108 -0.0368  0.6881
   71SLPC   O32 6141   6.523   6.324  10.142 -0.1063  0.4497  0.3414
   71SLPC   C32 6142   6.351   6.363   9.971 -0.1099  0.2962 -0.0651
   71SLPC   H2X 6143   6.437   6.389   9.905  1.3227  2.6515  2.5450
   71SLPC   H2Y 6144   6.282   6.450   9.973 -0.2323  0.2594 -1.3937
   71SLPC   C23 6145   6.069   5.936   9.926  0.0549  0.6706  0.1550
   71SLPC   H3R 6146   6.058   6.045   9.910  0.3313  0.7749  0.6761
   71SLPC   H3S 6147   5.970   5.892   9.953 -0.9141  0.4949 -3.1702
   71SLPC   C24 6148   6.101   5.871   9.789 -0.3725  0.7212  0.4832
   71SLPC   H4R 6149   6.105   5.762   9.811 -1.0730 -0.1528 -3.0898
   71SLPC   H4S 6150   6.200   5.904   9.750 -0.7198  0.2158 -0.9153
   71SLPC   C25 6151   5.991   5.906   9.691 -0.0809  0.0117  0.3371
   71SLPC   H5R 6152   5.996   6.016   9.680  0.2322 -0.1456 -1.4817
   71SLPC   H5S 6153   5.889   5.881   9.727  0.3464 -2.5865 -0.0638
   71SLPC   C26 6154   6.013   5.839   9.547  0.4481 -0.4647 -0.2478
   71SLPC   H6R 6155   6.002   5.730   9.566  0.0656 -0.6346 -1.3448
   71SLPC   H6S 6156   6.112   5.868   9.506 -0.3140  1.1596 -1.0074
   71SLPC   C27 6157   5.914   5.882   9.449  0.3259 -0.0963  0.2576
   71SLPC   H7R 6158   5.934   5.985   9.411  1.3762  0.4716  2.2112
   71SLPC   H7S 6159   5.813   5.887   9.495 -0.0572 -1.7328 -0.3403
   71SLPC   C28 6160   5.911   5.784   9.326  0.1496  0.0582  0.5489
   71SLPC   H8R 6161   5.869   5.687   9.362 -3.2907  0.8441 -0.9480
   71SLPC   H8S 6162   6.014   5.771   9.287 -0.1949 -1.1561 -0.0016
   71SLPC   C29 6163   5.816   5.846   9.221 -0.5188  0.3176  0.5144
   71SLPC   H9R 6164   5.711   5.859   9.252 -0.7943  0.2172 -0.3443
   71SLPC  C210 6165   5.844   5.904   9.104 -0.1205  0.3481 -0.2618
   71SLPC  H10R 6166   5.762   5.954   9.050 -1.5123 -0.6123  0.9148
   71SLPC  C211 6167   5.975   5.916   9.036  0.2008 -0.6472 -0.0837
   71SLPC  H11R 6168   5.986   5.828   8.969 -2.0449 -2.2567  1.4870
   71SLPC  H11S 6169   6.058   5.895   9.107 -0.1170  1.7604  1.1168
   71SLPC  C212 6170   6.002   6.054   8.980 -0.2647  0.0768 -0.3899
   71SLPC  H12R 6171   6.040   6.131   9.049 -0.7458 -1.2936  1.5144
   71SLPC  C213 6172   6.004   6.088   8.848 -0.1835  0.4207  0.3548
   71SLPC  H13R 6173   6.023   6.195   8.830 -1.0433  0.8953  2.0443
   71SLPC  C214 6174   5.972   5.998   8.735  0.5185  0.5735 -0.0659
   71SLPC  H14R 6175   5.929   5.906   8.779  1.9355 -1.3179 -2.3881
   71SLPC  H14S 6176   6.072   5.961   8.704  0.1288 -0.5456 -0.0475
   71SLPC  C215 6177   5.895   6.063   8.615  0.1256 -0.3974  0.0118
   71SLPC  H15R 6178   5.933   6.163   8.585 -1.6390 -0.2572 -1.9844
   71SLPC  H15S 6179   5.787   6.082   8.628  0.2829  1.5522 -1.2433
   71SLPC  C216 6180   5.881   5.971   8.488  0.7044  0.3299 -0.1037
   71SLPC  H16R 6181   5.863   5.864   8.511 -1.4430  1.0290  1.7588
   71SLPC  H16S 6182   5.980   5.990   8.440  0.4795  0.5863 -0.4783
   71SLPC  C217 6183   5.767   6.031   8.395  0.5835 -0.0793  0.4152
   71SLPC  H17R 6184   5.785   6.138   8.374 -0.2884 -0.1142 -0.6199
   71SLPC  H17S 6185   5.671   6.020   8.449  0.3947  0.6396  0.2343
   71SLPC  C218 6186   5.742   5.956   8.261 -0.1888 -0.0561 -0.2768
   71SLPC  H18R 6187   5.665   6.002   8.197 -1.2819  0.2410  1.1948
   71SLPC  H18S 6188   5.712   5.849   8.266 -2.5599  0.3825 -3.0695
   71SLPC  H18T 6189   5.845   5.955   8.218  0.1081 -1.7353  0.3817
   71SLPC   C33 6190   6.279   6.240   9.921 -0.4622  0.5890 -0.2964
   71SLPC   H3X 6191   6.189   6.225   9.984  0.5025 -0.9215  0.8044
   71SLPC   H3Y 6192   6.331   6.142   9.928 -0.3700  0.7543  3.5640
   71SLPC   C34 6193   6.232   6.247   9.778  0.3296  0.2350  0.3846
   71SLPC   H4X 6194   6.178   6.342   9.757  1.3295  0.4188 -1.6501
   71SLPC   H4Y 6195   6.155   6.170   9.756 -1.0774  1.9139 -0.9247
   71SLPC   C35 6196   6.342   6.226   9.675  0.0627 -0.0627 -0.9315
   71SLPC   H5X 6197   6.369   6.118   9.669 -1.3577 -0.5718  0.9000
   71SLPC   H5Y 6198   6.431   6.285   9.704  0.4172 -1.2296  0.4908
   71SLPC   C36 6199   6.302   6.274   9.540  0.3966 -0.0758 -0.5584
   71SLPC   H6X 6200   6.385   6.245   9.473  1.4171 -0.5708  0.8548
   71SLPC   H6Y 6201   6.288   6.383   9.528  1.4756 -0.1582 -2.9552
   71SLPC   C37 6202   6.176   6.206   9.492 -0.1004 -0.0411 -0.5582
   71SLPC   H7X 6203   6.091   6.254   9.546 -1.3292  0.7437 -3.0389
   71SLPC   H7Y 6204   6.176   6.097   9.515 -0.6730 -0.1096 -0.8698
   71SLPC   C38 6205   6.152   6.213   9.338  0.3257 -0.6047  0.1687
   71SLPC   H8X 6206   6.182   6.317   9.311  1.5897 -1.2900 -1.1407
   71SLPC   H8Y 6207   6.044   6.202   9.312 -0.1235  0.8280  1.2921
   71SLPC   C39 6208   6.243   6.122   9.255  0.4441  0.2248  0.4682
   71SLPC   H9X 6209   6.173   6.066   9.190  4.1292 -3.2164 -0.9527
   71SLPC   H9Y 6210   6.298   6.059   9.329 -1.1526  0.9784  2.4175
   71SLPC  C310 6211   6.346   6.193   9.169  0.6264 -0.6976  0.1832
   71SLPC  H10X 6212   6.428   6.231   9.233  1.1690 -2.3683  0.5333
   71SLPC  H10Y 6213   6.303   6.287   9.128  1.3711  0.2227  1.4315
   71SLPC  C311 6214   6.410   6.109   9.060  0.3279  0.5403 -0.9796
   71SLPC  H11X 6215   6.360   6.010   9.054  0.9787  0.1826 -0.5872
   71SLPC  H11Y 6216   6.519   6.100   9.075 -0.0895 -2.2488  1.1145
   71SLPC  C312 6217   6.379   6.176   8.923  0.0355  0.0883  0.1909
   71SLPC  H12X 6218   6.439   6.270   8.918  1.1684 -0.6028  0.2385
   71SLPC  H12Y 6219   6.270   6.189   8.912  0.1208  1.6490  0.9694
   71SLPC  C313 6220   6.422   6.096   8.798  0.0828 -0.3427  0.8735
   71SLPC  H13X 6221   6.386   5.992   8.810 -3.1976  0.7075  1.1888
   71SLPC  H13Y 6222   6.532   6.088   8.795 -0.0856 -3.9146 -0.7220
   71SLPC  C314 6223   6.352   6.149   8.672 -0.5347 -0.1099 -0.1040
   71SLPC  H14X 6224   6.410   6.235   8.632  0.5881 -1.5696 -1.7825
   71SLPC  H14Y 6225   6.250   6.189   8.692 -0.0475  0.5962  1.0369
   71SLPC  C315 6226   6.340   6.043   8.564 -0.0898  0.5481 -0.7738
   71SLPC  H15X 6227   6.257   5.978   8.599 -0.7349  1.3027 -0.8730
   71SLPC  H15Y 6228   6.436   5.986   8.563 -0.1395  0.4468 -0.0977
   71SLPC  C316 6229   6.306   6.093   8.422  0.6352 -0.0173  0.4484
   71SLPC  H16X 6230   6.379   6.169   8.386 -0.1860 -0.2383 -1.8721
   71SLPC  H16Y 6231   6.208   6.145   8.432 -0.6736 -1.8033 -1.8969
   71SLPC  C317 6232   6.290   5.980   8.327  0.1239  0.4051 -0.1786
   71SLPC  H17X 6233   6.213   5.904   8.352  1.3608 -1.3103 -1.4085
   71SLPC  H17Y 6234   6.386   5.925   8.315  0.3041  0.4314  1.0343
   71SLPC  C318 6235   6.244   6.048   8.191  0.5446  0.0548 -0.0772
   71SLPC  H18X 6236   6.133   6.058   8.198  0.3281 -1.0385 -1.4328
   71SLPC  H18Y 6237   6.259   5.973   8.110  0.2234 -1.3654  1.1230
   71SLPC  H18Z 6238   6.293   6.142   8.160 -0.0150  0.9247  1.5763
   72SLPC     N 6239   6.385   4.153  11.002 -0.3306 -0.2523  0.4617
   72SLPC   C13 6240   6.356   4.295  10.963 -0.1120 -0.0363 -0.2922
   72SLPC  H13A 6241   6.260   4.321  11.004  0.1423 -0.6329  0.7087
   72SLPC  H13B 6242   6.434   4.362  10.996  0.9615 -0.6464 -1.5064
   72SLPC  H13C 6243   6.365   4.305  10.856  1.9558 -1.1662 -0.2822
   72SLPC   C14 6244   6.301   4.060  10.921 -0.2238  0.2403 -0.4687
   72SLPC  H14A 6245   6.198   4.090  10.911  0.2199  2.2188  0.4218
   72SLPC  H14B 6246   6.335   4.056  10.818  1.1858  2.9181 -0.2078
   72SLPC  H14C 6247   6.307   3.964  10.970  1.5645 -0.8981 -2.7237
   72SLPC   C15 6248   6.353   4.128  11.146 -0.4099 -0.0131  0.6792
   72SLPC  H15A 6249   6.401   4.203  11.206  1.6276  0.3716 -1.3225
   72SLPC  H15B 6250   6.246   4.130  11.161 -0.2934 -0.0505  1.5804
   72SLPC  H15C 6251   6.376   4.029  11.182 -1.3305  0.5081  2.8335
   72SLPC   C12 6252   6.538   4.126  10.989  0.8290  0.1875  0.1369
   72SLPC  H12A 6253   6.568   4.023  11.003  3.6773  0.6045 -2.0251
   72SLPC  H12B 6254   6.597   4.188  11.055  1.3233 -1.1953  1.0428
   72SLPC   C11 6255   6.585   4.176  10.850  0.2275 -0.0441 -1.3675
   72SLPC  H11A 6256   6.581   4.287  10.849 -0.4024 -0.0342 -0.0031
   72SLPC  H11B 6257   6.518   4.143  10.768 -1.1554  1.2264 -0.7912
   72SLPC     P 6258   6.825   4.222  10.749  0.1078  0.1486 -0.3582
   72SLPC   O13 6259   6.783   4.366  10.743  0.0564  0.4377 -0.0486
   72SLPC   O14 6260   6.956   4.176  10.803 -0.1368 -0.5701 -0.2336
   72SLPC   O12 6261   6.717   4.139  10.823 -0.3648 -0.5676 -0.2065
   72SLPC   O11 6262   6.813   4.160  10.605  0.0927 -0.7013  0.3617
   72SLPC    C1 6263   6.687   4.136  10.544  0.2355  0.2101 -0.8008
   72SLPC    HA 6264   6.645   4.041  10.583  0.9276  0.9795  1.9848
   72SLPC    HB 6265   6.609   4.209  10.574 -0.9811 -1.2701 -0.1768
   72SLPC    C2 6266   6.685   4.144  10.388 -0.6896 -0.0915  0.1347
   72SLPC    HS 6267   6.579   4.152  10.357 -0.9644 -0.3230  0.9854
   72SLPC   O21 6268   6.741   4.022  10.331 -0.7145 -0.1471  0.3506
   72SLPC   C21 6269   6.654   3.919  10.350  0.3660  0.1098 -0.4751
   72SLPC   O22 6270   6.544   3.924  10.402  0.5298 -0.1102 -0.3643
   72SLPC   C22 6271   6.706   3.784  10.297 -0.2945  0.2993  0.5290
   72SLPC   H2R 6272   6.778   3.761  10.378  0.0687 -0.8762 -0.1074
   72SLPC   H2S 6273   6.622   3.711  10.300 -0.8970  0.8793 -0.9923
   72SLPC    C3 6274   6.761   4.269  10.332  0.0999 -0.2788 -0.5228
   72SLPC    HX 6275   6.867   4.271  10.367  0.5597 -0.3545 -1.8682
   72SLPC    HY 6276   6.710   4.354  10.383 -3.9669 -1.2452 -2.5641
   72SLPC   O31 6277   6.757   4.290  10.186 -0.6458 -0.2793 -0.3535
   72SLPC   C31 6278   6.865   4.249  10.122  1.0178 -0.4130  0.2187
   72SLPC   O32 6279   6.967   4.217  10.171 -0.2704 -0.1227 -0.5355
   72SLPC   C32 6280   6.830   4.250   9.973 -0.2178  0.6044 -0.1771
   72SLPC   H2X 6281   6.925   4.244   9.916 -0.5225 -0.4694 -0.5781
   72SLPC   H2Y 6282   6.779   4.348   9.956 -0.1130  1.0764  1.8512
   72SLPC   C23 6283   6.766   3.793  10.152 -0.2698  0.5503  0.1132
   72SLPC   H3R 6284   6.845   3.869  10.135  0.8388 -1.0853 -2.6384
   72SLPC   H3S 6285   6.681   3.816  10.085 -0.3167  2.7023  0.8170
   72SLPC   C24 6286   6.820   3.662  10.100  0.2432 -0.5198  0.2068
   72SLPC   H4R 6287   6.731   3.596  10.098 -0.2511  0.1197  0.7110
   72SLPC   H4S 6288   6.900   3.625  10.167  0.6003 -1.3831 -0.6658
   72SLPC   C25 6289   6.883   3.685   9.956  0.0545  0.3043 -0.1818
   72SLPC   H5R 6290   6.926   3.583   9.949  1.3842  0.8718 -0.5731
   72SLPC   H5S 6291   6.975   3.747   9.958  1.7918 -2.1246 -0.0989
   72SLPC   C26 6292   6.783   3.701   9.844 -0.1781  0.4045 -0.0225
   72SLPC   H6R 6293   6.737   3.802   9.857  1.0810  0.9945  0.0466
   72SLPC   H6S 6294   6.705   3.625   9.866 -0.2044  0.6109  0.6377
   72SLPC   C27 6295   6.832   3.675   9.702  0.2103  0.4832  0.7612
   72SLPC   H7R 6296   6.890   3.581   9.689  1.2318  0.8939  2.1336
   72SLPC   H7S 6297   6.898   3.756   9.665 -0.6394  0.3052 -1.3172
   72SLPC   C28 6298   6.709   3.665   9.597 -0.1475  0.3651 -0.8585
   72SLPC   H8R 6299   6.610   3.678   9.644  1.3457  2.5113  2.0357
   72SLPC   H8S 6300   6.688   3.559   9.573 -0.4377 -0.0545  1.1143
   72SLPC   C29 6301   6.706   3.753   9.474 -0.2159 -0.3723 -0.4518
   72SLPC   H9R 6302   6.653   3.847   9.494  1.3423  0.9323 -2.1418
   72SLPC  C210 6303   6.765   3.732   9.349 -0.0929 -0.1863 -0.8276
   72SLPC  H10R 6304   6.767   3.819   9.282  0.0933  2.2589  2.1335
   72SLPC  C211 6305   6.851   3.612   9.301  0.5360  1.1233 -0.1744
   72SLPC  H11R 6306   6.824   3.523   9.362 -0.2996  0.8122 -0.9757
   72SLPC  H11S 6307   6.955   3.630   9.334  1.2596 -3.1941  0.4610
   72SLPC  C212 6308   6.847   3.569   9.158  0.3845  0.1500  0.5795
   72SLPC  H12R 6309   6.775   3.487   9.141  0.3743  0.6079 -2.1157
   72SLPC  C213 6310   6.914   3.604   9.047  0.4317 -0.3442 -0.5354
   72SLPC  H13R 6311   6.895   3.557   8.949 -0.9322 -0.3623 -0.2802
   72SLPC  C214 6312   7.014   3.723   9.054  0.5437 -0.3466 -0.3355
   72SLPC  H14R 6313   7.117   3.698   9.088  1.1459  1.4741 -0.7277
   72SLPC  H14S 6314   6.976   3.799   9.125  3.8779  1.0683  0.1614
   72SLPC  C215 6315   7.049   3.774   8.915 -0.1653 -0.5843 -0.3135
   72SLPC  H15R 6316   7.095   3.688   8.862  2.1122 -0.0393  0.6774
   72SLPC  H15S 6317   7.115   3.861   8.932  0.2610 -0.8600 -0.5389
   72SLPC  C216 6318   6.938   3.818   8.823 -0.0074 -0.5147  0.3780
   72SLPC  H16R 6319   6.886   3.901   8.876  0.5527 -1.1855  2.0637
   72SLPC  H16S 6320   6.860   3.741   8.806 -0.4897 -0.2186  1.1537
   72SLPC  C217 6321   6.981   3.881   8.689 -0.1541  0.3957  0.5199
   72SLPC  H17R 6322   7.062   3.955   8.706 -0.7909  1.6566 -1.5598
   72SLPC  H17S 6323   6.901   3.936   8.636  0.3611 -0.4659 -1.2197
   72SLPC  C218 6324   7.036   3.772   8.595  0.5339 -0.2698 -0.4111
   72SLPC  H18R 6325   7.048   3.800   8.488 -1.4642 -0.1613 -0.6400
   72SLPC  H18S 6326   6.970   3.683   8.598 -0.2655  0.3313  0.2186
   72SLPC  H18T 6327   7.138   3.743   8.628  0.6604  0.6483  0.0384
   72SLPC   C33 6328   6.742   4.129   9.929  0.3776 -0.5377  0.8139
   72SLPC   H3X 6329   6.661   4.117  10.005  0.3336  0.4115  0.9297
   72SLPC   H3Y 6330   6.815   4.045   9.928  3.8680  2.2513 -2.0074
   72SLPC   C34 6331   6.666   4.145   9.798 -0.2101  0.2295  0.4181
   72SLPC   H4X 6332   6.597   4.230   9.814 -0.2752  0.4701 -1.0058
   72SLPC   H4Y 6333   6.608   4.050   9.802 -1.2096  0.8570  3.0059
   72SLPC   C35 6334   6.751   4.143   9.672 -0.3680  0.7112  0.2210
   72SLPC   H5X 6335   6.806   4.047   9.680  0.2959  0.9434 -1.2779
   72SLPC   H5Y 6336   6.817   4.233   9.680  1.7941 -0.8387  0.6202
   72SLPC   C36 6337   6.676   4.136   9.534 -0.2508  0.8040 -0.0165
   72SLPC   H6X 6338   6.620   4.232   9.526 -0.1548  0.9892  1.3579
   72SLPC   H6Y 6339   6.601   4.055   9.525 -2.0665  2.5290 -1.1751
   72SLPC   C37 6340   6.785   4.131   9.419  0.5395 -1.1883  0.0658
   72SLPC   H7X 6341   6.856   4.050   9.446  3.0025  0.2773 -1.6495
   72SLPC   H7Y 6342   6.838   4.229   9.412  0.9618 -1.4753 -0.8637
   72SLPC   C38 6343   6.717   4.110   9.283 -0.2364 -0.1267  0.5130
   72SLPC   H8X 6344   6.643   4.190   9.263 -1.6803 -2.0915 -2.7946
   72SLPC   H8Y 6345   6.668   4.011   9.288 -1.9919  0.7535  2.1599
   72SLPC   C39 6346   6.819   4.113   9.164 -0.3242  0.3929  0.8653
   72SLPC   H9X 6347   6.899   4.042   9.194  0.0030  0.8676  1.1473
   72SLPC   H9Y 6348   6.879   4.207   9.163  0.4219 -0.0233  2.4118
   72SLPC  C310 6349   6.754   4.090   9.027 -0.2273 -0.6111 -0.4246
   72SLPC  H10X 6350   6.713   3.987   9.019 -2.1843  0.0842  0.1024
   72SLPC  H10Y 6351   6.835   4.094   8.952  1.1905 -1.3328  1.0039
   72SLPC  C311 6352   6.653   4.199   8.994  0.1395 -0.1153  0.3994
   72SLPC  H11X 6353   6.708   4.296   8.994 -0.4055  0.2048  1.1734
   72SLPC  H11Y 6354   6.574   4.185   9.071  0.3555  0.1425  0.6711
   72SLPC  C312 6355   6.599   4.184   8.857  0.2975  0.4382 -0.0116
   72SLPC  H12X 6356   6.692   4.192   8.796 -0.8604  0.7062 -1.8078
   72SLPC  H12Y 6357   6.521   4.259   8.830 -0.9234 -1.0965 -0.8678
   72SLPC  C313 6358   6.545   4.045   8.820 -0.4574  0.2636  0.1705
   72SLPC  H13X 6359   6.441   4.025   8.855 -0.0125 -0.3583  1.2005
   72SLPC  H13Y 6360   6.618   3.969   8.856  0.5487  2.1165  2.2416
   72SLPC  C314 6361   6.535   4.035   8.670  0.3553  0.6378 -0.1162
   72SLPC  H14X 6362   6.633   4.053   8.620 -0.1338 -1.3615 -1.9515
   72SLPC  H14Y 6363   6.462   4.110   8.632  0.2101 -0.2395 -1.6746
   72SLPC  C315 6364   6.486   3.893   8.614  0.0900  0.4679 -0.8604
   72SLPC  H15X 6365   6.457   3.912   8.508  0.8377  4.2803 -0.5456
   72SLPC  H15Y 6366   6.404   3.873   8.686  2.1812 -3.5481  0.6968
   72SLPC  C316 6367   6.590   3.787   8.625  0.6891  0.0217  0.3212
   72SLPC  H16X 6368   6.615   3.746   8.725  2.3643 -0.9763 -0.4592
   72SLPC  H16Y 6369   6.688   3.822   8.585  0.1254  0.7573 -0.4498
   72SLPC  C317 6370   6.545   3.652   8.554  0.1552 -1.5068 -0.3060
   72SLPC  H17X 6371   6.511   3.671   8.450 -1.0505  1.9473  0.5636
   72SLPC  H17Y 6372   6.443   3.626   8.589 -0.3596 -0.4040 -0.9274
   72SLPC  C318 6373   6.638   3.538   8.561  0.0585 -0.4450 -0.3068
   72SLPC  H18X 6374   6.681   3.536   8.663  1.1732  0.7827 -0.7231
   72SLPC  H18Y 6375   6.723   3.551   8.490  1.4171 -0.2389  1.2928
   72SLPC  H18Z 6376   6.592   3.447   8.516  0.9487  0.3612 -3.0554
   73SLPC     N 6377   0.467   2.698  10.777 -0.0331  0.1023 -0.2239
   73SLPC   C13 6378   0.548   2.672  10.902  0.2741 -0.2329 -0.1176
   73SLPC  H13A 6379   0.518   2.579  10.948 -1.4343  0.1386 -0.4160
   73SLPC  H13B 6380   0.655   2.660  10.893 -0.0425 -1.4898 -4.3447
   73SLPC  H13C 6381   0.534   2.754  10.971 -0.9492 -0.5787  0.0761
   73SLPC   C14 6382   0.520   2.607  10.677 -0.9832  0.3561  0.2717
   73SLPC  H14A 6383   0.621   2.636  10.651 -0.2702 -1.1747  1.1612
   73SLPC  H14B 6384   0.525   2.506  10.715 -1.4012  0.5202  0.7857
   73SLPC  H14C 6385   0.464   2.619  10.585  1.3675  0.9060 -1.1675
   73SLPC   C15 6386   0.486   2.847  10.743  0.3211 -0.1525  0.3861
   73SLPC  H15A 6387   0.589   2.859  10.714  0.9337 -2.8043  1.2057
   73SLPC  H15B 6388   0.418   2.873  10.663 -0.3773  1.0809  1.3341
   73SLPC  H15C 6389   0.469   2.913  10.827  1.6484  1.8968 -0.8659
   73SLPC   C12 6390   0.322   2.668  10.808  0.2388  0.4081 -0.2223
   73SLPC  H12A 6391   0.316   2.560  10.804 -1.3838  0.3416  2.1938
   73SLPC  H12B 6392   0.263   2.693  10.721 -0.5405 -3.0264 -0.8083
   73SLPC   C11 6393   0.255   2.717  10.940 -0.5098  0.1031 -0.2568
   73SLPC  H11A 6394   0.147   2.728  10.921 -0.1008  1.6501 -1.9515
   73SLPC  H11B 6395   0.292   2.820  10.959  0.7110 -0.2862 -0.4419
   73SLPC     P 6396   0.240   2.469  11.019  0.1573  0.1876  0.2328
   73SLPC   O13 6397   0.356   2.385  11.008  0.0698  0.7109  0.2728
   73SLPC   O14 6398   0.148   2.429  11.123  0.2076 -0.3621  0.2726
   73SLPC   O12 6399   0.287   2.618  11.044  1.1710  0.2655 -0.0876
   73SLPC   O11 6400   0.156   2.481  10.881 -0.6782 -0.0148 -0.0646
   73SLPC    C1 6401   0.128   2.381  10.780 -0.3931  0.0692  0.2162
   73SLPC    HA 6402   0.204   2.302  10.803  0.5543  1.4558  2.1717
   73SLPC    HB 6403   0.027   2.336  10.783 -0.4626 -0.0925 -2.1731
   73SLPC    C2 6404   0.162   2.421  10.631  0.1335 -0.2214  0.0745
   73SLPC    HS 6405   0.273   2.428  10.638  0.1954 -1.9906  3.2153
   73SLPC   O21 6406   0.083   2.539  10.605  0.1436  0.1992  0.1671
   73SLPC   C21 6407   0.149   2.615  10.520 -0.2508  0.1517 -0.3568
   73SLPC   O22 6408   0.267   2.609  10.495 -0.6768  0.0831  0.0497
   73SLPC   C22 6409   0.052   2.718  10.464 -0.1211 -0.3328 -0.0171
   73SLPC   H2R 6410  -0.054   2.687  10.447  0.2458 -1.3633 -0.5107
   73SLPC   H2S 6411   0.040   2.794  10.544 -0.9083 -2.0713  1.5899
   73SLPC    C3 6412   0.123   2.309  10.536  0.1532  0.2316 -0.6270
   73SLPC    HX 6413   0.025   2.270  10.573  0.8141  0.5266  1.5368
   73SLPC    HY 6414   0.188   2.223  10.562  0.1178  0.5074  0.3891
   73SLPC   O31 6415   0.129   2.346  10.400 -0.2522 -0.3375 -0.2009
   73SLPC   C31 6416   0.246   2.304  10.340 -0.4871 -0.5273  0.9187
   73SLPC   O32 6417   0.330   2.233  10.393  0.3657 -0.2953  0.2832
   73SLPC   C32 6418   0.252   2.351  10.192  0.4491  0.4425  0.5413
   73SLPC   H2X 6419   0.350   2.401  10.176  1.4967 -1.3393  1.0356
   73SLPC   H2Y 6420   0.169   2.422  10.172  0.7355  1.1261  1.7133
   73SLPC   C23 6421   0.094   2.790  10.331 -0.0839  0.3907  0.6382
   73SLPC   H3R 6422   0.199   2.825  10.341 -0.1017  0.4691  0.5565
   73SLPC   H3S 6423   0.022   2.874  10.322 -0.8167 -0.2368  0.5995
   73SLPC   C24 6424   0.077   2.689  10.216 -0.3118  0.2913  0.6478
   73SLPC   H4R 6425  -0.030   2.659  10.208 -0.5545  1.4378 -1.1602
   73SLPC   H4S 6426   0.146   2.602  10.223 -1.5715 -0.6309  2.4385
   73SLPC   C25 6427   0.093   2.749  10.073 -0.0238  0.0565 -0.0304
   73SLPC   H5R 6428   0.024   2.837  10.073  1.4288  1.2362  0.8697
   73SLPC   H5S 6429   0.042   2.692   9.992  1.7076  1.9214 -2.6216
   73SLPC   C26 6430   0.232   2.807  10.031 -0.2229  0.1041  0.3329
   73SLPC   H6R 6431   0.287   2.853  10.116  1.6462 -0.0631 -0.7585
   73SLPC   H6S 6432   0.224   2.888   9.955 -0.6627 -1.7288 -1.6589
   73SLPC   C27 6433   0.320   2.705   9.954 -0.4090  0.2585 -0.0010
   73SLPC   H7R 6434   0.288   2.600   9.973  0.1917  0.1712  0.5801
   73SLPC   H7S 6435   0.425   2.710   9.990  0.2527  2.4401 -2.0439
   73SLPC   C28 6436   0.318   2.735   9.802 -0.2227  0.5862 -0.1516
   73SLPC   H8R 6437   0.403   2.681   9.756 -0.0873 -1.6609  2.5168
   73SLPC   H8S 6438   0.325   2.846   9.791  1.0384  0.2908 -3.7964
   73SLPC   C29 6439   0.191   2.680   9.733  0.0181 -0.1975 -0.1787
   73SLPC   H9R 6440   0.117   2.624   9.791  0.0647 -0.7936 -0.6897
   73SLPC  C210 6441   0.161   2.701   9.602 -0.1487  0.6780 -0.0970
   73SLPC  H10R 6442   0.066   2.674   9.553  0.3526 -2.5529  0.5227
   73SLPC  C211 6443   0.252   2.776   9.511  0.0594 -0.5193  0.5276
   73SLPC  H11R 6444   0.292   2.872   9.550 -1.5000  0.5285 -0.3766
   73SLPC  H11S 6445   0.195   2.808   9.422  0.0009  0.1560  0.8035
   73SLPC  C212 6446   0.368   2.690   9.469  0.3586 -1.2373 -0.3114
   73SLPC  H12R 6447   0.408   2.626   9.549  1.0122  1.4607  1.6471
   73SLPC  C213 6448   0.426   2.677   9.347  0.6031 -0.4599  0.1522
   73SLPC  H13R 6449   0.520   2.623   9.326  0.5693  0.2350 -2.0163
   73SLPC  C214 6450   0.381   2.754   9.220 -0.2186 -0.8628  0.3011
   73SLPC  H14R 6451   0.478   2.783   9.174  0.9291 -1.3638  2.3084
   73SLPC  H14S 6452   0.331   2.850   9.245  3.3162  1.2309  0.0252
   73SLPC  C215 6453   0.286   2.680   9.128 -0.6859 -0.3415  0.5831
   73SLPC  H15R 6454   0.210   2.634   9.195  0.6291 -0.3825  2.0924
   73SLPC  H15S 6455   0.345   2.603   9.074  0.7807  2.1156 -1.5400
   73SLPC  C216 6456   0.222   2.778   9.023 -0.0154  0.7048  0.6310
   73SLPC  H16R 6457   0.302   2.845   8.985  0.1000  0.6215  0.7267
   73SLPC  H16S 6458   0.150   2.845   9.075 -1.2275  1.3013 -1.6777
   73SLPC  C217 6459   0.145   2.699   8.916  1.0486  0.4555  0.1419
   73SLPC  H17R 6460   0.051   2.662   8.962 -0.5840  3.7893 -0.2152
   73SLPC  H17S 6461   0.217   2.622   8.882  2.7132  2.0746 -0.1586
   73SLPC  C218 6462   0.107   2.780   8.790 -0.0351  0.1526 -0.8114
   73SLPC  H18R 6463   0.192   2.844   8.759 -1.3739  1.5050 -1.8622
   73SLPC  H18S 6464   0.030   2.856   8.816  1.2032  0.7761  1.3414
   73SLPC  H18T 6465   0.059   2.721   8.709 -2.5448 -2.4457  2.2684
   73SLPC   C33 6466   0.238   2.226  10.098 -0.2144 -0.4581  0.1602
   73SLPC   H3X 6467   0.145   2.167  10.107 -0.8747  0.2047 -1.7093
   73SLPC   H3Y 6468   0.337   2.177  10.105  0.5178  0.2365 -3.3467
   73SLPC   C34 6469   0.247   2.273   9.953  0.2086 -0.5347  0.3229
   73SLPC   H4X 6470   0.339   2.334   9.939  0.9714 -1.4206  1.3432
   73SLPC   H4Y 6471   0.157   2.331   9.922  1.1317  0.7464 -0.0898
   73SLPC   C35 6472   0.253   2.158   9.847  0.2861 -0.4286 -0.3371
   73SLPC   H5X 6473   0.151   2.114   9.853  0.3893 -0.9418 -1.8937
   73SLPC   H5Y 6474   0.316   2.075   9.885 -0.9291 -0.1092  2.6110
   73SLPC   C36 6475   0.283   2.190   9.700 -0.6121 -0.4431  0.7587
   73SLPC   H6X 6476   0.283   2.089   9.654  0.3103 -0.3796  0.6074
   73SLPC   H6Y 6477   0.384   2.232   9.682 -1.2760  0.4828 -1.1443
   73SLPC   C37 6478   0.172   2.281   9.639 -0.3996  0.1598  0.5912
   73SLPC   H7X 6479   0.160   2.372   9.702 -2.0711  2.4070 -2.7071
   73SLPC   H7Y 6480   0.076   2.226   9.638 -0.9583  1.0570 -1.7300
   73SLPC   C38 6481   0.205   2.328   9.493  0.7152  0.0717  0.6712
   73SLPC   H8X 6482   0.287   2.402   9.508  0.9774 -0.7351  4.0042
   73SLPC   H8Y 6483   0.121   2.385   9.448  3.2238  1.7760 -2.1897
   73SLPC   C39 6484   0.256   2.213   9.390  0.3010 -0.0070 -0.3006
   73SLPC   H9X 6485   0.171   2.141   9.389 -0.3995  0.8089 -1.6609
   73SLPC   H9Y 6486   0.343   2.149   9.416 -0.5391 -0.4771  1.5628
   73SLPC  C310 6487   0.253   2.271   9.250 -0.2398  0.4536 -0.3521
   73SLPC  H10X 6488   0.315   2.363   9.260  0.0753  0.3346 -1.1362
   73SLPC  H10Y 6489   0.151   2.300   9.218  0.0249  2.2927  0.3137
   73SLPC  C311 6490   0.320   2.184   9.143  0.2869 -0.0141 -1.3487
   73SLPC  H11X 6491   0.280   2.080   9.144 -0.3386  0.2059  0.6741
   73SLPC  H11Y 6492   0.427   2.172   9.171 -0.2053 -0.3436  0.5322
   73SLPC  C312 6493   0.298   2.246   9.005  0.1586 -0.8302 -0.2586
   73SLPC  H12X 6494   0.334   2.352   9.004 -1.6119 -0.1425  1.8128
   73SLPC  H12Y 6495   0.189   2.264   8.994  0.5133  3.0415  0.8085
   73SLPC  C313 6496   0.349   2.163   8.890  0.2342 -0.2401 -0.5918
   73SLPC  H13X 6497   0.358   2.055   8.913 -1.6510  0.1836  2.8849
   73SLPC  H13Y 6498   0.457   2.188   8.882 -0.1345  1.3994 -0.8092
   73SLPC  C314 6499   0.269   2.181   8.765 -0.5497 -0.8185  1.0607
   73SLPC  H14X 6500   0.329   2.166   8.673 -1.9853 -1.8266  0.2510
   73SLPC  H14Y 6501   0.240   2.288   8.759  0.5337 -0.5201  0.9528
   73SLPC  C315 6502   0.142   2.104   8.758  0.9570 -0.2306  0.1227
   73SLPC  H15X 6503   0.071   2.126   8.841  0.3201  0.2090 -0.5190
   73SLPC  H15Y 6504   0.166   1.996   8.765  0.2099 -0.5272 -1.4487
   73SLPC  C316 6505   0.062   2.120   8.624 -0.2871  0.0747 -0.1835
   73SLPC  H16X 6506   0.139   2.134   8.546  3.0685 -2.4922  2.3305
   73SLPC  H16Y 6507  -0.003   2.209   8.640 -1.1762 -0.8111  1.4829
   73SLPC  C317 6508  -0.029   2.010   8.596 -0.3541  0.5493  0.7627
   73SLPC  H17X 6509  -0.097   1.990   8.681  0.9052  0.5395  1.7984
   73SLPC  H17Y 6510   0.034   1.919   8.594  0.2182  0.9509 -0.0883
   73SLPC  C318 6511  -0.109   2.010   8.463 -0.0403  0.0585  1.0113
   73SLPC  H18X 6512  -0.182   1.926   8.461 -1.8397  1.5660  0.5679
   73SLPC  H18Y 6513  -0.047   1.998   8.372 -0.2944  1.3538  0.6468
   73SLPC  H18Z 6514  -0.164   2.106   8.468  0.8932  0.5923  1.2479
   74SLPC     N 6515   2.320   4.135  10.629  0.0351 -0.2623  0.0514
   74SLPC   C13 6516   2.405   4.008  10.641 -0.4713  0.2761 -0.2465
   74SLPC  H13A 6517   2.508   4.016  10.607 -0.2594 -1.3234 -0.0315
   74SLPC  H13B 6518   2.404   3.973  10.743  2.2333  2.5645  0.7415
   74SLPC  H13C 6519   2.369   3.929  10.577  2.4458  1.4093 -3.6054
   74SLPC   C14 6520   2.295   4.159  10.489  0.3394 -0.6094  0.1062
   74SLPC  H14A 6521   2.390   4.178  10.441  1.0642 -1.7537  1.0324
   74SLPC  H14B 6522   2.242   4.080  10.438 -0.8809 -0.5626  1.2514
   74SLPC  H14C 6523   2.233   4.247  10.484 -0.7502 -1.2660  1.3879
   74SLPC   C15 6524   2.400   4.246  10.688  0.6195 -0.2113 -0.1946
   74SLPC  H15A 6525   2.434   4.215  10.786 -4.9289 -1.3127  1.7662
   74SLPC  H15B 6526   2.484   4.266  10.623  2.6649  0.0081  2.3212
   74SLPC  H15C 6527   2.342   4.337  10.696  0.4338 -0.1602 -1.9005
   74SLPC   C12 6528   2.194   4.122  10.707 -0.1901  0.0353 -0.5910
   74SLPC  H12A 6529   2.130   4.209  10.695  0.2630  0.3975 -0.4003
   74SLPC  H12B 6530   2.225   4.119  10.810 -1.4874  1.4842 -0.1096
   74SLPC   C11 6531   2.094   4.001  10.667 -0.6144  0.2570  0.2644
   74SLPC  H11A 6532   2.011   3.988  10.739 -0.0059 -0.1492  0.8986
   74SLPC  H11B 6533   2.163   3.915  10.672 -1.2269 -0.1968  1.1046
   74SLPC     P 6534   1.893   4.060  10.507  0.0268  0.3224 -0.2680
   74SLPC   O13 6535   1.800   3.960  10.556 -0.1099  0.6637 -0.2540
   74SLPC   O14 6536   1.875   4.193  10.560 -0.3804  0.6361  0.6723
   74SLPC   O12 6537   2.041   4.011  10.534  0.0374 -0.2592 -0.4379
   74SLPC   O11 6538   1.873   4.080  10.349  0.3483 -0.0239 -0.2146
   74SLPC    C1 6539   1.963   4.036  10.250  0.5045  0.6270 -0.0720
   74SLPC    HA 6540   2.016   4.123  10.205 -2.4463  1.3713 -2.4363
   74SLPC    HB 6541   2.038   3.959  10.275 -0.9604 -1.5359 -1.9590
   74SLPC    C2 6542   1.898   3.976  10.124 -0.2809 -0.3825  0.0710
   74SLPC    HS 6543   1.975   3.921  10.065 -0.9608 -2.2142  0.8166
   74SLPC   O21 6544   1.837   4.075  10.044  0.1999 -0.0541  0.7366
   74SLPC   C21 6545   1.922   4.158   9.979 -0.8627 -0.5524 -0.0034
   74SLPC   O22 6546   2.046   4.164   9.991  0.1279 -0.4743 -0.1157
   74SLPC   C22 6547   1.837   4.255   9.886  0.7817  0.1643 -0.3265
   74SLPC   H2R 6548   1.758   4.192   9.839  2.6282 -3.2641  0.8290
   74SLPC   H2S 6549   1.784   4.326   9.953 -0.6358 -0.3790 -0.8376
   74SLPC    C3 6550   1.795   3.870  10.159  0.2521 -0.0020 -0.5931
   74SLPC    HX 6551   1.739   3.921  10.240 -0.3579  0.1751 -1.1184
   74SLPC    HY 6552   1.840   3.782  10.208  0.9950 -0.6260 -2.3077
   74SLPC   O31 6553   1.705   3.853  10.050 -0.1112 -0.2068  0.6759
   74SLPC   C31 6554   1.668   3.730  10.023 -0.3702 -0.9054 -0.1560
   74SLPC   O32 6555   1.705   3.628  10.075 -0.7726 -0.1786 -0.0782
   74SLPC   C32 6556   1.551   3.738   9.925 -0.2191  0.1683 -0.1624
   74SLPC   H2X 6557   1.576   3.809   9.844  1.5690 -2.0264 -1.6378
   74SLPC   H2Y 6558   1.474   3.785   9.991 -1.0309 -1.0183 -0.2436
   74SLPC   C23 6559   1.917   4.328   9.782  0.1577 -0.0712 -0.3827
   74SLPC   H3R 6560   2.004   4.374   9.834 -0.0693  1.1749 -1.0594
   74SLPC   H3S 6561   1.853   4.412   9.747 -0.5617 -0.7605 -0.7563
   74SLPC   C24 6562   1.962   4.239   9.663 -0.4325 -0.6749 -1.2160
   74SLPC   H4R 6563   1.876   4.175   9.633  0.4396 -2.0908 -0.8078
   74SLPC   H4S 6564   2.044   4.177   9.705  0.8219  2.2977  1.0799
   74SLPC   C25 6565   2.033   4.321   9.559 -0.5061  0.3314 -0.0746
   74SLPC   H5R 6566   2.133   4.278   9.536 -1.4453 -1.4059 -1.1961
   74SLPC   H5S 6567   2.056   4.420   9.604 -0.6628  0.8876 -1.1832
   74SLPC   C26 6568   1.969   4.357   9.422  0.3239 -0.2190  0.0037
   74SLPC   H6R 6569   2.048   4.417   9.373  0.3579 -1.0711 -1.0271
   74SLPC   H6S 6570   1.882   4.423   9.438  0.7904 -0.0320  2.1166
   74SLPC   C27 6571   1.945   4.240   9.322 -0.4692 -0.0957  0.2666
   74SLPC   H7R 6572   1.859   4.179   9.359 -0.8246  0.5908  0.5807
   74SLPC   H7S 6573   2.024   4.161   9.324 -1.2529 -0.9846 -1.6232
   74SLPC   C28 6574   1.947   4.301   9.179  0.4350 -0.8726 -0.3158
   74SLPC   H8R 6575   2.048   4.338   9.151  0.8807 -1.2543  0.7496
   74SLPC   H8S 6576   1.872   4.383   9.182 -0.0259 -1.2445 -1.1517
   74SLPC   C29 6577   1.922   4.191   9.082 -0.2876  0.9210 -0.2443
   74SLPC   H9R 6578   2.005   4.120   9.070 -1.7316 -1.2770  1.9031
   74SLPC  C210 6579   1.809   4.191   9.010 -0.1444  0.2486  0.7166
   74SLPC  H10R 6580   1.788   4.105   8.945 -1.1827 -0.5285  2.0280
   74SLPC  C211 6581   1.691   4.288   9.008 -0.3492 -0.0633 -0.1877
   74SLPC  H11R 6582   1.714   4.392   8.976 -0.1490 -0.4570 -1.3779
   74SLPC  H11S 6583   1.649   4.294   9.111 -3.1731 -0.2602 -1.2126
   74SLPC  C212 6584   1.578   4.240   8.921  0.2134  0.4530 -0.1276
   74SLPC  H12R 6585   1.557   4.134   8.943  1.6198 -0.2788 -2.0610
   74SLPC  C213 6586   1.513   4.309   8.829 -0.0141 -0.3898  0.2827
   74SLPC  H13R 6587   1.429   4.256   8.782 -1.1436  1.0510  0.6236
   74SLPC  C214 6588   1.541   4.444   8.778 -0.2290 -0.0806  0.1910
   74SLPC  H14R 6589   1.646   4.464   8.748  0.0245 -0.5346  0.7555
   74SLPC  H14S 6590   1.514   4.524   8.851  1.3978 -0.0510  0.7890
   74SLPC  C215 6591   1.451   4.474   8.651 -0.3273  0.6860 -0.2261
   74SLPC  H15R 6592   1.341   4.461   8.661 -0.7639  1.6802 -2.8716
   74SLPC  H15S 6593   1.486   4.404   8.572  0.1242  0.1555  0.4262
   74SLPC  C216 6594   1.464   4.619   8.585 -0.4420 -0.9143  0.5447
   74SLPC  H16R 6595   1.568   4.629   8.547 -0.4006  1.8507  1.1577
   74SLPC  H16S 6596   1.445   4.705   8.653  0.5089 -0.3247  0.0771
   74SLPC  C217 6597   1.371   4.638   8.467  0.1326  0.5295  0.7455
   74SLPC  H17R 6598   1.265   4.611   8.487 -1.1031  3.8248 -0.7159
   74SLPC  H17S 6599   1.396   4.566   8.386 -3.3931  0.3740 -0.3892
   74SLPC  C218 6600   1.368   4.777   8.396  0.2440  0.5470  0.2260
   74SLPC  H18R 6601   1.314   4.773   8.299  1.0446  2.3248 -0.3430
   74SLPC  H18S 6602   1.470   4.815   8.371  0.2117  0.2983 -0.3127
   74SLPC  H18T 6603   1.318   4.853   8.460 -0.8843 -0.2079  0.2692
   74SLPC   C33 6604   1.495   3.603   9.867  0.1537  0.2014 -0.8116
   74SLPC   H3X 6605   1.386   3.618   9.884  0.4445  0.6564  0.8787
   74SLPC   H3Y 6606   1.526   3.509   9.917  4.0234  2.2363  1.0343
   74SLPC   C34 6607   1.525   3.609   9.727 -0.5177 -0.3879  0.4092
   74SLPC   H4X 6608   1.631   3.632   9.701 -0.5454 -0.9355 -0.2333
   74SLPC   H4Y 6609   1.474   3.691   9.671 -0.7918 -1.0925 -0.4010
   74SLPC   C35 6610   1.498   3.477   9.656  0.0712  0.1469  0.5659
   74SLPC   H5X 6611   1.389   3.460   9.666 -0.3097  0.7548 -1.8671
   74SLPC   H5Y 6612   1.537   3.389   9.711 -1.0079 -0.5570  0.2321
   74SLPC   C36 6613   1.530   3.479   9.506 -0.5097  0.3070 -0.0310
   74SLPC   H6X 6614   1.634   3.458   9.473 -0.4273  0.2074  0.2923
   74SLPC   H6Y 6615   1.513   3.585   9.475 -1.6982 -0.2178 -1.2950
   74SLPC   C37 6616   1.437   3.389   9.420  0.8548  0.0989 -0.8436
   74SLPC   H7X 6617   1.334   3.424   9.440  1.2300  0.1296  1.1893
   74SLPC   H7Y 6618   1.446   3.288   9.467  2.2676 -0.3055 -1.8958
   74SLPC   C38 6619   1.476   3.393   9.274 -0.3494  0.6585 -0.0063
   74SLPC   H8X 6620   1.567   3.335   9.247  0.3672  2.4166 -1.5952
   74SLPC   H8Y 6621   1.498   3.501   9.257  0.5031  0.7061  1.3090
   74SLPC   C39 6622   1.367   3.348   9.175 -0.5102 -0.6147 -0.4815
   74SLPC   H9X 6623   1.268   3.388   9.204 -0.4503  0.5996 -1.8199
   74SLPC   H9Y 6624   1.359   3.237   9.177 -2.0205 -0.5763 -1.8496
   74SLPC  C310 6625   1.395   3.394   9.035 -0.5142 -0.2122  0.0458
   74SLPC  H10X 6626   1.496   3.368   8.994 -1.4378 -0.9309 -1.8906
   74SLPC  H10Y 6627   1.384   3.504   9.045 -3.7452 -0.5300  0.8027
   74SLPC  C311 6628   1.297   3.340   8.936 -0.0460  0.3531 -0.2857
   74SLPC  H11X 6629   1.193   3.367   8.965 -0.5607 -1.2537 -0.5255
   74SLPC  H11Y 6630   1.300   3.229   8.941  0.3641  0.3649 -0.2869
   74SLPC  C312 6631   1.330   3.387   8.790 -0.2536 -0.7136 -0.5071
   74SLPC  H12X 6632   1.441   3.380   8.782  0.2089  0.7284  2.9061
   74SLPC  H12Y 6633   1.298   3.493   8.795  1.1007 -0.3008 -0.2832
   74SLPC  C313 6634   1.249   3.329   8.674 -0.2257  0.5411 -0.1906
   74SLPC  H13X 6635   1.142   3.340   8.701  0.3085  0.5227  2.0768
   74SLPC  H13Y 6636   1.279   3.223   8.665  2.6573  1.2547 -0.0198
   74SLPC  C314 6637   1.293   3.403   8.539  0.1427  0.2040 -0.8914
   74SLPC  H14X 6638   1.404   3.416   8.536  0.2554 -0.7603 -1.1823
   74SLPC  H14Y 6639   1.251   3.505   8.550  0.1917  0.4008 -2.3366
   74SLPC  C315 6640   1.241   3.330   8.413  0.4412 -0.0446 -0.3760
   74SLPC  H15X 6641   1.131   3.329   8.402  0.5570 -1.2341 -1.8007
   74SLPC  H15Y 6642   1.272   3.223   8.419  1.4858  0.2519 -0.2366
   74SLPC  C316 6643   1.290   3.391   8.281 -0.3492 -0.5911 -0.2757
   74SLPC  H16X 6644   1.264   3.317   8.202 -2.2042 -0.6931  0.3780
   74SLPC  H16Y 6645   1.400   3.403   8.293 -0.4739  0.7234 -0.3750
   74SLPC  C317 6646   1.230   3.525   8.246 -0.1650  0.1022 -0.4187
   74SLPC  H17X 6647   1.244   3.600   8.326 -1.8733 -0.7384  0.7359
   74SLPC  H17Y 6648   1.119   3.516   8.241 -0.4852  2.2831  1.3183
   74SLPC  C318 6649   1.300   3.593   8.125  0.2297 -0.6090 -0.1271
   74SLPC  H18X 6650   1.410   3.595   8.137  0.4456 -3.2015 -1.0600
   74SLPC  H18Y 6651   1.260   3.697   8.115 -0.7273 -0.8659  0.8776
   74SLPC  H18Z 6652   1.275   3.549   8.026  4.3826  1.6526 -2.4888
   75SLPC     N 6653   5.477   1.315   6.214 -0.0392  0.3228 -0.6264
   75SLPC   C13 6654   5.560   1.433   6.189 -0.0132  0.0198 -0.0609
   75SLPC  H13A 6655   5.667   1.425   6.206  0.0874  1.4665  0.0944
   75SLPC  H13B 6656   5.556   1.465   6.086  0.9695  0.6540  0.0853
   75SLPC  H13C 6657   5.523   1.510   6.255 -0.1438  0.7572 -0.9679
   75SLPC   C14 6658   5.515   1.210   6.115  0.1371  0.0082 -0.5639
   75SLPC  H14A 6659   5.621   1.188   6.120 -0.3308 -2.6602 -1.0260
   75SLPC  H14B 6660   5.470   1.112   6.127 -1.6798  0.9174  0.5463
   75SLPC  H14C 6661   5.498   1.261   6.022 -1.0587 -0.1832 -0.4667
   75SLPC   C15 6662   5.337   1.354   6.214 -0.0694  0.3101  0.8048
   75SLPC  H15A 6663   5.313   1.445   6.268  0.5105  1.3264 -0.5950
   75SLPC  H15B 6664   5.306   1.386   6.115 -0.5484 -1.9166  0.1816
   75SLPC  H15C 6665   5.266   1.287   6.261 -1.1041  0.5413 -0.3693
   75SLPC   C12 6666   5.511   1.270   6.363  0.1381 -0.6733  0.3720
   75SLPC  H12A 6667   5.522   1.353   6.432 -0.1335 -0.4226  0.1152
   75SLPC  H12B 6668   5.604   1.217   6.349  0.1691 -0.8362  1.1763
   75SLPC   C11 6669   5.426   1.169   6.444 -0.0710  0.0680 -0.1119
   75SLPC  H11A 6670   5.471   1.144   6.542 -0.0464  0.2471 -0.0758
   75SLPC  H11B 6671   5.427   1.078   6.380  0.6930  1.5551 -2.3596
   75SLPC     P 6672   5.264   1.336   6.577  0.2009  0.1357 -0.0063
   75SLPC   O13 6673   5.377   1.437   6.582  0.8774 -0.7461  0.7920
   75SLPC   O14 6674   5.120   1.375   6.566 -0.2675  0.1555 -0.3775
   75SLPC   O12 6675   5.294   1.225   6.462 -0.7294  0.2436  0.3160
   75SLPC   O11 6676   5.298   1.256   6.718 -0.3810 -0.4187  0.2274
   75SLPC    C1 6677   5.288   1.116   6.725 -0.3649  0.1112  0.0050
   75SLPC    HA 6678   5.233   1.065   6.642 -0.7296 -3.1970  2.0937
   75SLPC    HB 6679   5.383   1.058   6.730 -2.5438 -3.8103  0.1445
   75SLPC    C2 6680   5.197   1.081   6.843  0.3596  0.4184 -0.3498
   75SLPC    HS 6681   5.178   0.971   6.849  2.4984  0.0616  0.8398
   75SLPC   O21 6682   5.071   1.151   6.841  0.1885 -0.2596 -0.3725
   75SLPC   C21 6683   4.991   1.116   6.743  0.1705 -0.0890  0.1339
   75SLPC   O22 6684   5.009   1.035   6.653 -0.3034  0.2961 -0.3582
   75SLPC   C22 6685   4.864   1.191   6.751 -0.5261 -0.4116  0.0202
   75SLPC   H2R 6686   4.880   1.300   6.760 -1.5494 -0.2587  0.1208
   75SLPC   H2S 6687   4.821   1.175   6.650  2.1971  1.6243 -1.5757
   75SLPC    C3 6688   5.268   1.119   6.976 -0.2222  0.0050  0.3727
   75SLPC    HX 6689   5.309   1.222   6.974  0.8807 -0.4201 -0.0376
   75SLPC    HY 6690   5.359   1.055   6.982  0.0661  0.4171  0.4126
   75SLPC   O31 6691   5.198   1.091   7.095  0.3230 -0.0335  0.2839
   75SLPC   C31 6692   5.120   1.188   7.144  0.6354  0.0556  0.7107
   75SLPC   O32 6693   5.105   1.302   7.097 -0.2879 -0.2689 -0.1428
   75SLPC   C32 6694   5.065   1.134   7.281  0.0746 -0.5074 -0.0734
   75SLPC   H2X 6695   5.149   1.092   7.340  0.6848  0.5976 -0.1299
   75SLPC   H2Y 6696   5.001   1.048   7.254  1.6555 -0.7657 -3.6022
   75SLPC   C23 6697   4.770   1.148   6.864  0.4539  0.9370 -1.2819
   75SLPC   H3R 6698   4.696   1.231   6.854 -0.3391  0.4104 -0.0119
   75SLPC   H3S 6699   4.834   1.155   6.955  0.3805 -0.5157 -1.0998
   75SLPC   C24 6700   4.695   1.011   6.858 -0.1499  0.2485  0.8244
   75SLPC   H4R 6701   4.769   0.929   6.863  0.5439  0.9256  2.8094
   75SLPC   H4S 6702   4.629   1.021   6.769 -1.0778 -0.9013  1.3656
   75SLPC   C25 6703   4.599   0.990   6.974 -0.8032 -0.6621 -0.2760
   75SLPC   H5R 6704   4.538   0.902   6.944  1.1194 -1.3126 -2.6711
   75SLPC   H5S 6705   4.539   1.083   6.975  0.7388  0.3903 -0.7183
   75SLPC   C26 6706   4.660   0.958   7.110  0.0194 -0.8238  0.2867
   75SLPC   H6R 6707   4.715   1.052   7.133  0.4896  0.6025 -5.2877
   75SLPC   H6S 6708   4.741   0.883   7.101  1.9434  0.9402  1.7421
   75SLPC   C27 6709   4.573   0.912   7.227  0.5579 -0.0246 -0.1775
   75SLPC   H7R 6710   4.632   0.834   7.280 -0.1485 -0.2223  0.3254
   75SLPC   H7S 6711   4.481   0.861   7.193  0.8090 -0.2119 -0.5986
   75SLPC   C28 6712   4.538   1.014   7.327  0.0366 -0.0674  0.0002
   75SLPC   H8R 6713   4.491   1.100   7.274  0.9893  1.8205  2.0126
   75SLPC   H8S 6714   4.633   1.048   7.375  0.4921 -0.2851 -0.7353
   75SLPC   C29 6715   4.424   0.976   7.417  0.3744 -0.4788 -0.0070
   75SLPC   H9R 6716   4.334   0.945   7.361  0.0420  0.2854  0.1022
   75SLPC  C210 6717   4.420   0.971   7.548 -0.4293  1.0225 -0.1344
   75SLPC  H10R 6718   4.322   0.955   7.597 -0.2063 -0.1635 -0.0455
   75SLPC  C211 6719   4.539   0.988   7.641 -0.0170 -0.4603  0.2122
   75SLPC  H11R 6720   4.629   0.946   7.591 -0.3811  1.8969 -2.7234
   75SLPC  H11S 6721   4.522   0.930   7.734  0.2720  2.6600  2.3948
   75SLPC  C212 6722   4.575   1.133   7.668  0.2384  0.3075 -0.2291
   75SLPC  H12R 6723   4.632   1.183   7.589  0.4786 -1.7026 -1.3906
   75SLPC  C213 6724   4.556   1.203   7.781  0.3668  0.6911 -0.8020
   75SLPC  H13R 6725   4.591   1.307   7.785 -2.0514  1.5188  0.5905
   75SLPC  C214 6726   4.492   1.151   7.905 -0.3893  0.0507  0.0827
   75SLPC  H14R 6727   4.521   1.045   7.920 -0.6432  0.0963  0.9677
   75SLPC  H14S 6728   4.381   1.159   7.916 -0.2276  2.8623  0.1770
   75SLPC  C215 6729   4.546   1.232   8.026 -0.9215  0.2228 -0.0458
   75SLPC  H15R 6730   4.518   1.338   8.010 -1.8404 -0.1102 -0.7420
   75SLPC  H15S 6731   4.657   1.226   8.029 -0.8919 -0.3264 -1.6120
   75SLPC  C216 6732   4.493   1.186   8.165  0.6283 -0.2974  0.7297
   75SLPC  H16R 6733   4.528   1.260   8.241 -1.4004 -1.4251  2.8821
   75SLPC  H16S 6734   4.539   1.085   8.173 -0.4927 -1.2559 -2.9576
   75SLPC  C217 6735   4.345   1.171   8.178  0.0517 -0.4483 -0.2255
   75SLPC  H17R 6736   4.324   1.071   8.135  1.1154 -1.7522  2.0660
   75SLPC  H17S 6737   4.299   1.247   8.112 -1.4235  0.9345  2.2591
   75SLPC  C218 6738   4.283   1.197   8.309 -0.3903 -0.2357  0.1367
   75SLPC  H18R 6739   4.284   1.113   8.381  1.2916  1.4207  2.1976
   75SLPC  H18S 6740   4.176   1.225   8.295 -0.1904  0.6013  0.2035
   75SLPC  H18T 6741   4.347   1.269   8.365  3.7735 -0.1754 -4.0614
   75SLPC   C33 6742   4.984   1.229   7.366 -0.1971 -0.9986  0.0732
   75SLPC   H3X 6743   4.909   1.273   7.296  0.6083 -0.5887 -0.5549
   75SLPC   H3Y 6744   4.937   1.162   7.441 -0.9400 -1.4491 -0.7657
   75SLPC   C34 6745   5.052   1.346   7.446  0.4250  0.1149  0.3979
   75SLPC   H4X 6746   4.972   1.407   7.493  0.6289 -1.1024  2.4635
   75SLPC   H4Y 6747   5.093   1.408   7.363 -0.5343  0.2714  0.0265
   75SLPC   C35 6748   5.170   1.310   7.537  0.6563  0.1134 -0.2104
   75SLPC   H5X 6749   5.226   1.405   7.547  0.2449  0.2759  0.6743
   75SLPC   H5Y 6750   5.241   1.238   7.491  4.3412  2.8737  0.6924
   75SLPC   C36 6751   5.133   1.266   7.679  0.5825 -0.8753  0.0085
   75SLPC   H6X 6752   5.231   1.255   7.730  2.6640 -1.6637 -3.7375
   75SLPC   H6Y 6753   5.083   1.166   7.677 -2.0530  0.3780 -0.7096
   75SLPC   C37 6754   5.037   1.359   7.758  0.3956 -0.5726 -0.0984
   75SLPC   H7X 6755   4.937   1.349   7.710  0.5097  1.6268 -0.9057
   75SLPC   H7Y 6756   5.071   1.465   7.756 -1.1763  0.1130  2.9416
   75SLPC   C38 6757   5.020   1.314   7.905 -0.0418 -0.0987 -0.8061
   75SLPC   H8X 6758   5.121   1.321   7.951 -1.0369 -1.2089  1.7472
   75SLPC   H8Y 6759   4.992   1.207   7.900  2.2878 -0.7448 -1.3467
   75SLPC   C39 6760   4.913   1.393   7.978  0.2943  1.6414  0.5853
   75SLPC   H9X 6761   4.817   1.383   7.924  0.2984 -1.2096  0.9419
   75SLPC   H9Y 6762   4.947   1.498   7.966  1.1373  1.1995 -1.2114
   75SLPC  C310 6763   4.890   1.351   8.122 -0.1048 -0.8374 -0.3201
   75SLPC  H10X 6764   4.988   1.357   8.174 -1.0150  2.4916  1.2613
   75SLPC  H10Y 6765   4.852   1.247   8.118 -0.2991 -0.9465  2.4498
   75SLPC  C311 6766   4.804   1.447   8.202  0.8218 -0.1071  0.1521
   75SLPC  H11X 6767   4.747   1.386   8.275 -0.1725 -2.4580 -2.4042
   75SLPC  H11Y 6768   4.725   1.495   8.140  0.7455  0.0552  0.3742
   75SLPC  C312 6769   4.893   1.547   8.279  0.3440  0.2190 -0.0798
   75SLPC  H12X 6770   4.939   1.613   8.202  0.8254  1.5504  1.2957
   75SLPC  H12Y 6771   4.983   1.499   8.325  0.4099  0.5150  0.0999
   75SLPC  C313 6772   4.816   1.639   8.373  0.9490 -0.5277 -0.2038
   75SLPC  H13X 6773   4.739   1.698   8.318 -0.1932 -1.1360  0.7072
   75SLPC  H13Y 6774   4.883   1.716   8.417  0.1550  0.8429 -1.2920
   75SLPC  C314 6775   4.741   1.570   8.489  0.2147 -0.4632 -0.4734
   75SLPC  H14X 6776   4.662   1.505   8.447 -1.0474  0.5986  0.2133
   75SLPC  H14Y 6777   4.692   1.645   8.553 -2.2881 -2.3917  0.0099
   75SLPC  C315 6778   4.836   1.495   8.586  0.1044 -0.3431  0.2493
   75SLPC  H15X 6779   4.889   1.577   8.639 -0.9199 -0.8922  2.2263
   75SLPC  H15Y 6780   4.906   1.431   8.529 -0.0595  0.1681 -0.5417
   75SLPC  C316 6781   4.771   1.415   8.703 -0.1259 -0.0709  0.3956
   75SLPC  H16X 6782   4.724   1.329   8.650 -0.4725  1.2710 -1.6187
   75SLPC  H16Y 6783   4.684   1.471   8.745 -0.1538 -0.4999  0.9068
   75SLPC  C317 6784   4.869   1.372   8.810  0.2318  0.2629  0.3119
   75SLPC  H17X 6785   4.914   1.459   8.864 -0.7951  0.2087  1.2951
   75SLPC  H17Y 6786   4.958   1.326   8.761  0.4743  2.1058 -1.1246
   75SLPC  C318 6787   4.817   1.264   8.912  0.2393  0.6371  0.0877
   75SLPC  H18X 6788   4.903   1.230   8.973 -1.4150 -2.3174  0.9570
   75SLPC  H18Y 6789   4.771   1.179   8.857 -0.8935  1.8603 -0.9321
   75SLPC  H18Z 6790   4.757   1.314   8.991  0.3402  0.9369 -0.0229
   76SLPC     N 6791   0.426   5.581   6.137 -0.0495 -0.1349 -0.1125
   76SLPC   C13 6792   0.560   5.653   6.130  0.6271  0.3850 -0.0382
   76SLPC  H13A 6793   0.577   5.724   6.210 -1.9993 -0.6476  1.5779
   76SLPC  H13B 6794   0.645   5.586   6.126  0.0014 -0.7618  3.1319
   76SLPC  H13C 6795   0.556   5.704   6.035  0.2431 -1.4458 -1.0370
   76SLPC   C14 6796   0.446   5.489   6.252  0.0041  0.3561 -0.1438
   76SLPC  H14A 6797   0.445   5.537   6.349 -0.5622 -0.5769  0.3353
   76SLPC  H14B 6798   0.364   5.418   6.258 -0.5890  0.9786 -0.7366
   76SLPC  H14C 6799   0.533   5.428   6.232  0.9078  1.8919 -1.1051
   76SLPC   C15 6800   0.403   5.486   6.020 -0.3453 -0.4232  0.4063
   76SLPC  H15A 6801   0.368   5.533   5.930  0.4937 -1.3955 -0.4597
   76SLPC  H15B 6802   0.488   5.428   5.987  0.1007  0.9074 -0.9165
   76SLPC  H15C 6803   0.330   5.412   6.050 -0.2729 -0.2118  1.1277
   76SLPC   C12 6804   0.312   5.678   6.147 -0.1460  0.0374 -0.5169
   76SLPC  H12A 6805   0.217   5.627   6.145 -1.1919  1.7931  0.8373
   76SLPC  H12B 6806   0.305   5.743   6.060 -1.7460  0.9042  0.2079
   76SLPC   C11 6807   0.312   5.767   6.268  0.2838 -0.2737  0.0293
   76SLPC  H11A 6808   0.411   5.817   6.275  0.8115 -1.2513 -0.3142
   76SLPC  H11B 6809   0.305   5.697   6.354 -2.1598 -0.4518 -0.2566
   76SLPC     P 6810   0.057   5.802   6.282 -0.3653 -0.0022 -0.0328
   76SLPC   O13 6811  -0.043   5.892   6.234  0.0877 -0.7683  0.4634
   76SLPC   O14 6812   0.049   5.659   6.249  0.5410 -0.5673  0.0445
   76SLPC   O12 6813   0.203   5.863   6.257  0.1048 -0.0728 -0.3899
   76SLPC   O11 6814   0.064   5.812   6.442  0.8454 -0.2616 -0.2997
   76SLPC    C1 6815   0.120   5.926   6.509 -0.3016 -0.4133 -0.4854
   76SLPC    HA 6816   0.227   5.903   6.527 -0.0384  2.1946  1.8358
   76SLPC    HB 6817   0.109   6.021   6.452  1.5108 -0.4700 -0.9756
   76SLPC    C2 6818   0.038   5.959   6.637  0.5067 -0.3239  0.5298
   76SLPC    HS 6819   0.078   6.054   6.678  0.5839 -0.2686  0.3294
   76SLPC   O21 6820   0.046   5.853   6.733  0.3149  0.5868 -0.0863
   76SLPC   C21 6821   0.151   5.865   6.813  0.5902  0.4765 -0.3757
   76SLPC   O22 6822   0.244   5.939   6.799 -0.7023  0.2680 -0.1206
   76SLPC   C22 6823   0.132   5.762   6.931 -0.4827 -0.7288 -0.5041
   76SLPC   H2R 6824   0.025   5.735   6.935 -1.3311  2.3829  3.0059
   76SLPC   H2S 6825   0.185   5.676   6.883  1.0052  0.5182 -1.2012
   76SLPC    C3 6826  -0.112   5.996   6.597 -0.1229 -0.1654  0.1764
   76SLPC    HX 6827  -0.170   5.909   6.559 -0.7100  1.4422 -2.8838
   76SLPC    HY 6828  -0.098   6.071   6.517  0.6072  0.4967  0.9002
   76SLPC   O31 6829  -0.183   6.066   6.706  0.1297 -0.0376  0.1634
   76SLPC   C31 6830  -0.246   5.996   6.796  1.0434 -0.1860 -0.0205
   76SLPC   O32 6831  -0.265   5.877   6.788  0.1418 -0.5682 -0.4456
   76SLPC   C32 6832  -0.287   6.072   6.922 -0.8331 -0.6044 -0.8065
   76SLPC   H2X 6833  -0.385   6.123   6.919 -0.2767  0.7828  1.6624
   76SLPC   H2Y 6834  -0.212   6.151   6.945 -0.5635 -0.9871 -0.3338
   76SLPC   C23 6835   0.198   5.799   7.064  0.6727  0.0675 -0.1174
   76SLPC   H3R 6836   0.308   5.818   7.060  0.5610  0.5261 -1.2602
   76SLPC   H3S 6837   0.187   5.714   7.135  0.4764 -0.1732 -0.4342
   76SLPC   C24 6838   0.139   5.917   7.133  0.0168  0.2089 -0.4988
   76SLPC   H4R 6839   0.028   5.908   7.133 -0.0138 -0.2989  2.4345
   76SLPC   H4S 6840   0.158   6.004   7.067  1.9649  0.4093  0.2597
   76SLPC   C25 6841   0.189   5.945   7.277 -0.2832  0.4257 -0.7913
   76SLPC   H5R 6842   0.145   6.043   7.305 -2.9066 -1.1237  0.9626
   76SLPC   H5S 6843   0.300   5.949   7.274 -0.1601 -1.9003 -1.9359
   76SLPC   C26 6844   0.148   5.842   7.384  0.4365 -0.1874 -0.0553
   76SLPC   H6R 6845   0.194   5.741   7.373 -1.1856 -0.9327 -0.3185
   76SLPC   H6S 6846   0.039   5.821   7.372  0.8906 -3.3648  0.5199
   76SLPC   C27 6847   0.188   5.907   7.517 -0.0766 -0.3545 -0.1603
   76SLPC   H7R 6848   0.136   6.002   7.541 -0.2954 -0.5880  0.3069
   76SLPC   H7S 6849   0.291   5.941   7.493 -0.6808  2.5863  1.0288
   76SLPC   C28 6850   0.201   5.821   7.642  0.0485 -0.3067  0.2838
   76SLPC   H8R 6851   0.097   5.782   7.647  0.3805 -1.1963  0.5068
   76SLPC   H8S 6852   0.258   5.727   7.631 -0.8584 -0.8921  0.4772
   76SLPC   C29 6853   0.237   5.896   7.769 -0.0749  0.7225  0.2459
   76SLPC   H9R 6854   0.200   6.000   7.763 -2.5628 -0.0561  0.6742
   76SLPC  C210 6855   0.290   5.843   7.881 -0.0866 -0.4082 -0.5457
   76SLPC  H10R 6856   0.305   5.912   7.966  1.6111  0.8643 -1.8039
   76SLPC  C211 6857   0.314   5.702   7.904 -0.3592  0.1683 -0.2854
   76SLPC  H11R 6858   0.423   5.682   7.891 -0.4516  0.2150 -1.2692
   76SLPC  H11S 6859   0.271   5.644   7.819 -1.9047  2.4506 -1.1583
   76SLPC  C212 6860   0.244   5.667   8.034  0.2336 -0.4259  0.0561
   76SLPC  H12R 6861   0.138   5.637   8.028  0.0613 -0.3966  2.2642
   76SLPC  C213 6862   0.302   5.672   8.157  0.3039 -0.2790 -0.8929
   76SLPC  H13R 6863   0.235   5.671   8.245 -1.1352 -0.9004 -1.9550
   76SLPC  C214 6864   0.437   5.707   8.203 -0.0268 -0.8559 -0.7842
   76SLPC  H14R 6865   0.496   5.738   8.114 -2.9594 -0.0536 -2.5846
   76SLPC  H14S 6866   0.490   5.623   8.253  1.2412 -0.2793 -1.1237
   76SLPC  C215 6867   0.428   5.827   8.298 -0.1880 -0.6011  0.1522
   76SLPC  H15R 6868   0.529   5.858   8.333 -0.6312  2.1564 -0.7534
   76SLPC  H15S 6869   0.384   5.793   8.394 -4.4318  2.3021 -0.4971
   76SLPC  C216 6870   0.375   5.956   8.238  0.6485  0.0108 -0.8061
   76SLPC  H16R 6871   0.273   5.944   8.196  1.1266 -0.4740 -1.8734
   76SLPC  H16S 6872   0.431   5.987   8.147 -0.2617 -0.0799 -1.4144
   76SLPC  C217 6873   0.381   6.068   8.348 -0.4921 -0.3008 -0.2278
   76SLPC  H17R 6874   0.330   6.154   8.300  1.8806  1.3504  0.0423
   76SLPC  H17S 6875   0.488   6.097   8.355  0.4330 -3.1314 -1.1671
   76SLPC  C218 6876   0.318   6.038   8.486  0.3266  0.4223  0.1760
   76SLPC  H18R 6877   0.294   6.127   8.548 -3.2526  0.2319 -0.6908
   76SLPC  H18S 6878   0.374   5.963   8.545  2.1636  1.1394 -0.5974
   76SLPC  H18T 6879   0.225   5.981   8.462  0.0079  1.7484 -1.9624
   76SLPC   C33 6880  -0.307   5.978   7.043 -0.1081 -0.0002 -1.0133
   76SLPC   H3X 6881  -0.217   5.914   7.052  0.4763  1.1236  2.9297
   76SLPC   H3Y 6882  -0.396   5.915   7.024  0.0068 -0.0111 -1.5309
   76SLPC   C34 6883  -0.313   6.049   7.170 -0.1001 -0.1329 -0.0593
   76SLPC   H4X 6884  -0.397   6.122   7.171  0.1743  0.1797  0.2625
   76SLPC   H4Y 6885  -0.230   6.112   7.207 -0.5698 -0.9690  2.7099
   76SLPC   C35 6886  -0.357   5.950   7.291 -0.3538 -0.0285  0.1365
   76SLPC   H5X 6887  -0.288   5.863   7.297 -0.6029 -0.1167  3.0754
   76SLPC   H5Y 6888  -0.455   5.903   7.268  1.3506 -2.6151 -2.4179
   76SLPC   C36 6889  -0.349   6.011   7.432  0.7541 -0.4604 -0.3269
   76SLPC   H6X 6890  -0.408   6.105   7.435  1.8450  0.3138 -1.9686
   76SLPC   H6Y 6891  -0.245   6.040   7.455  1.1783 -0.6463 -1.9504
   76SLPC   C37 6892  -0.406   5.915   7.533  0.4069 -0.1892 -0.2230
   76SLPC   H7X 6893  -0.340   5.826   7.542  0.1409 -0.2723  1.1555
   76SLPC   H7Y 6894  -0.507   5.884   7.497 -0.2154  2.7352 -1.2778
   76SLPC   C38 6895  -0.435   5.979   7.673  0.6461 -0.4212 -0.8060
   76SLPC   H8X 6896  -0.510   5.914   7.722 -0.1324  1.0772  0.0688
   76SLPC   H8Y 6897  -0.489   6.076   7.666  1.8251  0.2987 -0.3142
   76SLPC   C39 6898  -0.318   5.999   7.767  0.4777 -0.7288  0.3039
   76SLPC   H9X 6899  -0.243   6.065   7.718 -1.4366  0.3280 -1.3951
   76SLPC   H9Y 6900  -0.269   5.899   7.767  0.0659 -0.9481 -0.9591
   76SLPC  C310 6901  -0.355   6.038   7.911 -0.0260 -0.3457 -0.0112
   76SLPC  H10X 6902  -0.398   5.949   7.963  2.4134 -0.9668  1.0597
   76SLPC  H10Y 6903  -0.430   6.120   7.902  0.7327  0.1487 -3.1911
   76SLPC  C311 6904  -0.235   6.087   7.989  0.8594  0.0506  0.0402
   76SLPC  H11X 6905  -0.271   6.096   8.093 -1.3495  1.7053 -0.7930
   76SLPC  H11Y 6906  -0.215   6.192   7.960  1.7079 -0.1645 -0.1885
   76SLPC  C312 6907  -0.117   5.997   7.975 -0.3126 -0.7024 -0.1791
   76SLPC  H12X 6908  -0.078   6.012   7.872 -1.6641 -0.9368 -0.7529
   76SLPC  H12Y 6909  -0.151   5.891   7.982  0.6867 -0.9579  1.4407
   76SLPC  C313 6910  -0.002   6.015   8.077  0.4515  0.4575 -0.1612
   76SLPC  H13X 6911   0.035   6.120   8.070  0.1219  0.4729 -2.2785
   76SLPC  H13Y 6912   0.076   5.947   8.035 -0.8486  0.8010 -3.3929
   76SLPC  C314 6913  -0.037   5.963   8.216  0.2132  0.2180  0.7860
   76SLPC  H14X 6914  -0.131   6.004   8.259 -0.5293  0.6747 -1.1502
   76SLPC  H14Y 6915   0.052   5.990   8.278  0.4236  0.4771  0.3782
   76SLPC  C315 6916  -0.052   5.809   8.222 -0.5578 -0.5759  0.4117
   76SLPC  H15X 6917   0.054   5.775   8.227 -0.3990 -0.1992 -0.2796
   76SLPC  H15Y 6918  -0.101   5.757   8.137  1.8351 -0.4936 -1.1358
   76SLPC  C316 6919  -0.118   5.747   8.348  0.2345 -0.2298  0.3996
   76SLPC  H16X 6920  -0.108   5.638   8.368  0.8578 -0.3869 -0.6684
   76SLPC  H16Y 6921  -0.227   5.761   8.337  0.1404 -1.7464 -1.1406
   76SLPC  C317 6922  -0.077   5.823   8.475  0.1270  0.0684  0.4051
   76SLPC  H17X 6923  -0.109   5.929   8.464 -0.5958 -0.1796  0.0671
   76SLPC  H17Y 6924   0.034   5.830   8.481 -0.0304  1.7232  3.0476
   76SLPC  C318 6925  -0.129   5.755   8.599 -0.6085 -0.0692 -0.1837
   76SLPC  H18X 6926  -0.106   5.827   8.680  2.0810 -1.0347  0.0033
   76SLPC  H18Y 6927  -0.076   5.664   8.634  0.3681  0.1564 -1.0234
   76SLPC  H18Z 6928  -0.239   5.740   8.607 -0.9256  2.4034  1.0000
   77SLPC     N 6929   4.616   6.637   6.489 -0.1446  0.1665 -0.0235
   77SLPC   C13 6930   4.479   6.601   6.517  0.0397  0.5225 -0.7162
   77SLPC  H13A 6931   4.426   6.628   6.426 -2.3212  0.4065  0.5420
   77SLPC  H13B 6932   4.466   6.494   6.528 -1.9113  0.8013  0.0030
   77SLPC  H13C 6933   4.435   6.657   6.598 -2.2001  0.9334 -2.1354
   77SLPC   C14 6934   4.620   6.785   6.455 -0.0204  0.4992  0.3743
   77SLPC  H14A 6935   4.569   6.839   6.534  0.9867  0.5414  1.0191
   77SLPC  H14B 6936   4.721   6.823   6.445 -0.0349  0.1955 -1.2265
   77SLPC  H14C 6937   4.580   6.789   6.355  0.7331 -0.4592  0.0278
   77SLPC   C15 6938   4.674   6.558   6.380  0.1847  0.0137 -0.1337
   77SLPC  H15A 6939   4.769   6.599   6.348  0.3015  1.7887  2.2387
   77SLPC  H15B 6940   4.704   6.463   6.423  2.7615  1.3302  1.2244
   77SLPC  H15C 6941   4.615   6.535   6.292 -2.8158  1.0339  1.4813
   77SLPC   C12 6942   4.700   6.622   6.615 -0.3622  0.0314 -0.0265
   77SLPC  H12A 6943   4.639   6.664   6.694 -0.3149  0.3265 -0.1430
   77SLPC  H12B 6944   4.789   6.683   6.608 -0.4049  0.0420 -0.5749
   77SLPC   C11 6945   4.734   6.474   6.664 -0.1562 -0.3989 -0.0205
   77SLPC  H11A 6946   4.644   6.412   6.645 -1.3747  0.2741  2.9627
   77SLPC  H11B 6947   4.749   6.474   6.774  0.6406 -0.9043 -0.1224
   77SLPC     P 6948   4.991   6.465   6.637 -0.2128 -0.1605 -0.1322
   77SLPC   O13 6949   5.079   6.397   6.539  0.2786 -0.4587  0.4780
   77SLPC   O14 6950   4.987   6.615   6.645 -0.1918 -0.1274  0.4137
   77SLPC   O12 6951   4.846   6.413   6.599  0.1540 -0.0153 -0.5628
   77SLPC   O11 6952   5.022   6.393   6.778 -0.6695  0.4652 -0.2153
   77SLPC    C1 6953   5.155   6.393   6.833 -0.0153 -0.1143 -0.4971
   77SLPC    HA 6954   5.207   6.488   6.809 -2.9941  1.5723 -0.8624
   77SLPC    HB 6955   5.143   6.400   6.943  0.8406  1.3863 -0.4696
   77SLPC    C2 6956   5.244   6.270   6.793 -0.0503 -0.5422 -0.2183
   77SLPC    HS 6957   5.218   6.255   6.685 -1.4983  0.3704 -0.0252
   77SLPC   O21 6958   5.214   6.159   6.872  0.3517  0.6224  0.2308
   77SLPC   C21 6959   5.217   6.034   6.819  0.0290 -0.3597 -0.6329
   77SLPC   O22 6960   5.264   6.007   6.712 -0.6249 -0.5827  0.3827
   77SLPC   C22 6961   5.184   5.935   6.927 -0.0182  0.1735 -0.0886
   77SLPC   H2R 6962   5.074   5.936   6.944 -0.0276 -0.3333 -0.1210
   77SLPC   H2S 6963   5.195   5.834   6.884  1.5027 -0.0574  0.7855
   77SLPC    C3 6964   5.395   6.300   6.796 -0.2504  0.0772  0.3587
   77SLPC    HX 6965   5.413   6.379   6.720 -3.1499  0.1062 -0.4227
   77SLPC    HY 6966   5.459   6.216   6.763  0.5802  0.2436  1.4891
   77SLPC   O31 6967   5.423   6.353   6.926 -0.3140  0.3727 -0.0493
   77SLPC   C31 6968   5.457   6.265   7.015  1.0816 -0.3495  0.7804
   77SLPC   O32 6969   5.478   6.146   6.988 -0.6058 -0.2070 -0.1022
   77SLPC   C32 6970   5.472   6.325   7.155 -0.6424  1.2804  0.0860
   77SLPC   H2X 6971   5.379   6.379   7.184  0.9189  4.1373  0.1402
   77SLPC   H2Y 6972   5.551   6.401   7.141  1.1123 -0.7020 -1.4268
   77SLPC   C23 6973   5.269   5.944   7.057 -0.5653 -0.3907  0.1987
   77SLPC   H3R 6974   5.260   6.043   7.107 -3.2601  0.3114 -1.5023
   77SLPC   H3S 6975   5.375   5.928   7.029 -0.6838 -2.1480  0.6698
   77SLPC   C24 6976   5.239   5.846   7.171 -0.2050  0.1672 -0.4237
   77SLPC   H4R 6977   5.316   5.834   7.250  0.7890  1.5842 -1.1283
   77SLPC   H4S 6978   5.235   5.744   7.128  0.5366  0.1629 -0.4951
   77SLPC   C25 6979   5.110   5.879   7.239 -0.0334 -0.0194 -0.8036
   77SLPC   H5R 6980   5.040   5.837   7.164  1.0368 -1.4410 -1.0444
   77SLPC   H5S 6981   5.093   5.987   7.256 -1.7889 -0.4830  0.8493
   77SLPC   C26 6982   5.102   5.808   7.378  0.2390 -0.5844 -0.2600
   77SLPC   H6R 6983   5.182   5.857   7.437 -0.8444  0.2366  0.5523
   77SLPC   H6S 6984   5.129   5.701   7.366  2.0315 -0.4195  1.7396
   77SLPC   C27 6985   4.971   5.830   7.452 -0.3257 -0.3605 -0.8689
   77SLPC   H7R 6986   4.953   5.741   7.515 -0.0090  0.9057  1.1150
   77SLPC   H7S 6987   4.884   5.845   7.385 -2.5267  0.7881  2.0043
   77SLPC   C28 6988   4.964   5.960   7.543 -0.7831  0.4635 -0.5536
   77SLPC   H8R 6989   4.861   5.976   7.579 -0.1399 -0.7856  2.0448
   77SLPC   H8S 6990   4.992   6.045   7.477  1.1484 -0.3454 -0.8456
   77SLPC   C29 6991   5.064   5.974   7.655  0.1842  0.4392 -0.4027
   77SLPC   H9R 6992   5.166   6.015   7.648 -0.0270  1.4205  1.4872
   77SLPC  C210 6993   5.047   5.923   7.781 -0.6760  0.5295 -0.0684
   77SLPC  H10R 6994   5.127   5.939   7.855 -2.2439  0.6074  1.6847
   77SLPC  C211 6995   4.929   5.856   7.843  0.6470 -0.2342 -0.4733
   77SLPC  H11R 6996   4.830   5.885   7.802 -0.0646 -2.4367 -0.4633
   77SLPC  H11S 6997   4.919   5.886   7.949 -0.1111  2.0829 -1.1387
   77SLPC  C212 6998   4.936   5.704   7.822  0.5054  0.3099  0.0068
   77SLPC  H12R 6999   4.953   5.676   7.717 -2.2195  0.8465 -0.6586
   77SLPC  C213 7000   4.924   5.601   7.910 -0.6610 -0.2201  0.4848
   77SLPC  H13R 7001   4.936   5.500   7.868  2.4233  0.9678 -1.8830
   77SLPC  C214 7002   4.885   5.615   8.056 -0.2953  0.0945  0.3877
   77SLPC  H14R 7003   4.957   5.687   8.100  1.1680 -0.4615 -1.0026
   77SLPC  H14S 7004   4.895   5.522   8.115  2.8714  0.2533  0.2740
   77SLPC  C215 7005   4.737   5.654   8.069  0.1850  0.2586  0.2015
   77SLPC  H15R 7006   4.672   5.569   8.040 -0.0504  1.0153 -1.6306
   77SLPC  H15S 7007   4.707   5.725   7.988 -2.4124 -2.7775 -1.7308
   77SLPC  C216 7008   4.701   5.704   8.212  0.3020 -0.1612  0.3973
   77SLPC  H16R 7009   4.667   5.809   8.195  2.1529  0.3443 -0.5583
   77SLPC  H16S 7010   4.794   5.707   8.272  1.3258  1.2049 -1.1604
   77SLPC  C217 7011   4.606   5.619   8.292  0.6269 -0.2341  0.1535
   77SLPC  H17R 7012   4.603   5.670   8.390 -0.0724 -0.0860  0.0620
   77SLPC  H17S 7013   4.651   5.519   8.312  0.2115 -0.7647 -1.3919
   77SLPC  C218 7014   4.463   5.607   8.240 -1.1650 -0.3649 -0.3058
   77SLPC  H18R 7015   4.453   5.528   8.163  3.0521 -1.3714 -0.0863
   77SLPC  H18S 7016   4.422   5.706   8.214  0.1089  0.1799 -0.3225
   77SLPC  H18T 7017   4.398   5.562   8.319  2.2100 -2.8606  1.3593
   77SLPC   C33 7018   5.510   6.220   7.259 -0.4832 -1.0299  0.1317
   77SLPC   H3X 7019   5.614   6.182   7.247  0.3741  1.4734 -1.1277
   77SLPC   H3Y 7020   5.430   6.143   7.259 -3.3454  1.6632  2.3926
   77SLPC   C34 7021   5.500   6.255   7.404 -0.6868  0.1490 -0.5114
   77SLPC   H4X 7022   5.421   6.333   7.410 -2.0122 -1.0533 -1.4391
   77SLPC   H4Y 7023   5.595   6.298   7.440 -1.8641  1.4882  1.1744
   77SLPC   C35 7024   5.474   6.139   7.498 -0.3330  0.3003 -0.8738
   77SLPC   H5X 7025   5.555   6.063   7.486 -0.6492  0.0222 -1.2926
   77SLPC   H5Y 7026   5.384   6.085   7.459 -0.3833  0.4300 -0.9382
   77SLPC   C36 7027   5.439   6.178   7.634 -0.0033  0.2143 -0.2114
   77SLPC   H6X 7028   5.337   6.222   7.634  0.3144  0.9664 -1.4068
   77SLPC   H6Y 7029   5.500   6.260   7.679 -0.4859  0.4761 -0.0251
   77SLPC   C37 7030   5.442   6.056   7.733 -0.6422  0.7551 -0.5809
   77SLPC   H7X 7031   5.537   6.000   7.723 -0.8615  0.5232 -1.4651
   77SLPC   H7Y 7032   5.367   5.982   7.699 -0.4798  1.0190 -1.5540
   77SLPC   C38 7033   5.415   6.106   7.869  1.2897  0.0577 -0.0318
   77SLPC   H8X 7034   5.332   6.179   7.869  2.5347  1.5157  0.9265
   77SLPC   H8Y 7035   5.502   6.163   7.906  1.9231 -1.1671  0.4292
   77SLPC   C39 7036   5.390   5.990   7.974  0.0009 -0.5077  0.4523
   77SLPC   H9X 7037   5.482   5.931   7.996  0.0453 -0.2839  0.8753
   77SLPC   H9Y 7038   5.308   5.925   7.936  0.3853 -0.7902  0.0928
   77SLPC  C310 7039   5.330   6.046   8.101  0.2437  0.2738  0.6464
   77SLPC  H10X 7040   5.261   6.128   8.073  2.3770  1.5495 -1.1377
   77SLPC  H10Y 7041   5.412   6.088   8.163  0.6426 -0.5046  0.6589
   77SLPC  C311 7042   5.246   5.943   8.170 -1.0111 -0.9317 -0.5355
   77SLPC  H11X 7043   5.172   5.911   8.094  1.1824 -0.0214 -3.2233
   77SLPC  H11Y 7044   5.207   5.991   8.262  2.1711 -0.7540  0.8629
   77SLPC  C312 7045   5.322   5.827   8.231 -0.0076 -0.4293  0.2093
   77SLPC  H12X 7046   5.411   5.872   8.280 -1.1432  0.9489  1.0882
   77SLPC  H12Y 7047   5.354   5.751   8.157  1.7026  1.4114 -1.0546
   77SLPC  C313 7048   5.255   5.760   8.360 -0.0238 -0.1592 -0.5137
   77SLPC  H13X 7049   5.174   5.696   8.318 -0.5908 -0.1894  0.5903
   77SLPC  H13Y 7050   5.203   5.840   8.418 -2.3779 -0.9266 -1.4437
   77SLPC  C314 7051   5.340   5.667   8.447 -0.3215 -0.3996 -0.4528
   77SLPC  H14X 7052   5.401   5.747   8.496 -0.2644 -0.5409 -0.2891
   77SLPC  H14Y 7053   5.408   5.605   8.385 -1.4464 -2.2919  0.1251
   77SLPC  C315 7054   5.253   5.591   8.547  0.5507  0.7138  0.4521
   77SLPC  H15X 7055   5.210   5.511   8.483  1.6052  1.7392 -1.6242
   77SLPC  H15Y 7056   5.176   5.658   8.593  0.5071  1.0060 -0.0438
   77SLPC  C316 7057   5.326   5.529   8.665 -0.4960 -0.1829  0.7301
   77SLPC  H16X 7058   5.413   5.468   8.631 -0.2456  0.3911  0.3086
   77SLPC  H16Y 7059   5.258   5.462   8.720  0.5635 -2.0267 -0.1183
   77SLPC  C317 7060   5.385   5.636   8.762  0.3509 -0.3015 -0.5118
   77SLPC  H17X 7061   5.310   5.712   8.793  3.6419  2.9654  0.1378
   77SLPC  H17Y 7062   5.461   5.702   8.716 -1.6746  1.2559 -1.8184
   77SLPC  C318 7063   5.452   5.568   8.878 -0.7864  0.2115 -0.7091
   77SLPC  H18X 7064   5.532   5.632   8.920  1.6334 -2.7174 -0.5636
   77SLPC  H18Y 7065   5.506   5.478   8.844 -0.3292  0.7744 -1.4933
   77SLPC  H18Z 7066   5.371   5.547   8.952  0.2702 -0.9533  0.1500
   78SLPC     N 7067   5.795   5.631   6.316 -0.0418  0.9071 -1.0219
   78SLPC   C13 7068   5.905   5.538   6.274 -0.5238  0.2926  0.1482
   78SLPC  H13A 7069   5.986   5.602   6.243 -1.5395  1.4901 -0.1298
   78SLPC  H13B 7070   5.940   5.480   6.358 -3.5175 -0.8631  0.7350
   78SLPC  H13C 7071   5.883   5.473   6.191 -0.7717  0.3198  0.1929
   78SLPC   C14 7072   5.754   5.708   6.200 -0.3394  0.1609 -0.2806
   78SLPC  H14A 7073   5.676   5.779   6.222 -1.4598 -1.0527 -0.1705
   78SLPC  H14B 7074   5.827   5.758   6.139 -1.9892  0.9814 -1.6389
   78SLPC  H14C 7075   5.699   5.650   6.128 -1.3857  0.3009  0.3784
   78SLPC   C15 7076   5.853   5.717   6.420  0.2767  0.7077  0.1620
   78SLPC  H15A 7077   5.791   5.793   6.465 -0.8819 -0.7261  1.0860
   78SLPC  H15B 7078   5.907   5.662   6.496  0.8908 -0.1067 -0.8340
   78SLPC  H15C 7079   5.933   5.773   6.373 -1.1641  1.9474 -0.9128
   78SLPC   C12 7080   5.680   5.555   6.376  0.3904  0.2231 -0.2619
   78SLPC  H12A 7081   5.603   5.625   6.405  0.1997 -0.0791 -0.0247
   78SLPC  H12B 7082   5.715   5.494   6.458 -2.1811 -1.5364 -0.3177
   78SLPC   C11 7083   5.605   5.455   6.286 -0.1259  0.8839  0.0772
   78SLPC  H11A 7084   5.535   5.387   6.339  1.1550 -1.2760 -0.8786
   78SLPC  H11B 7085   5.682   5.385   6.247 -2.4083 -2.1786  0.6908
   78SLPC     P 7086   5.406   5.586   6.185 -0.0234 -0.0586 -0.1571
   78SLPC   O13 7087   5.436   5.732   6.192  0.3357 -0.1447  0.2311
   78SLPC   O14 7088   5.308   5.532   6.083  0.6213  0.0935 -0.0674
   78SLPC   O12 7089   5.546   5.508   6.168  0.5694  0.2413 -0.0372
   78SLPC   O11 7090   5.349   5.546   6.323  0.0018  0.7410 -0.1771
   78SLPC    C1 7091   5.228   5.614   6.367  0.0395  0.3247  0.4943
   78SLPC    HA 7092   5.185   5.686   6.295  1.9433  0.8171 -0.2103
   78SLPC    HB 7093   5.149   5.536   6.375  1.5213 -1.2055  0.7617
   78SLPC    C2 7094   5.270   5.667   6.512  0.6307 -0.1249 -0.1670
   78SLPC    HS 7095   5.187   5.739   6.535  0.8195  0.0963 -0.1691
   78SLPC   O21 7096   5.401   5.735   6.504  0.7412  0.2313  0.6202
   78SLPC   C21 7097   5.390   5.854   6.448  0.6648 -0.4095 -0.6700
   78SLPC   O22 7098   5.284   5.907   6.409 -0.3364  0.6066 -0.4160
   78SLPC   C22 7099   5.534   5.921   6.430  0.6718  0.7482  0.8966
   78SLPC   H2R 7100   5.602   5.840   6.464 -1.1451 -0.2209  2.3929
   78SLPC   H2S 7101   5.558   5.936   6.322 -1.4726 -1.5466 -0.0062
   78SLPC    C3 7102   5.286   5.556   6.621  0.5793 -0.2490  0.4291
   78SLPC    HX 7103   5.358   5.485   6.575 -0.4180 -1.3979  0.5922
   78SLPC    HY 7104   5.188   5.504   6.632  0.5175 -0.4169 -0.8120
   78SLPC   O31 7105   5.323   5.606   6.751 -0.1101  0.4486 -0.0752
   78SLPC   C31 7106   5.453   5.595   6.778  0.4270  0.2266 -0.3495
   78SLPC   O32 7107   5.537   5.536   6.718  0.2461 -0.2461  0.0216
   78SLPC   C32 7108   5.488   5.661   6.914 -0.3045  0.3034  0.3186
   78SLPC   H2X 7109   5.403   5.650   6.985 -0.4476  0.4257  0.1668
   78SLPC   H2Y 7110   5.501   5.769   6.891 -0.6664  0.2656 -0.0832
   78SLPC   C23 7111   5.564   6.051   6.503 -0.3833 -0.1584  0.4440
   78SLPC   H3R 7112   5.472   6.085   6.555  0.0097 -0.1504  1.1352
   78SLPC   H3S 7113   5.580   6.136   6.433 -0.4849 -1.2637 -0.9731
   78SLPC   C24 7114   5.671   6.023   6.602 -0.1734  0.3953 -0.3755
   78SLPC   H4R 7115   5.708   6.121   6.638 -1.9890  0.7175  0.7452
   78SLPC   H4S 7116   5.755   5.967   6.554 -0.9210 -0.7568 -0.3686
   78SLPC   C25 7117   5.623   5.948   6.727  0.2115 -0.3292 -0.1440
   78SLPC   H5R 7118   5.594   5.846   6.694  0.1408 -0.2262 -0.4004
   78SLPC   H5S 7119   5.531   5.996   6.767  0.2404  1.8121 -2.4088
   78SLPC   C26 7120   5.722   5.943   6.843  0.4521 -0.5147  0.1548
   78SLPC   H6R 7121   5.664   5.900   6.927 -0.2027 -0.4579 -0.2563
   78SLPC   H6S 7122   5.743   6.048   6.870  0.1799  0.1251 -1.9014
   78SLPC   C27 7123   5.854   5.868   6.807 -0.7960  0.5677  0.0747
   78SLPC   H7R 7124   5.907   5.931   6.732 -0.1426 -0.5988 -0.4784
   78SLPC   H7S 7125   5.821   5.770   6.766 -0.1219 -0.6018  2.1846
   78SLPC   C28 7126   5.956   5.831   6.922  0.6829  0.7573  0.1425
   78SLPC   H8R 7127   6.024   5.755   6.877 -1.5098 -0.7212 -0.8009
   78SLPC   H8S 7128   5.897   5.777   6.998  0.4306 -0.9721 -1.2096
   78SLPC   C29 7129   6.041   5.946   6.968 -0.4379  1.2368 -0.2865
   78SLPC   H9R 7130   6.123   5.976   6.901  0.3246 -0.1657 -0.0029
   78SLPC  C210 7131   6.023   6.011   7.090 -0.1059 -0.0936 -0.2458
   78SLPC  H10R 7132   6.095   6.092   7.108  0.3301 -0.2585 -1.2287
   78SLPC  C211 7133   5.911   5.988   7.188 -0.0933 -0.3542  0.1564
   78SLPC  H11R 7134   5.944   5.914   7.264 -0.5335 -1.5850 -0.8265
   78SLPC  H11S 7135   5.817   5.966   7.132 -1.8237  0.3520  2.5855
   78SLPC  C212 7136   5.876   6.114   7.267  0.3435  0.0040  0.1347
   78SLPC  H12R 7137   5.804   6.183   7.221 -1.1726 -0.5462  1.6027
   78SLPC  C213 7138   5.931   6.151   7.384  0.5285  0.5773  0.2437
   78SLPC  H13R 7139   5.897   6.244   7.431 -0.1170  1.4371 -1.8195
   78SLPC  C214 7140   6.035   6.073   7.462 -0.3883  0.1762  0.4083
   78SLPC  H14R 7141   6.087   6.147   7.526  1.1197  0.1235 -0.7045
   78SLPC  H14S 7142   6.113   6.048   7.387  0.7696  0.6086  1.4528
   78SLPC  C215 7143   5.978   5.952   7.541 -0.6814  0.1220 -0.1153
   78SLPC  H15R 7144   6.065   5.886   7.563 -0.8380 -0.0703 -0.0662
   78SLPC  H15S 7145   5.909   5.890   7.480  1.7003  0.3829 -3.3158
   78SLPC  C216 7146   5.930   5.998   7.677  0.9909  0.2258 -0.4927
   78SLPC  H16R 7147   5.853   6.078   7.680 -0.4677 -1.1106  2.2323
   78SLPC  H16S 7148   6.028   6.042   7.704  1.4492  0.5362 -2.5563
   78SLPC  C217 7149   5.873   5.895   7.770 -0.0795  0.0186  0.0660
   78SLPC  H17R 7150   5.926   5.797   7.779 -1.0691 -0.6084 -0.6957
   78SLPC  H17S 7151   5.771   5.870   7.733 -0.7039  2.1171  0.2452
   78SLPC  C218 7152   5.868   5.945   7.911  0.1102 -0.5241 -0.0234
   78SLPC  H18R 7153   5.810   6.040   7.911  1.1811  0.2512 -3.0641
   78SLPC  H18S 7154   5.964   5.986   7.948 -0.9628  2.4642 -0.2350
   78SLPC  H18T 7155   5.803   5.886   7.980 -0.5277  1.2315  0.9554
   78SLPC   C33 7156   5.611   5.609   6.991 -0.3050  0.1611 -0.7023
   78SLPC   H3X 7157   5.697   5.634   6.925 -0.1991 -0.1875 -0.6974
   78SLPC   H3Y 7158   5.610   5.499   7.003 -1.7197  0.3318  1.2070
   78SLPC   C34 7159   5.640   5.675   7.126 -0.9037  0.2491  0.7201
   78SLPC   H4X 7160   5.645   5.785   7.116 -0.6863  0.2886  1.2531
   78SLPC   H4Y 7161   5.743   5.645   7.153 -0.6541  0.1462 -0.3063
   78SLPC   C35 7162   5.558   5.620   7.241  0.6182  0.9942 -0.0855
   78SLPC   H5X 7163   5.568   5.510   7.252  1.8520  1.1700  0.8332
   78SLPC   H5Y 7164   5.453   5.655   7.232  0.7629  1.4797  0.0714
   78SLPC   C36 7165   5.602   5.677   7.376  0.0143  0.0941 -0.3390
   78SLPC   H6X 7166   5.588   5.787   7.387 -0.4458 -0.0529  0.7617
   78SLPC   H6Y 7167   5.711   5.658   7.376 -0.0055 -0.1894 -2.1744
   78SLPC   C37 7168   5.542   5.601   7.492  0.4148  1.0400  0.3763
   78SLPC   H7X 7169   5.556   5.495   7.461  3.1893  1.3908  0.1718
   78SLPC   H7Y 7170   5.437   5.635   7.499 -0.5885 -1.3351 -1.7092
   78SLPC   C38 7171   5.618   5.644   7.622 -0.3770  0.4222 -0.1370
   78SLPC   H8X 7172   5.595   5.752   7.635  0.1323  0.4881  0.2154
   78SLPC   H8Y 7173   5.727   5.630   7.609 -0.3030 -0.7687  1.3787
   78SLPC   C39 7174   5.568   5.577   7.757 -1.1948  0.3922 -0.0093
   78SLPC   H9X 7175   5.567   5.466   7.744  0.4362  0.4476 -0.8390
   78SLPC   H9Y 7176   5.463   5.601   7.784 -0.8973 -0.3061  1.9448
   78SLPC  C310 7177   5.658   5.624   7.874 -0.2500  0.0284 -0.2257
   78SLPC  H10X 7178   5.650   5.735   7.880 -1.6984 -0.1255  2.3941
   78SLPC  H10Y 7179   5.767   5.603   7.861  0.2001  0.8198  1.7777
   78SLPC  C311 7180   5.622   5.553   7.999  0.2808  0.2404 -0.0690
   78SLPC  H11X 7181   5.610   5.445   7.979  4.0166 -0.0944 -1.4249
   78SLPC  H11Y 7182   5.518   5.583   8.023  0.9776  2.3390  0.6206
   78SLPC  C312 7183   5.712   5.563   8.125  0.2142 -0.3386  0.3476
   78SLPC  H12X 7184   5.739   5.669   8.146 -0.0278  0.4180 -2.6544
   78SLPC  H12Y 7185   5.804   5.508   8.096  0.2562  0.0620 -0.2901
   78SLPC  C313 7186   5.661   5.487   8.247  0.0921 -0.5406  0.4479
   78SLPC  H13X 7187   5.671   5.379   8.219  0.8931 -0.1420 -0.8900
   78SLPC  H13Y 7188   5.554   5.513   8.261  0.2226  0.8290 -0.8302
   78SLPC  C314 7189   5.737   5.515   8.376  0.0373 -0.1583  0.4514
   78SLPC  H14X 7190   5.737   5.623   8.400 -0.0034 -0.0949  0.1656
   78SLPC  H14Y 7191   5.841   5.483   8.353 -0.4684 -0.7879 -1.0960
   78SLPC  C315 7192   5.702   5.438   8.502  0.0320  0.4249 -0.1825
   78SLPC  H15X 7193   5.658   5.338   8.481  3.3625 -1.5050  1.2172
   78SLPC  H15Y 7194   5.612   5.494   8.534 -0.5836 -0.7484  0.2001
   78SLPC  C316 7195   5.811   5.439   8.617  0.2258  0.6640  0.4085
   78SLPC  H16X 7196   5.909   5.393   8.592  0.0843  0.7435 -0.3139
   78SLPC  H16Y 7197   5.768   5.367   8.690  1.3177 -0.2568  0.1776
   78SLPC  C317 7198   5.812   5.580   8.681 -0.6897  0.3607 -0.1331
   78SLPC  H17X 7199   5.712   5.620   8.707 -0.5045 -0.0043  1.2546
   78SLPC  H17Y 7200   5.849   5.652   8.605  0.0251 -0.0233 -0.1603
   78SLPC  C318 7201   5.900   5.597   8.805  0.4834 -0.4211  0.7192
   78SLPC  H18X 7202   6.010   5.597   8.787  0.5417 -1.0372  1.0373
   78SLPC  H18Y 7203   5.884   5.500   8.857 -1.5238 -1.2320 -1.2658
   78SLPC  H18Z 7204   5.868   5.678   8.874 -0.3582  0.9295 -1.2031
   79SLPC     N 7205   3.751   0.950   6.358  0.1711 -0.0155  0.0031
   79SLPC   C13 7206   3.835   0.953   6.484  0.4700 -0.1091  0.6641
   79SLPC  H13A 7207   3.851   0.849   6.511  0.7142 -0.6729 -1.5026
   79SLPC  H13B 7208   3.927   1.004   6.461  0.5911 -0.2656  0.7985
   79SLPC  H13C 7209   3.772   0.991   6.563  0.3695 -0.1675  0.6118
   79SLPC   C14 7210   3.808   0.848   6.260  0.3098 -0.6408 -0.6609
   79SLPC  H14A 7211   3.750   0.818   6.174 -1.2804  0.6635 -0.0941
   79SLPC  H14B 7212   3.903   0.887   6.229 -0.2638  2.0226  0.6865
   79SLPC  H14C 7213   3.827   0.758   6.316  1.2926 -1.3799 -2.1193
   79SLPC   C15 7214   3.754   1.091   6.297  0.0417  0.3714  0.4585
   79SLPC  H15A 7215   3.699   1.086   6.204  0.8943  0.9455 -0.0860
   79SLPC  H15B 7216   3.711   1.157   6.371 -1.5370  0.4245 -0.4738
   79SLPC  H15C 7217   3.855   1.115   6.268  0.9303 -1.1250  2.0628
   79SLPC   C12 7218   3.612   0.915   6.377  0.5635  0.1465  1.1567
   79SLPC  H12A 7219   3.613   0.815   6.418 -2.2113  0.0795  1.2753
   79SLPC  H12B 7220   3.552   0.920   6.288 -2.2780  0.2841  2.9604
   79SLPC   C11 7221   3.531   1.002   6.471  0.0709 -0.6474  0.1849
   79SLPC  H11A 7222   3.590   1.044   6.556 -0.6414  1.9070 -0.4837
   79SLPC  H11B 7223   3.451   0.941   6.518 -0.4559  0.7071  1.1001
   79SLPC     P 7224   3.337   1.109   6.330  0.5402  0.1358  0.2368
   79SLPC   O13 7225   3.288   1.248   6.325 -0.1125  0.2820 -0.0477
   79SLPC   O14 7226   3.344   1.040   6.201  0.0570  0.1840  0.0806
   79SLPC   O12 7227   3.474   1.107   6.405 -0.0156  0.3559  0.5164
   79SLPC   O11 7228   3.237   1.019   6.420  0.3988  0.3756 -0.4793
   79SLPC    C1 7229   3.155   1.074   6.520 -0.1521  0.0988 -0.4614
   79SLPC    HA 7230   3.150   1.184   6.518 -0.2908  0.1182  0.4417
   79SLPC    HB 7231   3.052   1.041   6.495 -0.2205 -0.0547  0.0168
   79SLPC    C2 7232   3.192   1.033   6.667  0.1870 -0.8411 -0.3423
   79SLPC    HS 7233   3.128   1.081   6.744 -3.0256 -2.0494 -2.0330
   79SLPC   O21 7234   3.325   1.063   6.699 -0.6819  0.0649  0.1684
   79SLPC   C21 7235   3.352   1.187   6.725  0.1624 -0.1367 -0.2679
   79SLPC   O22 7236   3.273   1.280   6.718 -0.5185 -0.1962 -0.2679
   79SLPC   C22 7237   3.495   1.194   6.762 -0.1088  0.8614 -0.9621
   79SLPC   H2R 7238   3.543   1.098   6.788  1.2141  1.1013 -2.4130
   79SLPC   H2S 7239   3.555   1.236   6.679  2.5014  0.3317  0.5550
   79SLPC    C3 7240   3.170   0.878   6.693 -0.9192 -0.5240  0.4009
   79SLPC    HX 7241   3.231   0.838   6.609  1.0621  2.1146  0.4453
   79SLPC    HY 7242   3.063   0.857   6.674 -1.0972  0.6573  0.0565
   79SLPC   O31 7243   3.229   0.822   6.814 -0.8364 -0.5907 -0.0016
   79SLPC   C31 7244   3.148   0.816   6.913  0.9189 -0.7384  0.1423
   79SLPC   O32 7245   3.040   0.873   6.913  0.2902  0.3990  0.2679
   79SLPC   C32 7246   3.206   0.730   7.026  0.3580 -0.0826 -0.4584
   79SLPC   H2X 7247   3.275   0.793   7.085 -1.6088  2.8124 -1.0496
   79SLPC   H2Y 7248   3.277   0.660   6.976 -0.0001 -1.1530  0.4800
   79SLPC   C23 7249   3.499   1.283   6.889 -0.6484 -0.4691  0.5422
   79SLPC   H3R 7250   3.466   1.388   6.878  0.6531  0.1015  1.7386
   79SLPC   H3S 7251   3.606   1.287   6.919 -0.4210  0.9096 -0.3382
   79SLPC   C24 7252   3.431   1.216   7.008 -0.2995 -0.0414 -0.3615
   79SLPC   H4R 7253   3.323   1.206   6.982 -0.4281  1.6060 -0.5413
   79SLPC   H4S 7254   3.440   1.290   7.090  0.9002 -1.4555  0.8182
   79SLPC   C25 7255   3.494   1.086   7.056 -0.2423 -0.0221  0.6826
   79SLPC   H5R 7256   3.604   1.100   7.054  0.1377 -2.0315 -3.5188
   79SLPC   H5S 7257   3.481   1.006   6.980  0.5471  0.8773 -0.4368
   79SLPC   C26 7258   3.448   1.047   7.197 -0.2992  0.5165  0.0391
   79SLPC   H6R 7259   3.340   1.027   7.182  0.4124 -3.3254 -1.1096
   79SLPC   H6S 7260   3.465   1.130   7.268 -0.8423 -1.1856  2.3037
   79SLPC   C27 7261   3.521   0.911   7.243  0.0289 -0.1367 -0.0671
   79SLPC   H7R 7262   3.467   0.822   7.203 -0.6689  0.0629  0.4309
   79SLPC   H7S 7263   3.507   0.895   7.352  0.8811 -0.2689  0.0327
   79SLPC   C28 7264   3.666   0.907   7.204 -1.4087  0.3029  0.1113
   79SLPC   H8R 7265   3.710   1.006   7.228 -2.5764  0.5337  1.4522
   79SLPC   H8S 7266   3.677   0.887   7.096 -0.4617 -2.2106  0.5941
   79SLPC   C29 7267   3.740   0.803   7.276 -1.0803  0.3648  0.0239
   79SLPC   H9R 7268   3.744   0.710   7.217 -0.2127 -0.5066  1.3772
   79SLPC  C210 7269   3.813   0.816   7.385 -0.4636  0.5242  0.2831
   79SLPC  H10R 7270   3.840   0.719   7.428 -0.8896  0.3799  0.2312
   79SLPC  C211 7271   3.826   0.936   7.475 -0.7726 -0.5826  0.4078
   79SLPC  H11R 7272   3.818   0.901   7.579 -1.6527 -1.5244  0.0361
   79SLPC  H11S 7273   3.739   1.003   7.457  0.3355  0.6365 -0.6046
   79SLPC  C212 7274   3.953   1.014   7.453 -0.7730 -0.3546 -0.6201
   79SLPC  H12R 7275   3.973   1.068   7.360  1.1710  0.4359  0.1986
   79SLPC  C213 7276   4.047   1.037   7.548  0.0683  0.1812 -0.0428
   79SLPC  H13R 7277   4.131   1.097   7.510 -1.4336  0.5428 -3.1223
   79SLPC  C214 7278   4.044   0.981   7.690  0.3980 -0.7497  0.9228
   79SLPC  H14R 7279   4.145   0.994   7.734  1.1082 -0.3185 -0.7464
   79SLPC  H14S 7280   4.015   0.873   7.697 -1.4185 -0.3114  0.7142
   79SLPC  C215 7281   3.954   1.061   7.782  0.4313  0.3992 -0.7381
   79SLPC  H15R 7282   3.846   1.041   7.763  0.1254  1.7389 -0.4716
   79SLPC  H15S 7283   3.965   1.170   7.765 -0.9095  0.6539 -0.0969
   79SLPC  C216 7284   3.991   1.022   7.927  1.4598 -0.4103 -0.1116
   79SLPC  H16R 7285   4.059   0.935   7.917 -0.7718 -2.0569 -2.7678
   79SLPC  H16S 7286   3.895   0.988   7.972  0.0887  2.8198 -0.2912
   79SLPC  C217 7287   4.053   1.136   8.011  0.0349 -0.1461  0.5756
   79SLPC  H17R 7288   4.134   1.178   7.946  0.6011 -0.3371  1.1497
   79SLPC  H17S 7289   4.090   1.072   8.093  1.5579 -0.2866 -0.1844
   79SLPC  C218 7290   3.966   1.251   8.063  0.3482  0.2481  0.1626
   79SLPC  H18R 7291   4.035   1.328   8.103  0.9946 -0.1676 -0.1383
   79SLPC  H18S 7292   3.892   1.217   8.139  0.4053 -0.7006 -0.1966
   79SLPC  H18T 7293   3.901   1.292   7.983  2.4032 -0.5512 -2.0363
   79SLPC   C33 7294   3.110   0.648   7.114 -0.3086 -0.6392 -0.4525
   79SLPC   H3X 7295   3.073   0.563   7.052  0.5316 -0.9771 -0.5117
   79SLPC   H3Y 7296   3.039   0.728   7.141  2.1613  1.7374 -0.5534
   79SLPC   C34 7297   3.180   0.589   7.236  0.0682 -0.3632  0.5080
   79SLPC   H4X 7298   3.219   0.658   7.314  2.2435 -2.2121  1.1863
   79SLPC   H4Y 7299   3.264   0.530   7.193 -1.6456 -2.0998 -0.6327
   79SLPC   C35 7300   3.097   0.481   7.306  0.1698  0.2871  0.2990
   79SLPC   H5X 7301   3.066   0.402   7.234 -1.9145 -0.8055  2.2745
   79SLPC   H5Y 7302   3.010   0.531   7.353  0.4337 -0.4097  1.5657
   79SLPC   C36 7303   3.166   0.407   7.422  0.1275 -0.3486  0.0663
   79SLPC   H6X 7304   3.252   0.352   7.377 -0.1450 -0.2049 -0.6355
   79SLPC   H6Y 7305   3.090   0.348   7.476 -0.7996  0.0135 -0.8151
   79SLPC   C37 7306   3.223   0.503   7.527  0.5493  0.2016 -0.3323
   79SLPC   H7X 7307   3.142   0.567   7.568  0.2948  0.0178 -0.5438
   79SLPC   H7Y 7308   3.311   0.561   7.493  3.3460 -1.9028  2.6751
   79SLPC   C38 7309   3.268   0.417   7.642  0.6036 -0.4048 -0.2372
   79SLPC   H8X 7310   3.349   0.351   7.603  0.9810  0.9392 -1.8069
   79SLPC   H8Y 7311   3.189   0.361   7.697 -1.0487  2.7194  0.7875
   79SLPC   C39 7312   3.326   0.516   7.746  0.9427  0.5207 -0.4809
   79SLPC   H9X 7313   3.260   0.606   7.742 -2.2487 -1.6662 -0.8557
   79SLPC   H9Y 7314   3.432   0.540   7.723  0.8171  1.9283  0.2527
   79SLPC  C310 7315   3.323   0.476   7.898  0.7175 -0.0069 -0.2264
   79SLPC  H10X 7316   3.401   0.529   7.957  1.5167 -1.3265 -0.0586
   79SLPC  H10Y 7317   3.359   0.371   7.911  0.6088 -0.0406 -0.2017
   79SLPC  C311 7318   3.189   0.478   7.972  0.5627  0.0266 -0.0473
   79SLPC  H11X 7319   3.119   0.398   7.941  0.2863 -0.5440  1.8865
   79SLPC  H11Y 7320   3.143   0.575   7.944  0.9449  0.4598  0.7577
   79SLPC  C312 7321   3.198   0.471   8.122 -0.3233 -0.0130  0.2151
   79SLPC  H12X 7322   3.286   0.530   8.155  0.6757 -0.8363 -0.9162
   79SLPC  H12Y 7323   3.194   0.362   8.141  0.1153  0.0581  0.7404
   79SLPC  C313 7324   3.087   0.541   8.197 -0.2333  0.3222 -0.1796
   79SLPC  H13X 7325   2.989   0.507   8.156  0.4312 -2.2433  0.2434
   79SLPC  H13Y 7326   3.093   0.649   8.170  0.8742  0.3129 -0.0054
   79SLPC  C314 7327   3.089   0.522   8.354 -0.6044  0.4719  0.3735
   79SLPC  H14X 7328   3.192   0.544   8.393 -1.0288  0.6828  1.4159
   79SLPC  H14Y 7329   3.065   0.415   8.368  2.9270 -0.3288  1.2845
   79SLPC  C315 7330   2.995   0.615   8.436 -0.2321 -0.8548 -0.0483
   79SLPC  H15X 7331   3.027   0.721   8.425  1.0295 -0.9593  2.0183
   79SLPC  H15Y 7332   3.006   0.578   8.540  1.0854 -3.6720 -1.0961
   79SLPC  C316 7333   2.849   0.588   8.394  0.8700  0.3430 -0.3647
   79SLPC  H16X 7334   2.825   0.481   8.411 -1.3145  0.7819 -0.4928
   79SLPC  H16Y 7335   2.848   0.598   8.284  3.9963  1.1972 -0.4127
   79SLPC  C317 7336   2.749   0.667   8.471  0.6285  0.2186  0.2424
   79SLPC  H17X 7337   2.649   0.626   8.443 -0.3400  0.6874  2.7236
   79SLPC  H17Y 7338   2.739   0.769   8.429 -0.0105  0.1008  0.0954
   79SLPC  C318 7339   2.759   0.657   8.622  0.7064 -0.7849  0.2579
   79SLPC  H18X 7340   2.852   0.708   8.654 -0.6661  2.4375 -0.4645
   79SLPC  H18Y 7341   2.755   0.550   8.649 -2.0639 -1.5608 -2.5744
   79SLPC  H18Z 7342   2.677   0.711   8.674  1.9062  0.2433  1.1475
   80SLPC     N 7343   4.669   1.166   6.330  0.2367  0.4212 -0.0662
   80SLPC   C13 7344   4.630   1.225   6.466  0.2568 -0.2752  0.5830
   80SLPC  H13A 7345   4.709   1.282   6.512 -0.9761  1.0114  1.1947
   80SLPC  H13B 7346   4.547   1.292   6.446  0.2984 -0.6834 -1.1298
   80SLPC  H13C 7347   4.588   1.153   6.534  0.0332 -1.8949 -1.1945
   80SLPC   C14 7348   4.716   1.268   6.228 -0.1632  0.7458  0.1708
   80SLPC  H14A 7349   4.748   1.209   6.143 -0.5324 -0.0509  0.5678
   80SLPC  H14B 7350   4.635   1.334   6.200  2.2313  3.7880 -0.0448
   80SLPC  H14C 7351   4.801   1.322   6.266  0.8991 -1.0337  0.4644
   80SLPC   C15 7352   4.561   1.091   6.266  0.4318 -0.1072 -0.6299
   80SLPC  H15A 7353   4.596   1.063   6.168  0.1813 -1.4854 -0.3433
   80SLPC  H15B 7354   4.548   1.008   6.333  3.7749  0.2462  0.6475
   80SLPC  H15C 7355   4.478   1.160   6.256  0.3881 -0.1163 -0.3168
   80SLPC   C12 7356   4.779   1.060   6.371  1.0127  0.0960 -0.1294
   80SLPC  H12A 7357   4.868   1.108   6.408 -0.0012  0.9285  1.3378
   80SLPC  H12B 7358   4.802   1.002   6.283  2.0960 -0.8028  0.7239
   80SLPC   C11 7359   4.758   0.939   6.473  0.6075  0.6183 -0.2213
   80SLPC  H11A 7360   4.693   0.981   6.553  2.7374 -0.0226  1.9755
   80SLPC  H11B 7361   4.861   0.924   6.510  0.6155  0.2855 -0.3671
   80SLPC     P 7362   4.575   0.759   6.465 -0.3556 -0.3267  0.0009
   80SLPC   O13 7363   4.471   0.858   6.486 -0.2794 -0.2301  0.0686
   80SLPC   O14 7364   4.532   0.652   6.378  0.0121  0.6546  0.5808
   80SLPC   O12 7365   4.702   0.832   6.406  0.0052 -0.5959  0.3952
   80SLPC   O11 7366   4.626   0.712   6.602  0.7158 -0.0358 -0.0144
   80SLPC    C1 7367   4.709   0.596   6.620 -0.6844 -0.0876 -0.1781
   80SLPC    HA 7368   4.653   0.501   6.630  3.3136 -2.6442  0.0613
   80SLPC    HB 7369   4.788   0.595   6.542 -0.9178 -0.1510 -0.4130
   80SLPC    C2 7370   4.795   0.607   6.752  0.1761  0.1715 -0.6196
   80SLPC    HS 7371   4.856   0.514   6.755  0.0757  0.0882 -1.0503
   80SLPC   O21 7372   4.711   0.634   6.870 -0.2706 -0.4794 -0.3922
   80SLPC   C21 7373   4.638   0.530   6.901 -0.7084  0.1592 -0.0882
   80SLPC   O22 7374   4.632   0.426   6.838 -0.4012 -0.1752  0.0454
   80SLPC   C22 7375   4.558   0.554   7.026 -0.3898  0.2759 -0.0144
   80SLPC   H2R 7376   4.550   0.664   7.038 -0.3051  0.1215  1.7049
   80SLPC   H2S 7377   4.456   0.514   7.006 -0.5833  0.6475  0.2272
   80SLPC    C3 7378   4.903   0.725   6.740  0.7814  0.4278  0.1011
   80SLPC    HX 7379   4.848   0.813   6.701  0.9565  0.5042  0.0281
   80SLPC    HY 7380   4.977   0.710   6.658  0.3537  1.3952 -0.4729
   80SLPC   O31 7381   4.958   0.765   6.868 -0.5203 -0.1101 -0.2903
   80SLPC   C31 7382   5.052   0.666   6.898  0.7047 -0.6350  0.7063
   80SLPC   O32 7383   5.083   0.571   6.832 -0.2027 -0.6349  0.1987
   80SLPC   C32 7384   5.115   0.685   7.035 -0.4628 -0.1333 -0.2601
   80SLPC   H2X 7385   5.190   0.768   7.041 -0.7412  0.0453  3.6010
   80SLPC   H2Y 7386   5.173   0.594   7.062  1.7194  0.4010 -2.7132
   80SLPC   C23 7387   4.622   0.479   7.140 -0.5039  0.3351 -0.6420
   80SLPC   H3R 7388   4.733   0.486   7.142 -0.3250 -1.8882 -0.3465
   80SLPC   H3S 7389   4.604   0.370   7.142  0.3716  0.1662 -1.3766
   80SLPC   C24 7390   4.556   0.520   7.271  0.7735  0.0963 -1.1112
   80SLPC   H4R 7391   4.450   0.488   7.276  0.9174 -0.3097 -0.4090
   80SLPC   H4S 7392   4.558   0.631   7.274 -2.0325  0.1856  0.0546
   80SLPC   C25 7393   4.633   0.484   7.404  0.2299  0.6009  0.0128
   80SLPC   H5R 7394   4.731   0.532   7.387  0.1364  1.5642  1.9247
   80SLPC   H5S 7395   4.644   0.374   7.414  0.9809  0.6338 -0.3798
   80SLPC   C26 7396   4.581   0.566   7.528 -0.4533 -0.2026 -0.5202
   80SLPC   H6R 7397   4.478   0.529   7.551 -0.8407 -0.0275 -1.8518
   80SLPC   H6S 7398   4.563   0.673   7.504  2.2725  0.5063  0.2648
   80SLPC   C27 7399   4.676   0.547   7.649  0.3402 -0.8520  0.1491
   80SLPC   H7R 7400   4.641   0.618   7.727  0.8512 -0.5532  0.1122
   80SLPC   H7S 7401   4.781   0.575   7.623 -0.2753  1.3876 -0.1548
   80SLPC   C28 7402   4.670   0.400   7.696 -0.0650  0.1890 -0.3803
   80SLPC   H8R 7403   4.741   0.404   7.782 -2.5264  1.0370  1.7506
   80SLPC   H8S 7404   4.703   0.318   7.629 -1.5047 -1.3878  0.7436
   80SLPC   C29 7405   4.533   0.353   7.745 -0.7386  0.2772 -0.2524
   80SLPC   H9R 7406   4.453   0.358   7.670 -2.1999  0.6546  1.2746
   80SLPC  C210 7407   4.505   0.300   7.863 -1.1269  0.1442 -0.0300
   80SLPC  H10R 7408   4.399   0.284   7.887 -0.8085 -0.6551  0.9108
   80SLPC  C211 7409   4.606   0.280   7.977 -0.5291  0.3265 -0.7200
   80SLPC  H11R 7410   4.713   0.292   7.948  0.0373 -1.0215  0.6537
   80SLPC  H11S 7411   4.599   0.174   8.011 -2.2661  0.1479 -1.5369
   80SLPC  C212 7412   4.586   0.363   8.098 -0.7071 -0.2362 -0.6204
   80SLPC  H12R 7413   4.625   0.465   8.103  2.3822 -1.3673  1.4905
   80SLPC  C213 7414   4.543   0.316   8.213 -0.3389  0.3313 -0.3196
   80SLPC  H13R 7415   4.536   0.385   8.299  1.8735 -0.6744  0.7299
   80SLPC  C214 7416   4.512   0.178   8.253 -0.1886  0.1469 -0.1827
   80SLPC  H14R 7417   4.590   0.128   8.314 -2.4222 -1.1039  1.8452
   80SLPC  H14S 7418   4.498   0.115   8.162  2.1403 -0.4107 -0.2011
   80SLPC  C215 7419   4.380   0.171   8.331  0.3528  0.0301  0.0885
   80SLPC  H15R 7420   4.392   0.211   8.434  2.2679 -0.5232  0.1174
   80SLPC  H15S 7421   4.356   0.066   8.355  0.0973 -0.3100 -1.5923
   80SLPC  C216 7422   4.259   0.236   8.266 -0.4632 -0.3741  0.1104
   80SLPC  H16R 7423   4.281   0.345   8.258 -1.1972 -0.1844  0.5761
   80SLPC  H16S 7424   4.177   0.227   8.340 -0.6229  0.2930  0.0246
   80SLPC  C217 7425   4.210   0.181   8.131 -0.8149 -0.1825  0.9981
   80SLPC  H17R 7426   4.157   0.085   8.148  0.1631 -1.1864 -1.2237
   80SLPC  H17S 7427   4.294   0.162   8.060 -0.5516  2.4547  0.4834
   80SLPC  C218 7428   4.115   0.272   8.064  0.6853 -0.2183  0.3047
   80SLPC  H18R 7429   4.053   0.319   8.143 -0.6158 -1.2112 -0.0913
   80SLPC  H18S 7430   4.047   0.224   7.990 -0.7056  2.1725 -0.0744
   80SLPC  H18T 7431   4.170   0.349   8.006 -0.6038  0.0499 -0.6152
   80SLPC   C33 7432   5.000   0.695   7.148  0.3259 -0.1728  0.4611
   80SLPC   H3X 7433   4.938   0.603   7.162  1.9966 -1.0971  2.2630
   80SLPC   H3Y 7434   4.940   0.784   7.120  0.1966  0.3467  2.2407
   80SLPC   C34 7435   5.066   0.736   7.286  0.0591 -0.5155 -0.2733
   80SLPC   H4X 7436   5.126   0.826   7.262  1.0812 -1.0921  0.0572
   80SLPC   H4Y 7437   5.135   0.659   7.328 -2.6201 -1.9370  1.9221
   80SLPC   C35 7438   4.957   0.756   7.392  0.3215 -0.2663  0.1511
   80SLPC   H5X 7439   4.894   0.668   7.414  1.6549 -1.3292 -0.1258
   80SLPC   H5Y 7440   4.880   0.831   7.362 -0.0159 -0.6676  0.0017
   80SLPC   C36 7441   5.030   0.803   7.523 -0.1103 -0.0302 -0.7971
   80SLPC   H6X 7442   5.074   0.903   7.503  1.5557 -0.5566  0.0463
   80SLPC   H6Y 7443   5.107   0.730   7.557  0.2706  0.7431  0.0290
   80SLPC   C37 7444   4.928   0.823   7.638  0.1310  0.0520  0.5340
   80SLPC   H7X 7445   4.876   0.731   7.672  2.9136 -1.1664  1.8084
   80SLPC   H7Y 7446   4.852   0.895   7.602  0.7987  0.8502  0.6808
   80SLPC   C38 7447   4.990   0.882   7.766  0.0788 -0.0268  0.4964
   80SLPC   H8X 7448   5.055   0.964   7.727 -0.2318  0.1098  0.2596
   80SLPC   H8Y 7449   5.050   0.797   7.806 -0.5090  0.2513  2.0378
   80SLPC   C39 7450   4.889   0.940   7.865 -0.4396 -0.2025 -0.6351
   80SLPC   H9X 7451   4.839   1.028   7.819 -1.5429 -0.3764  0.1863
   80SLPC   H9Y 7452   4.945   0.972   7.955 -1.4528 -1.2568  0.3947
   80SLPC  C310 7453   4.799   0.834   7.914  0.5252 -1.1019  0.0700
   80SLPC  H10X 7454   4.862   0.743   7.919  1.2214 -0.6383 -0.0811
   80SLPC  H10Y 7455   4.718   0.818   7.840 -0.8694 -0.6236  1.4473
   80SLPC  C311 7456   4.730   0.880   8.045 -0.5276 -0.2867  0.2346
   80SLPC  H11X 7457   4.641   0.814   8.051 -1.0173  0.4239  1.1208
   80SLPC  H11Y 7458   4.694   0.985   8.031 -0.4484 -0.0621  1.5852
   80SLPC  C312 7459   4.808   0.889   8.182  0.0676  0.0460 -0.1905
   80SLPC  H12X 7460   4.733   0.937   8.249  0.6960  1.5605 -0.5441
   80SLPC  H12Y 7461   4.893   0.958   8.166  0.7925 -1.5085 -4.4214
   80SLPC  C313 7462   4.857   0.759   8.243  0.4423  0.4822 -0.1055
   80SLPC  H13X 7463   4.947   0.781   8.305  1.1745  0.6162 -1.1937
   80SLPC  H13Y 7464   4.887   0.689   8.162 -1.7234 -0.3695 -0.2458
   80SLPC  C314 7465   4.756   0.682   8.321 -0.3369 -0.4992 -0.3086
   80SLPC  H14X 7466   4.685   0.648   8.243  0.2173  1.8148 -1.9303
   80SLPC  H14Y 7467   4.712   0.760   8.388  3.2874  1.2161  0.3359
   80SLPC  C315 7468   4.813   0.567   8.405 -0.0529 -0.1952  0.7291
   80SLPC  H15X 7469   4.897   0.606   8.467  2.5413  0.3074 -2.8028
   80SLPC  H15Y 7470   4.868   0.500   8.336 -0.8962  1.0403 -1.2186
   80SLPC  C316 7471   4.709   0.502   8.496  0.1642 -0.0216 -0.3054
   80SLPC  H16X 7472   4.608   0.507   8.451  0.8100  1.0066 -1.7130
   80SLPC  H16Y 7473   4.708   0.567   8.586  0.5627 -0.4080 -0.0195
   80SLPC  C317 7474   4.743   0.354   8.538 -0.3701  0.2622  0.0741
   80SLPC  H17X 7475   4.774   0.294   8.450 -1.1870 -2.9590  1.8172
   80SLPC  H17Y 7476   4.649   0.312   8.579  0.6562 -2.2382  0.0852
   80SLPC  C318 7477   4.845   0.327   8.649  0.3760  0.0737  0.6145
   80SLPC  H18X 7478   4.950   0.354   8.622 -0.4567  0.2840 -2.9112
   80SLPC  H18Y 7479   4.819   0.225   8.683 -3.3075  0.5382 -0.4010
   80SLPC  H18Z 7480   4.812   0.385   8.737  0.3734 -0.9337  1.2889
   81SAPS     N 7481   4.999   1.738  10.907 -0.2015  0.6343 -0.4144
   81SAPS   HN1 7482   5.046   1.830  10.911 -1.8459  1.5398 -0.7923
   81SAPS   HN2 7483   4.981   1.711  10.808  0.0983 -1.2426  0.0066
   81SAPS   HN3 7484   4.910   1.746  10.961  1.2773  0.0914  2.2449
   81SAPS   C12 7485   5.073   1.625  10.971 -0.5788  0.7695  0.9328
   81SAPS  H12A 7486   5.112   1.666  11.062  1.4485 -1.3026  1.1018
   81SAPS   C13 7487   4.982   1.507  11.000  0.8580  0.2930  0.8263
   81SAPS  O13A 7488   4.867   1.499  10.948  0.4951 -0.0344  0.2539
   81SAPS  O13B 7489   5.033   1.404  11.055  0.1612  0.1520  0.1874
   81SAPS   C11 7490   5.190   1.588  10.878  0.3303  1.2014  0.2940
   81SAPS  H11A 7491   5.155   1.582  10.773  1.4976  1.6734 -0.1448
   81SAPS  H11B 7492   5.218   1.483  10.900  0.2393  1.0802 -0.1713
   81SAPS     P 7493   5.425   1.661  10.980  0.2101  0.3820  0.2039
   81SAPS   O13 7494   5.493   1.789  10.985  0.2170 -0.3808 -0.4784
   81SAPS   O14 7495   5.383   1.593  11.107  0.0247 -0.1166 -0.1108
   81SAPS   O12 7496   5.302   1.675  10.880 -0.2112 -0.0308  0.2617
   81SAPS   O11 7497   5.522   1.563  10.905  0.8756  0.3748 -1.0502
   81SAPS    C1 7498   5.516   1.536  10.766 -0.6828 -0.1070 -0.4696
   81SAPS    HA 7499   5.590   1.458  10.742  0.5635 -0.1296  2.9676
   81SAPS    HB 7500   5.416   1.507  10.726  0.0400  0.8470 -3.1841
   81SAPS    C2 7501   5.566   1.656  10.680 -0.1822  0.3585  0.0447
   81SAPS    HS 7502   5.610   1.732  10.748  0.6895 -0.1557  0.0755
   81SAPS   O21 7503   5.456   1.704  10.608 -0.2014 -0.5734 -0.2437
   81SAPS   C21 7504   5.472   1.831  10.574 -0.4266  0.6995 -0.1606
   81SAPS   O22 7505   5.564   1.901  10.620  0.4882  0.2299  0.1939
   81SAPS   C22 7506   5.369   1.885  10.476 -0.4990  0.2041 -0.5260
   81SAPS   H2R 7507   5.430   1.950  10.411  1.2938  0.5148  1.3679
   81SAPS   H2S 7508   5.324   1.800  10.420  0.8720 -0.5407 -0.5251
   81SAPS    C3 7509   5.676   1.611  10.575  0.2988  0.7132  0.1873
   81SAPS    HX 7510   5.612   1.557  10.503 -1.5149  2.9528  0.0167
   81SAPS    HY 7511   5.751   1.546  10.626  0.3335  1.2664  0.8615
   81SAPS   O31 7512   5.750   1.727  10.515 -0.1426  0.0686 -0.9354
   81SAPS   C31 7513   5.724   1.744  10.387 -0.1428 -0.4076 -0.3958
   81SAPS   O32 7514   5.649   1.674  10.320  0.2233  0.1436 -0.0687
   81SAPS   C32 7515   5.793   1.866  10.329  0.4668 -0.3907 -0.2966
   81SAPS   H2X 7516   5.902   1.844  10.321  1.1921  2.5482  0.2128
   81SAPS   H2Y 7517   5.797   1.946  10.407  1.6781 -0.7993  0.0814
   81SAPS   C23 7518   5.267   1.963  10.551  0.1119  0.6985  0.1133
   81SAPS   H3R 7519   5.314   2.051  10.600  0.8862 -1.1776  3.0575
   81SAPS   H3S 7520   5.226   1.902  10.635  2.2374 -2.3128 -0.8858
   81SAPS   C24 7521   5.152   2.029  10.466  0.0159 -0.9387  0.3964
   81SAPS   H4R 7522   5.201   2.106  10.403 -1.9722  0.4774  0.4935
   81SAPS   H4S 7523   5.083   2.080  10.536 -0.3028 -0.6981 -0.0856
   81SAPS   C25 7524   5.076   1.925  10.383  0.6757  0.1838 -0.5899
   81SAPS   H5R 7525   4.992   1.878  10.436  0.3501  0.1501 -1.1284
   81SAPS   C26 7526   5.076   1.909  10.251  0.1958 -0.3297 -0.3071
   81SAPS   H6R 7527   5.030   1.816  10.215 -2.7744  1.7684 -2.4290
   81SAPS   C27 7528   5.163   1.977  10.147  0.0183  0.4711  0.0759
   81SAPS   H7R 7529   5.190   2.078  10.185 -1.8135  0.2456  2.2062
   81SAPS   H7S 7530   5.101   2.003  10.060  0.7438 -0.1086 -0.6323
   81SAPS   C28 7531   5.290   1.909  10.106 -0.0472 -0.9996  0.5886
   81SAPS   H8R 7532   5.352   1.867  10.187 -0.1604 -2.9036 -0.2545
   81SAPS   C29 7533   5.334   1.878   9.983  0.9859  0.4534  0.0674
   81SAPS   H9R 7534   5.429   1.821   9.980  0.5252 -0.2960 -1.1841
   81SAPS  C210 7535   5.263   1.905   9.852  0.4504  0.2200 -0.0486
   81SAPS  H10R 7536   5.167   1.962   9.852  0.7963  0.8179 -0.1322
   81SAPS  H10S 7537   5.242   1.808   9.804  0.3819  0.6800 -0.9696
   81SAPS  C211 7538   5.348   1.983   9.756 -0.6487 -0.4656  0.3401
   81SAPS  H11R 7539   5.454   1.954   9.756 -0.0339  1.3121 -3.2251
   81SAPS  C212 7540   5.311   2.059   9.651  0.1849 -0.8995 -0.3875
   81SAPS  H12R 7541   5.387   2.106   9.588 -1.5399  0.4470 -1.5749
   81SAPS  C213 7542   5.169   2.112   9.625 -0.6092 -0.0252  0.5823
   81SAPS  H13R 7543   5.169   2.199   9.555 -0.9359 -0.3294  0.1989
   81SAPS  H13S 7544   5.129   2.152   9.720 -0.0279  0.2401  0.7174
   81SAPS  C214 7545   5.080   2.005   9.575  0.4415 -0.2747  0.0136
   81SAPS  H14R 7546   4.988   1.992   9.633  1.1789 -0.7017  1.1256
   81SAPS  C215 7547   5.090   1.938   9.457  0.7543 -0.7928 -1.0385
   81SAPS  H15R 7548   4.999   1.880   9.436 -0.0631  0.8141 -2.1007
   81SAPS  C216 7549   5.199   1.951   9.355 -0.4377 -0.1705  0.5892
   81SAPS  H16R 7550   5.284   1.900   9.405 -0.6273 -1.4727 -0.3622
   81SAPS  H16S 7551   5.226   2.058   9.340  0.2708  0.1559  3.6077
   81SAPS  C217 7552   5.170   1.879   9.219  0.1209 -0.0483 -0.3741
   81SAPS  H17R 7553   5.143   1.774   9.243 -1.5726  0.5501  0.5251
   81SAPS  H17S 7554   5.258   1.882   9.152  0.7746  1.5888  0.5010
   81SAPS  C218 7555   5.066   1.954   9.139 -0.1536 -0.3272  0.0589
   81SAPS  H18R 7556   5.093   2.061   9.143 -0.9012 -0.1240 -0.2423
   81SAPS  H18S 7557   4.966   1.944   9.187  0.7562 -1.1167  1.9057
   81SAPS  C219 7558   5.067   1.919   8.989  0.4443 -0.3172 -0.4405
   81SAPS  H19R 7559   5.166   1.886   8.951 -0.2602 -0.8703 -1.8453
   81SAPS  H19S 7560   5.036   2.005   8.927 -0.7369  0.3180  0.9756
   81SAPS  C220 7561   4.962   1.813   8.958  0.1807 -0.1243  0.6767
   81SAPS  H20R 7562   4.855   1.824   8.985 -0.9569 -3.3323 -1.8082
   81SAPS  H20S 7563   4.989   1.715   9.004 -3.8633 -1.6544  0.2266
   81SAPS  H20T 7564   4.948   1.786   8.851 -1.5056 -2.0180  1.2992
   81SAPS   C33 7565   5.733   1.896  10.191  0.3230 -0.0862 -0.0553
   81SAPS   H3X 7566   5.626   1.921  10.209  0.3223 -0.6464  0.7817
   81SAPS   H3Y 7567   5.730   1.817  10.113 -0.5506  0.4229 -0.5568
   81SAPS   C34 7568   5.780   2.034  10.130 -0.2400  0.0615  0.0991
   81SAPS   H4X 7569   5.890   2.038  10.118 -0.2142 -0.8159 -0.0037
   81SAPS   H4Y 7570   5.752   2.112  10.204 -0.8601 -2.2839  2.5086
   81SAPS   C35 7571   5.705   2.065   9.998  0.1964  0.0710 -0.2256
   81SAPS   H5X 7572   5.734   2.165   9.958 -1.8702  0.6182 -0.4644
   81SAPS   H5Y 7573   5.601   2.087  10.030  1.3153  0.1643  3.9342
   81SAPS   C36 7574   5.722   1.967   9.881 -0.8634 -0.2395 -0.1258
   81SAPS   H6X 7575   5.661   2.012   9.800  2.5578  0.7105 -2.3644
   81SAPS   H6Y 7576   5.662   1.875   9.898 -2.0123  0.9078  2.6265
   81SAPS   C37 7577   5.864   1.937   9.854 -0.0798 -0.1939  0.3547
   81SAPS   H7X 7578   5.910   1.876   9.935 -2.3664 -1.3654  0.8536
   81SAPS   H7Y 7579   5.929   2.028   9.849  0.8669 -0.6879  2.5638
   81SAPS   C38 7580   5.889   1.848   9.727 -0.1025 -0.4308  0.4766
   81SAPS   H8X 7581   5.857   1.747   9.758 -0.6700 -0.3132  0.2864
   81SAPS   H8Y 7582   5.997   1.847   9.702 -0.4110  0.1378 -0.9778
   81SAPS   C39 7583   5.810   1.888   9.604  0.0482  0.3469  0.5404
   81SAPS   H9X 7584   5.822   1.997   9.584 -0.7201  0.5690  1.2092
   81SAPS   H9Y 7585   5.701   1.869   9.613  0.0356 -0.5706 -1.2736
   81SAPS  C310 7586   5.842   1.810   9.473  0.6643 -0.5388  0.4868
   81SAPS  H10X 7587   5.803   1.706   9.472  2.9571 -1.4789  1.7068
   81SAPS  H10Y 7588   5.952   1.795   9.478  0.8959  0.6319 -0.6044
   81SAPS  C311 7589   5.817   1.892   9.343  0.0108 -0.6684 -0.4438
   81SAPS  H11X 7590   5.902   1.962   9.330 -0.3558  0.1020  1.0513
   81SAPS  H11Y 7591   5.719   1.942   9.362  1.1975  1.8573 -0.6106
   81SAPS  C312 7592   5.811   1.803   9.218  0.7263 -0.5286  0.0798
   81SAPS  H12X 7593   5.795   1.859   9.124  1.8854 -1.6104 -0.7914
   81SAPS  H12Y 7594   5.718   1.748   9.244  0.2044  0.4043  0.2690
   81SAPS  C313 7595   5.935   1.712   9.187 -0.2324 -0.1653  0.4419
   81SAPS  H13X 7596   5.968   1.669   9.284  1.0414 -0.2266 -0.0053
   81SAPS  H13Y 7597   6.010   1.778   9.140 -0.8808  0.5007  0.3314
   81SAPS  C314 7598   5.907   1.602   9.087 -0.3104  0.4735  0.2549
   81SAPS  H14X 7599   5.835   1.524   9.119  0.3269 -0.6648 -0.9957
   81SAPS  H14Y 7600   5.998   1.541   9.065 -2.2915 -2.2346 -0.9995
   81SAPS  C315 7601   5.868   1.660   8.957  0.6047  0.2483  0.4076
   81SAPS  H15X 7602   5.945   1.731   8.919  0.6884  0.8303  1.6075
   81SAPS  H15Y 7603   5.775   1.719   8.965  1.3078  1.4241  0.1575
   81SAPS  C316 7604   5.852   1.547   8.845 -0.3638  0.1932 -0.2437
   81SAPS  H16X 7605   5.935   1.473   8.844 -0.8426 -0.4087  1.3770
   81SAPS  H16Y 7606   5.851   1.589   8.742 -1.5668  3.7076  1.0311
   81SAPS  C317 7607   5.725   1.471   8.868  0.5194 -0.1917  0.0490
   81SAPS  H17X 7608   5.630   1.529   8.871  0.3281 -0.5298  2.0052
   81SAPS  H17Y 7609   5.730   1.421   8.968  0.8801  0.6937  0.4783
   81SAPS  C318 7610   5.697   1.371   8.752 -0.4287 -0.2202 -0.7448
   81SAPS  H18X 7611   5.611   1.306   8.776  0.7897 -2.1543 -1.3639
   81SAPS  H18Y 7612   5.789   1.310   8.739  1.0183  1.2496  1.7900
   81SAPS  H18Z 7613   5.663   1.433   8.667  0.8828  1.7199  0.0602
   82SAPS     N 7614   4.622   1.562  10.956  0.1501 -0.1123  0.2652
   82SAPS   HN1 7615   4.574   1.470  10.956 -0.5536  0.2326  1.3304
   82SAPS   HN2 7616   4.586   1.636  10.892  0.9805 -1.0112 -1.3040
   82SAPS   HN3 7617   4.722   1.535  10.944 -0.4946 -3.5990  1.5388
   82SAPS   C12 7618   4.615   1.607  11.102  1.0007  0.1365  0.4175
   82SAPS  H12A 7619   4.644   1.526  11.167  1.0172 -0.9428 -0.8806
   82SAPS   C13 7620   4.703   1.727  11.138  0.0964  0.7219 -0.3707
   82SAPS  O13A 7621   4.767   1.786  11.049 -0.0070  0.2822  0.4402
   82SAPS  O13B 7622   4.715   1.764  11.257  0.3956 -0.2869  0.2204
   82SAPS   C11 7623   4.466   1.659  11.123 -0.0646 -0.6670 -0.5714
   82SAPS  H11A 7624   4.458   1.758  11.073 -0.0135  0.3873  1.4057
   82SAPS  H11B 7625   4.459   1.672  11.233  2.2858 -0.6312 -0.3792
   82SAPS     P 7626   4.250   1.578  11.000  0.3346 -0.2594  0.0983
   82SAPS   O13 7627   4.188   1.448  10.984  0.1984  0.0462  0.1089
   82SAPS   O14 7628   4.172   1.687  11.055  0.4056  0.1186  0.1094
   82SAPS   O12 7629   4.374   1.557  11.089 -0.5955 -0.5528  0.4453
   82SAPS   O11 7630   4.307   1.635  10.861 -0.0633  0.6972  0.1819
   82SAPS    C1 7631   4.324   1.555  10.746 -0.2363  0.2238  0.4481
   82SAPS    HA 7632   4.424   1.508  10.753  0.2209  0.7954 -1.6990
   82SAPS    HB 7633   4.246   1.477  10.735 -0.4171  0.7453 -2.7385
   82SAPS    C2 7634   4.313   1.648  10.627 -0.5938 -0.4702 -0.2217
   82SAPS    HS 7635   4.388   1.728  10.649 -0.4154  0.0265 -2.4562
   82SAPS   O21 7636   4.174   1.691  10.619 -0.6314 -0.0025 -0.0408
   82SAPS   C21 7637   4.168   1.817  10.612  0.6553 -0.2303  0.1123
   82SAPS   O22 7638   4.263   1.897  10.617 -0.0204  0.4523 -0.1264
   82SAPS   C22 7639   4.028   1.858  10.583  0.5887  0.1278 -0.3569
   82SAPS   H2R 7640   3.955   1.775  10.574 -0.0662  0.7800 -1.2681
   82SAPS   H2S 7641   3.999   1.911  10.676  3.1150 -1.3602  1.4082
   82SAPS    C3 7642   4.354   1.576  10.501  0.6075  0.2556  0.1276
   82SAPS    HX 7643   4.271   1.505  10.482  0.0109  1.6049 -2.8587
   82SAPS    HY 7644   4.446   1.515  10.518  2.4036  2.6477 -0.4764
   82SAPS   O31 7645   4.373   1.665  10.392  0.5296  0.6601 -0.5425
   82SAPS   C31 7646   4.494   1.718  10.371 -0.0646 -0.3117 -0.1819
   82SAPS   O32 7647   4.588   1.684  10.442  0.1450  0.1517  0.5171
   82SAPS   C32 7648   4.495   1.800  10.243 -0.0567 -0.3592 -0.0386
   82SAPS   H2X 7649   4.431   1.881  10.281 -0.4476 -0.7337  0.1120
   82SAPS   H2Y 7650   4.448   1.727  10.172 -0.7349 -0.0417  0.0795
   82SAPS   C23 7651   4.018   1.935  10.447 -0.6171 -0.2780 -0.5244
   82SAPS   H3R 7652   4.105   2.003  10.457  1.4646 -2.9473  1.0155
   82SAPS   H3S 7653   3.921   1.987  10.456  0.5167  1.6382  2.0779
   82SAPS   C24 7654   4.042   1.844  10.326 -0.8989 -0.9544  0.4058
   82SAPS   H4R 7655   3.973   1.756  10.324 -1.5574 -0.4430 -1.8318
   82SAPS   H4S 7656   4.146   1.805  10.330  0.3246  1.1929 -3.7930
   82SAPS   C25 7657   4.018   1.920  10.194  0.4883  0.1995 -0.5019
   82SAPS   H5R 7658   4.015   2.030  10.206  1.3324  0.1974 -0.1864
   82SAPS   C26 7659   4.019   1.869  10.072  0.1317 -0.0011 -0.2350
   82SAPS   H6R 7660   4.017   1.937   9.986  1.7262  0.0562 -0.2610
   82SAPS   C27 7661   4.049   1.724  10.042 -0.0663 -0.3287 -0.6135
   82SAPS   H7R 7662   3.999   1.695   9.947 -0.5965 -1.0346 -0.1274
   82SAPS   H7S 7663   3.999   1.659  10.116  1.3323  0.0040  0.6604
   82SAPS   C28 7664   4.198   1.688  10.018 -0.2924  0.0932 -0.6314
   82SAPS   H8R 7665   4.242   1.640  10.107 -2.2447  1.3121  1.1009
   82SAPS   C29 7666   4.272   1.708   9.907  0.0788 -0.4364 -0.2803
   82SAPS   H9R 7667   4.370   1.659   9.898  1.1680  1.4043  0.8783
   82SAPS  C210 7668   4.216   1.768   9.790 -0.5077 -0.4909  0.4846
   82SAPS  H10R 7669   4.141   1.847   9.814  0.0042  0.1407  0.0367
   82SAPS  H10S 7670   4.159   1.696   9.726  2.5517 -0.9795 -1.9004
   82SAPS  C211 7671   4.322   1.835   9.708 -0.4423 -0.1873 -0.0086
   82SAPS  H11R 7672   4.393   1.884   9.778 -0.4774  1.2548 -0.9475
   82SAPS  C212 7673   4.340   1.819   9.574  0.3168 -0.3657 -0.3304
   82SAPS  H12R 7674   4.412   1.884   9.522  2.1085 -2.2871 -0.4041
   82SAPS  C213 7675   4.271   1.730   9.475  0.1937  0.0992  0.2650
   82SAPS  H13R 7676   4.294   1.624   9.501  0.5364 -0.0809 -0.7106
   82SAPS  H13S 7677   4.312   1.746   9.373 -0.2106  1.3455  0.2885
   82SAPS  C214 7678   4.121   1.728   9.450  0.7315  0.6263 -0.7431
   82SAPS  H14R 7679   4.062   1.751   9.541 -1.0918 -2.4705 -0.9917
   82SAPS  C215 7680   4.056   1.710   9.336  0.1810 -0.1296 -0.3884
   82SAPS  H15R 7681   3.947   1.723   9.337  0.0983 -0.5787 -1.5840
   82SAPS  C216 7682   4.119   1.681   9.199 -0.1840 -0.0406  0.3303
   82SAPS  H16R 7683   4.227   1.706   9.199 -0.3262  0.6359 -0.5738
   82SAPS  H16S 7684   4.066   1.743   9.123 -0.2556  1.6361  1.6835
   82SAPS  C217 7685   4.106   1.533   9.173  0.0517 -0.1685  0.0753
   82SAPS  H17R 7686   4.001   1.505   9.193  0.4596 -0.0130  3.0038
   82SAPS  H17S 7687   4.166   1.471   9.244  0.9065 -1.5003 -1.7369
   82SAPS  C218 7688   4.155   1.500   9.029 -0.7018  0.2760 -0.3416
   82SAPS  H18R 7689   4.266   1.503   9.030 -0.5274 -2.8073  1.2566
   82SAPS  H18S 7690   4.100   1.561   8.954 -0.5549  1.2696  0.3352
   82SAPS  C219 7691   4.118   1.349   9.015 -0.9634 -0.4701 -0.4274
   82SAPS  H19R 7692   4.013   1.324   9.041 -0.5048 -1.3539  0.6326
   82SAPS  H19S 7693   4.178   1.291   9.088  0.0357  0.6172 -0.3338
   82SAPS  C220 7694   4.149   1.297   8.873  0.0381 -0.5246  0.3629
   82SAPS  H20R 7695   4.254   1.302   8.837 -0.0559  0.3815  0.1938
   82SAPS  H20S 7696   4.088   1.352   8.798  1.1982  0.2506 -0.0549
   82SAPS  H20T 7697   4.112   1.193   8.880 -1.5462  0.0021  0.1130
   82SAPS   C33 7698   4.642   1.835  10.186  0.3719  0.5173 -0.3974
   82SAPS   H3X 7699   4.683   1.733  10.174  1.0040  0.6813  0.2935
   82SAPS   H3Y 7700   4.697   1.894  10.262 -0.3262  1.2211 -0.4209
   82SAPS   C34 7701   4.658   1.901  10.045 -0.0194  0.1517  0.4592
   82SAPS   H4X 7702   4.609   2.001  10.043  0.3737  0.3358 -0.7522
   82SAPS   H4Y 7703   4.598   1.841   9.972  1.3164  0.3399 -0.8357
   82SAPS   C35 7704   4.803   1.914   9.999 -0.2252  0.1321  0.2633
   82SAPS   H5X 7705   4.853   1.816  10.016  0.4264  0.2804 -0.6931
   82SAPS   H5Y 7706   4.856   1.990  10.060 -0.0271  1.3501 -1.3632
   82SAPS   C36 7707   4.824   1.939   9.842  0.1034  0.9000 -0.5227
   82SAPS   H6X 7708   4.931   1.908   9.843  0.2781  1.3928  1.5763
   82SAPS   H6Y 7709   4.822   2.050   9.831  1.2720  0.9827 -0.1562
   82SAPS   C37 7710   4.741   1.877   9.732  0.9895 -0.4689  0.3097
   82SAPS   H7X 7711   4.768   1.921   9.634  0.9903  1.6414  1.2121
   82SAPS   H7Y 7712   4.638   1.913   9.753  0.8223  0.7231 -2.2424
   82SAPS   C38 7713   4.736   1.723   9.740 -0.2853  0.5196  0.0502
   82SAPS   H8X 7714   4.653   1.679   9.681 -0.3708  1.0839 -0.2508
   82SAPS   H8Y 7715   4.719   1.691   9.845 -2.1314 -2.4077 -1.0079
   82SAPS   C39 7716   4.868   1.665   9.691  0.9678  0.2123  0.3213
   82SAPS   H9X 7717   4.958   1.702   9.744  0.2984 -0.8402  2.3089
   82SAPS   H9Y 7718   4.867   1.691   9.583 -2.4862  1.3655  0.5003
   82SAPS  C310 7719   4.856   1.508   9.693 -0.7618  0.1465  0.0370
   82SAPS  H10X 7720   4.756   1.490   9.648 -0.7503  1.2215 -0.4437
   82SAPS  H10Y 7721   4.863   1.475   9.799 -1.0509 -1.4700 -0.4281
   82SAPS  C311 7722   4.976   1.445   9.614  0.6913  0.1714  0.0492
   82SAPS  H11X 7723   5.071   1.503   9.625  0.5802  0.9965 -2.5944
   82SAPS  H11Y 7724   4.954   1.462   9.507  0.9245 -0.5070 -0.1117
   82SAPS  C312 7725   4.989   1.296   9.633  0.5419  0.0538 -0.2440
   82SAPS  H12X 7726   5.045   1.269   9.542 -1.2814 -1.7713 -0.8940
   82SAPS  H12Y 7727   4.892   1.242   9.633 -1.0406  2.6858 -1.4060
   82SAPS  C313 7728   5.073   1.250   9.746 -0.4834 -0.5338 -0.0687
   82SAPS  H13X 7729   5.141   1.332   9.779 -0.2799 -0.5396 -0.4724
   82SAPS  H13Y 7730   5.141   1.171   9.708 -1.3564 -0.6098 -1.5260
   82SAPS  C314 7731   4.987   1.213   9.865 -0.0513 -0.4220 -0.7204
   82SAPS  H14X 7732   4.939   1.307   9.901 -0.2670 -1.0494  0.7102
   82SAPS  H14Y 7733   5.051   1.200   9.955 -0.4095  2.1227 -0.0118
   82SAPS  C315 7734   4.890   1.094   9.845  0.2303 -0.3101  0.1931
   82SAPS  H15X 7735   4.935   1.023   9.772  0.9413 -0.5337  0.8399
   82SAPS  H15Y 7736   4.794   1.133   9.806  0.2285  0.9090  1.3615
   82SAPS  C316 7737   4.876   1.011   9.976  0.2828 -0.1343  0.5272
   82SAPS  H16X 7738   4.868   1.075  10.066 -0.9820 -3.2152  2.7889
   82SAPS  H16Y 7739   4.961   0.940   9.989 -0.5408 -1.1939  0.2929
   82SAPS  C317 7740   4.747   0.923   9.973 -0.1081  0.2359  0.9601
   82SAPS  H17X 7741   4.730   0.872   9.876  0.2256  1.4556  0.2310
   82SAPS  H17Y 7742   4.663   0.996   9.982  0.4129  0.9062  0.5131
   82SAPS  C318 7743   4.733   0.825  10.097 -0.3222 -0.3363  0.8169
   82SAPS  H18X 7744   4.626   0.817  10.123 -0.0767  0.4825  2.1615
   82SAPS  H18Y 7745   4.787   0.874  10.181  1.4888  1.0136 -1.0288
   82SAPS  H18Z 7746   4.768   0.723  10.070 -2.3990 -0.2683 -2.7465
   83SAPS     N 7747   1.873   1.725  11.258  0.6141  0.1805  0.4857
   83SAPS   HN1 7748   1.925   1.635  11.249 -1.3838 -1.1272  1.2097
   83SAPS   HN2 7749   1.910   1.780  11.338  0.1550 -0.1703  0.9413
   83SAPS   HN3 7750   1.771   1.706  11.266  0.3373  1.7406  0.9032
   83SAPS   C12 7751   1.889   1.801  11.132 -0.0128  0.3877  0.0997
   83SAPS  H12A 7752   1.830   1.891  11.137  2.0714  1.8237 -0.3519
   83SAPS   C13 7753   2.037   1.844  11.101 -0.3839  0.2608 -0.8658
   83SAPS  O13A 7754   2.132   1.816  11.176  0.4959 -0.5737  0.1998
   83SAPS  O13B 7755   2.052   1.941  11.021 -0.1709  0.0308  0.3721
   83SAPS   C11 7756   1.839   1.712  11.017 -0.4411 -0.0629  0.2289
   83SAPS  H11A 7757   1.907   1.624  11.008 -1.9594 -1.1036 -1.9416
   83SAPS  H11B 7758   1.853   1.765  10.921 -2.0111  2.1087  1.1292
   83SAPS     P 7759   1.584   1.793  10.997 -0.1973 -0.2842 -0.1612
   83SAPS   O13 7760   1.455   1.740  11.051 -0.8622  0.4632 -0.0921
   83SAPS   O14 7761   1.619   1.925  11.047  0.2080  0.2835 -0.0788
   83SAPS   O12 7762   1.702   1.684  11.034  0.9193  0.2211  0.3336
   83SAPS   O11 7763   1.577   1.800  10.838  0.2319 -0.2849  0.1347
   83SAPS    C1 7764   1.527   1.694  10.755 -0.9385 -0.0972 -0.0865
   83SAPS    HA 7765   1.438   1.644  10.798 -1.9487  2.3432  0.8191
   83SAPS    HB 7766   1.502   1.738  10.656  1.9314  2.0865  0.0396
   83SAPS    C2 7767   1.637   1.582  10.720  0.3192 -0.1915  0.3061
   83SAPS    HS 7768   1.667   1.538  10.817 -0.5345 -2.5994 -0.4441
   83SAPS   O21 7769   1.759   1.634  10.661  0.1842  0.2630  0.9858
   83SAPS   C21 7770   1.869   1.552  10.665  0.5506 -0.0925 -0.2112
   83SAPS   O22 7771   1.869   1.435  10.712  0.1252  0.0497 -0.0796
   83SAPS   C22 7772   1.989   1.618  10.592 -0.3683  0.3996  0.2498
   83SAPS   H2R 7773   1.950   1.714  10.550 -0.6116  0.5623  0.8425
   83SAPS   H2S 7774   2.068   1.636  10.667 -0.9722  1.5070  0.6471
   83SAPS    C3 7775   1.578   1.483  10.618 -0.4231 -0.0684 -0.7236
   83SAPS    HX 7776   1.479   1.453  10.658  0.9680 -1.8958  1.6560
   83SAPS    HY 7777   1.648   1.397  10.616  0.2011  0.4434 -1.3559
   83SAPS   O31 7778   1.569   1.526  10.483  0.6696  0.1327 -0.0056
   83SAPS   C31 7779   1.533   1.437  10.398  0.1968 -0.2779  0.1995
   83SAPS   O32 7780   1.529   1.319  10.409  0.8780 -0.0680 -0.6269
   83SAPS   C32 7781   1.474   1.518  10.272  0.1633  0.0310 -0.0580
   83SAPS   H2X 7782   1.533   1.612  10.264 -1.1097  0.9908  1.2437
   83SAPS   H2Y 7783   1.375   1.554  10.310  0.9227  0.7448  1.3279
   83SAPS   C23 7784   2.044   1.529  10.477  0.4908 -0.5314  0.5789
   83SAPS   H3R 7785   2.057   1.429  10.523 -0.4841 -1.0015 -0.1522
   83SAPS   H3S 7786   2.144   1.559  10.439  1.8025 -1.0868  3.2730
   83SAPS   C24 7787   1.956   1.528  10.345  1.2057  0.0706  0.0446
   83SAPS   H4R 7788   2.021   1.553  10.258  0.5334 -0.6375 -0.6716
   83SAPS   H4S 7789   1.881   1.610  10.351  0.0414 -0.9716  0.2507
   83SAPS   C25 7790   1.884   1.402  10.340  0.2609  0.7512 -0.1905
   83SAPS   H5R 7791   1.843   1.359  10.433 -1.4368  1.3279 -0.6263
   83SAPS   C26 7792   1.879   1.329  10.228 -0.5762  0.4161 -0.0113
   83SAPS   H6R 7793   1.821   1.235  10.228 -2.0813  1.3173  0.3516
   83SAPS   C27 7794   1.961   1.358  10.100  0.3535 -0.3520  0.4353
   83SAPS   H7R 7795   1.969   1.262  10.045 -1.8671 -0.4450  0.2186
   83SAPS   H7S 7796   2.065   1.389  10.127  0.0724  0.8216  0.2584
   83SAPS   C28 7797   1.904   1.476  10.021 -0.1497  0.1733 -0.0592
   83SAPS   H8R 7798   1.907   1.575  10.067  0.3292  1.0027 -1.7746
   83SAPS   C29 7799   1.873   1.469   9.890 -0.9474  0.1505 -0.1496
   83SAPS   H9R 7800   1.839   1.560   9.838 -2.5451 -0.8018 -0.8417
   83SAPS  C210 7801   1.890   1.348   9.801 -0.3433 -0.3035  0.5553
   83SAPS  H10R 7802   1.968   1.275   9.834  0.7841  1.5607  2.2550
   83SAPS  H10S 7803   1.925   1.394   9.706  0.6349  1.8859  1.8911
   83SAPS  C211 7804   1.760   1.271   9.775 -0.3735 -0.5158 -0.2679
   83SAPS  H11R 7805   1.690   1.246   9.856 -0.4387 -3.3617 -1.0951
   83SAPS  C212 7806   1.720   1.235   9.652  0.4837  0.2445  0.3503
   83SAPS  H12R 7807   1.624   1.184   9.640  0.1262  0.9971 -0.0204
   83SAPS  C213 7808   1.800   1.253   9.522  0.1716  0.3901  0.3763
   83SAPS  H13R 7809   1.905   1.219   9.525 -0.3071 -1.0501  2.7981
   83SAPS  H13S 7810   1.795   1.361   9.495 -1.1462  0.6237  1.4402
   83SAPS  C214 7811   1.736   1.170   9.411 -0.8219  0.0455 -0.3148
   83SAPS  H14R 7812   1.645   1.202   9.358 -1.1437  3.1274  1.8623
   83SAPS  C215 7813   1.790   1.058   9.357 -0.0724  0.3400 -0.1419
   83SAPS  H15R 7814   1.737   1.011   9.273  0.3813  1.4724 -1.0870
   83SAPS  C216 7815   1.915   0.995   9.404  0.0806 -0.2528  0.1594
   83SAPS  H16R 7816   1.904   0.898   9.456  2.6547 -0.6038  0.1650
   83SAPS  H16S 7817   1.972   1.041   9.487 -0.1607  0.4354 -0.0459
   83SAPS  C217 7818   1.999   0.983   9.274 -0.2193 -0.1425  0.3139
   83SAPS  H17R 7819   2.107   0.965   9.294 -0.2287  0.1358  0.6194
   83SAPS  H17S 7820   1.999   1.083   9.224  0.6517 -0.3361 -0.1032
   83SAPS  C218 7821   1.953   0.872   9.172 -0.0522  0.2150 -0.7708
   83SAPS  H18R 7822   1.845   0.872   9.146 -0.2159  0.3953 -0.0915
   83SAPS  H18S 7823   1.974   0.777   9.224  1.7865  0.4236 -1.0779
   83SAPS  C219 7824   2.045   0.872   9.054  0.0656 -0.4447 -0.0070
   83SAPS  H19R 7825   2.145   0.857   9.101  0.8199  1.3698 -0.9120
   83SAPS  H19S 7826   2.047   0.968   8.998  0.5932 -1.2941 -1.5081
   83SAPS  C220 7827   2.043   0.750   8.961  0.5971  0.5778 -0.6506
   83SAPS  H20R 7828   1.941   0.742   8.919  0.9152  2.8360 -1.9823
   83SAPS  H20S 7829   2.077   0.660   9.018 -0.2931  1.4306  1.3231
   83SAPS  H20T 7830   2.105   0.770   8.871 -1.2021  1.9977 -1.6310
   83SAPS   C33 7831   1.456   1.442  10.146  0.5079  0.2126  0.0212
   83SAPS   H3X 7832   1.551   1.386  10.131  1.8280  2.4489 -0.3466
   83SAPS   H3Y 7833   1.452   1.517  10.065 -0.3491  0.8517  0.6441
   83SAPS   C34 7834   1.334   1.346  10.151 -0.1473  0.1165  0.4371
   83SAPS   H4X 7835   1.244   1.410  10.141 -1.1430 -1.5469 -2.3856
   83SAPS   H4Y 7836   1.340   1.296  10.250  1.8407  0.1563  0.3885
   83SAPS   C35 7837   1.325   1.242  10.036 -0.0942  0.2672 -0.2281
   83SAPS   H5X 7838   1.227   1.190  10.050  0.1836 -0.3170 -0.4377
   83SAPS   H5Y 7839   1.407   1.168  10.045 -0.7311 -0.2742  1.6005
   83SAPS   C36 7840   1.335   1.308   9.901  0.6579 -0.5545 -0.3307
   83SAPS   H6X 7841   1.426   1.372   9.894  0.9184 -0.7294  1.1307
   83SAPS   H6Y 7842   1.244   1.367   9.875 -0.1790 -1.9299 -0.5999
   83SAPS   C37 7843   1.331   1.206   9.780  0.4385 -0.1354  0.1283
   83SAPS   H7X 7844   1.243   1.137   9.783  0.0847  0.2412 -1.0388
   83SAPS   H7Y 7845   1.425   1.148   9.780  0.4032 -0.1936  0.0449
   83SAPS   C38 7846   1.320   1.285   9.642  0.4424 -0.5694 -0.8250
   83SAPS   H8X 7847   1.402   1.360   9.631 -1.5567  1.9296  0.2708
   83SAPS   H8Y 7848   1.224   1.340   9.646  0.5821 -0.1491 -2.5566
   83SAPS   C39 7849   1.317   1.184   9.528  0.2634 -0.3427  0.7197
   83SAPS   H9X 7850   1.225   1.124   9.530  0.3763 -0.5939 -0.4298
   83SAPS   H9Y 7851   1.408   1.124   9.551  2.5154  2.8095  0.8579
   83SAPS  C310 7852   1.338   1.247   9.390 -0.1013  0.0764 -0.5669
   83SAPS  H10X 7853   1.436   1.299   9.383 -0.6512  1.3646  0.9060
   83SAPS  H10Y 7854   1.269   1.333   9.378 -2.2926 -1.1882  1.8235
   83SAPS  C311 7855   1.334   1.142   9.280  0.1827 -0.6269  0.1412
   83SAPS  H11X 7856   1.226   1.125   9.259 -0.1026  0.6574  0.4448
   83SAPS  H11Y 7857   1.382   1.046   9.309 -1.5531 -0.9402  2.1962
   83SAPS  C312 7858   1.393   1.197   9.143  0.3411  0.3767 -0.3254
   83SAPS  H12X 7859   1.502   1.217   9.149  0.2002  1.0761 -0.0666
   83SAPS  H12Y 7860   1.331   1.286   9.121 -3.3894 -1.5640  1.3824
   83SAPS  C313 7861   1.364   1.103   9.018  0.5383 -0.2745  0.0485
   83SAPS  H13X 7862   1.259   1.068   9.021  0.4342  0.0419  0.0462
   83SAPS  H13Y 7863   1.434   1.016   9.019  1.8674  0.7398 -0.5640
   83SAPS  C314 7864   1.377   1.184   8.887  0.1508 -0.5144  0.5074
   83SAPS  H14X 7865   1.407   1.111   8.810 -1.6060 -3.4675  2.4285
   83SAPS  H14Y 7866   1.463   1.253   8.895 -1.4676  1.7449 -0.4645
   83SAPS  C315 7867   1.254   1.267   8.856  0.0861  0.0171  0.4300
   83SAPS  H15X 7868   1.192   1.279   8.948 -1.0006 -1.9948  0.0214
   83SAPS  H15Y 7869   1.183   1.214   8.788 -1.0101  2.9776 -0.9056
   83SAPS  C316 7870   1.283   1.405   8.796 -0.1250  0.7397 -0.0219
   83SAPS  H16X 7871   1.329   1.465   8.877  1.0361 -0.0915 -0.0454
   83SAPS  H16Y 7872   1.180   1.438   8.769 -0.5045  1.5674  2.2060
   83SAPS  C317 7873   1.358   1.398   8.665 -0.1846 -0.5784 -0.2572
   83SAPS  H17X 7874   1.453   1.344   8.684  0.2705 -0.9945 -3.2465
   83SAPS  H17Y 7875   1.379   1.505   8.644 -0.7768 -0.2726  0.6722
   83SAPS  C318 7876   1.280   1.331   8.551 -0.9708  0.0368 -0.3015
   83SAPS  H18X 7877   1.258   1.230   8.590 -0.2562  0.1895  0.5312
   83SAPS  H18Y 7878   1.345   1.308   8.464 -0.3110  0.4540  0.0723
   83SAPS  H18Z 7879   1.184   1.379   8.522 -1.8273 -0.7929  1.0612
   84SAPS     N 7880   2.205   1.021  11.216 -0.1450 -0.0541  0.0971
   84SAPS   HN1 7881   2.244   1.108  11.174 -3.4432  1.0923 -0.9621
   84SAPS   HN2 7882   2.281   0.966  11.259 -0.5943 -0.7467  0.0173
   84SAPS   HN3 7883   2.167   0.968  11.135 -2.5897 -0.4002  1.3841
   84SAPS   C12 7884   2.100   1.062  11.315 -0.1894 -0.0325  0.2837
   84SAPS  H12A 7885   2.006   1.047  11.264 -0.2160 -0.2227  0.3888
   84SAPS   C13 7886   2.084   0.988  11.448 -0.0963 -0.0555  0.0832
   84SAPS  O13A 7887   2.141   0.872  11.464  0.5498  0.2366  0.0871
   84SAPS  O13B 7888   2.000   1.030  11.530  0.1567 -0.0429  0.1418
   84SAPS   C11 7889   2.127   1.209  11.335  0.3499  0.0233 -0.2166
   84SAPS  H11A 7890   2.222   1.244  11.382 -1.3075  4.3397  0.3772
   84SAPS  H11B 7891   2.055   1.244  11.411 -1.2816  1.4011 -2.2866
   84SAPS     P 7892   2.126   1.428  11.179 -0.0867 -0.1276 -0.1719
   84SAPS   O13 7893   2.004   1.489  11.227  0.8544 -0.0064 -0.5800
   84SAPS   O14 7894   2.255   1.478  11.231 -0.9872  0.5125  0.0993
   84SAPS   O12 7895   2.116   1.272  11.208 -0.1789  0.2377  0.7684
   84SAPS   O11 7896   2.131   1.429  11.023  0.6008 -0.3892 -0.3142
   84SAPS    C1 7897   2.215   1.334  10.957 -1.0114 -0.1051  0.4729
   84SAPS    HA 7898   2.315   1.315  11.002  0.2807  1.4501 -1.5719
   84SAPS    HB 7899   2.162   1.237  10.955  0.2716 -0.8380 -1.0947
   84SAPS    C2 7900   2.236   1.384  10.805 -0.2710 -0.2973  0.7202
   84SAPS    HS 7901   2.138   1.410  10.760 -0.1574 -3.2936 -1.5942
   84SAPS   O21 7902   2.305   1.278  10.741  0.1581 -0.1359 -0.9045
   84SAPS   C21 7903   2.231   1.205  10.665  0.3614 -0.2937  0.2575
   84SAPS   O22 7904   2.107   1.208  10.665  0.0908  0.0337 -0.2303
   84SAPS   C22 7905   2.313   1.130  10.567 -0.0495  0.1009  0.5776
   84SAPS   H2R 7906   2.389   1.196  10.519 -0.0785 -1.2652 -1.4549
   84SAPS   H2S 7907   2.372   1.057  10.627 -1.0615 -0.7590  0.5598
   84SAPS    C3 7908   2.320   1.514  10.792 -0.1318 -0.8761 -0.4169
   84SAPS    HX 7909   2.423   1.486  10.824 -0.0684 -0.7193 -0.4862
   84SAPS    HY 7910   2.286   1.577  10.877 -1.6917 -2.2098  0.0079
   84SAPS   O31 7911   2.318   1.581  10.663 -0.3462 -0.3074 -0.1026
   84SAPS   C31 7912   2.415   1.557  10.580  0.0243  0.4004 -0.9491
   84SAPS   O32 7913   2.503   1.472  10.595 -0.2537 -0.0506  0.0220
   84SAPS   C32 7914   2.409   1.647  10.458 -0.2531  0.3212  0.0349
   84SAPS   H2X 7915   2.495   1.715  10.472 -1.0373  1.4302 -0.4083
   84SAPS   H2Y 7916   2.314   1.705  10.455 -1.0813 -0.9568  0.4572
   84SAPS   C23 7917   2.223   1.053  10.465  0.5217  0.3281 -1.1324
   84SAPS   H3R 7918   2.140   1.004  10.520 -0.3040  3.6893  0.8611
   84SAPS   H3S 7919   2.286   0.963  10.447  0.0314 -0.2230 -0.1894
   84SAPS   C24 7920   2.174   1.121  10.338  0.2111 -0.0920  0.8408
   84SAPS   H4R 7921   2.103   1.204  10.359 -2.1674 -1.2179 -2.0106
   84SAPS   H4S 7922   2.112   1.038  10.297 -0.4301  0.3582  0.8879
   84SAPS   C25 7923   2.289   1.169  10.245  0.6067 -0.3266 -0.9139
   84SAPS   H5R 7924   2.320   1.269  10.280 -0.2948  0.1610 -1.4677
   84SAPS   C26 7925   2.334   1.108  10.137  0.1846 -0.1173 -0.2264
   84SAPS   H6R 7926   2.413   1.147  10.072 -0.1443 -1.4165 -1.4650
   84SAPS   C27 7927   2.277   0.980  10.083  0.0537 -0.6459 -0.2890
   84SAPS   H7R 7928   2.212   0.925  10.154  0.6795  0.5585  1.2904
   84SAPS   H7S 7929   2.368   0.922  10.058 -1.2386 -1.5696 -3.2755
   84SAPS   C28 7930   2.196   1.001   9.953 -0.0974  0.1329  0.2094
   84SAPS   H8R 7931   2.092   1.036   9.965 -0.1861 -0.8487  3.0059
   84SAPS   C29 7932   2.242   0.970   9.831 -0.6755 -0.0743  0.0420
   84SAPS   H9R 7933   2.173   0.984   9.747  0.6437 -0.2572 -1.0992
   84SAPS  C210 7934   2.373   0.911   9.781 -0.4295 -0.5472 -0.3241
   84SAPS  H10R 7935   2.355   0.802   9.766  0.3523 -0.6721 -0.4280
   84SAPS  H10S 7936   2.457   0.913   9.854 -0.3936 -3.4188 -0.1844
   84SAPS  C211 7937   2.427   0.972   9.652  0.0746  0.3079  0.5369
   84SAPS  H11R 7938   2.418   1.081   9.652 -0.0626  0.2979  1.0679
   84SAPS  C212 7939   2.478   0.910   9.540  0.6808 -0.1507  0.0002
   84SAPS  H12R 7940   2.522   0.958   9.451  0.5322 -1.8790 -1.0731
   84SAPS  C213 7941   2.487   0.762   9.526 -0.3888 -0.2968 -0.0690
   84SAPS  H13R 7942   2.485   0.715   9.627  0.7269  1.3539  0.7649
   84SAPS  H13S 7943   2.583   0.726   9.485 -0.8535 -0.4427 -1.0656
   84SAPS  C214 7944   2.369   0.715   9.446  0.1953 -0.4247 -0.3331
   84SAPS  H14R 7945   2.275   0.715   9.504 -0.0633  3.3197 -0.5167
   84SAPS  C215 7946   2.350   0.703   9.313  0.0192 -0.3709 -0.0354
   84SAPS  H15R 7947   2.251   0.678   9.273 -0.1350 -1.3579  0.8947
   84SAPS  C216 7948   2.462   0.724   9.216  0.3502  0.0674 -0.1142
   84SAPS  H16R 7949   2.522   0.798   9.273  0.0164 -0.3129  0.7496
   84SAPS  H16S 7950   2.425   0.759   9.118 -0.6897 -0.4694  0.0710
   84SAPS  C217 7951   2.537   0.594   9.185  0.0864 -0.4456  0.4178
   84SAPS  H17R 7952   2.516   0.517   9.263  0.4230  0.1518  1.1111
   84SAPS  H17S 7953   2.647   0.611   9.188 -0.3311  2.5034  1.4863
   84SAPS  C218 7954   2.499   0.523   9.060 -0.2961  0.5177 -0.0979
   84SAPS  H18R 7955   2.522   0.586   8.971  0.3234 -1.0322 -1.0924
   84SAPS  H18S 7956   2.391   0.500   9.059  0.0702 -1.4928 -1.4562
   84SAPS  C219 7957   2.575   0.397   9.027  0.1194 -0.2569  0.0264
   84SAPS  H19R 7958   2.525   0.317   9.084  0.2140 -1.2800 -1.2855
   84SAPS  H19S 7959   2.680   0.403   9.061  0.2582 -1.9430 -0.0569
   84SAPS  C220 7960   2.585   0.351   8.887 -0.6452  0.1688 -0.0404
   84SAPS  H20R 7961   2.482   0.329   8.850 -0.5237  0.1323 -0.3608
   84SAPS  H20S 7962   2.655   0.265   8.879  1.9577  1.9390  2.2989
   84SAPS  H20T 7963   2.622   0.426   8.814  0.2001 -1.3410 -1.2220
   84SAPS   C33 7964   2.442   1.579  10.328  0.5694  0.1677  0.6818
   84SAPS   H3X 7965   2.381   1.487  10.315  1.0456 -0.1390  0.5910
   84SAPS   H3Y 7966   2.545   1.538  10.319  0.0659 -0.6401 -2.9330
   84SAPS   C34 7967   2.409   1.663  10.201 -0.1992  0.3452 -0.3624
   84SAPS   H4X 7968   2.487   1.742  10.197  0.8511 -0.7022 -2.0300
   84SAPS   H4Y 7969   2.312   1.704  10.238  0.5025  1.2816  0.5030
   84SAPS   C35 7970   2.433   1.595  10.062 -0.0748 -0.3954 -0.0338
   84SAPS   H5X 7971   2.529   1.540  10.068  1.4670  1.7438 -2.5406
   84SAPS   H5Y 7972   2.445   1.673   9.983 -1.0668  0.9617  1.0923
   84SAPS   C36 7973   2.332   1.496  10.005 -0.1151 -0.7617  0.1620
   84SAPS   H6X 7974   2.235   1.549   9.996  1.0642  1.9055  1.8633
   84SAPS   H6Y 7975   2.312   1.416  10.080 -0.2081  0.3688  1.3846
   84SAPS   C37 7976   2.368   1.444   9.865 -0.0072  0.0159 -0.1573
   84SAPS   H7X 7977   2.322   1.344   9.849  1.9081 -0.6551 -1.9585
   84SAPS   H7Y 7978   2.475   1.414   9.868 -0.2265 -0.7339  0.3902
   84SAPS   C38 7979   2.327   1.527   9.749  0.1511  0.0939 -0.4121
   84SAPS   H8X 7980   2.385   1.620   9.768 -3.7074  2.8437 -0.8739
   84SAPS   H8Y 7981   2.218   1.551   9.754 -0.0691 -0.7257 -0.9977
   84SAPS   C39 7982   2.345   1.461   9.608  0.5059  0.5064 -0.2097
   84SAPS   H9X 7983   2.452   1.430   9.607  0.9286  0.9174  4.9086
   84SAPS   H9Y 7984   2.334   1.534   9.525 -0.0823 -1.0464 -1.5415
   84SAPS  C310 7985   2.255   1.340   9.577 -0.0621  0.5840 -0.4999
   84SAPS  H10X 7986   2.145   1.358   9.573 -0.0443  0.6477 -4.4526
   84SAPS  H10Y 7987   2.277   1.261   9.651  1.9874  0.5527 -1.0931
   84SAPS  C311 7988   2.285   1.268   9.451  0.0513  0.1049  0.3566
   84SAPS  H11X 7989   2.201   1.203   9.419  1.9333 -2.3113  0.0463
   84SAPS  H11Y 7990   2.367   1.194   9.459 -0.5557 -0.7734 -1.0218
   84SAPS  C312 7991   2.329   1.359   9.333 -0.0207  0.1565 -0.7839
   84SAPS  H12X 7992   2.431   1.397   9.355 -0.3305  0.2496  0.6085
   84SAPS  H12Y 7993   2.270   1.453   9.323 -0.9693  0.0686  2.5792
   84SAPS  C313 7994   2.346   1.267   9.213 -0.1757 -0.6543  0.3336
   84SAPS  H13X 7995   2.250   1.234   9.169 -0.9039 -1.5230  2.4614
   84SAPS  H13Y 7996   2.405   1.177   9.241 -1.9555 -1.7598  0.6917
   84SAPS  C314 7997   2.432   1.329   9.100  0.4607 -0.6060 -0.2631
   84SAPS  H14X 7998   2.537   1.327   9.136 -0.0670  1.0590  1.5392
   84SAPS  H14Y 7999   2.400   1.433   9.078  1.3859 -0.0358  0.9976
   84SAPS  C315 8000   2.408   1.248   8.968  0.4185  0.1146 -0.0982
   84SAPS  H15X 8001   2.415   1.143   9.002  0.7922  0.9193  2.5006
   84SAPS  H15Y 8002   2.490   1.266   8.895 -0.3458 -1.0800 -1.2890
   84SAPS  C316 8003   2.289   1.292   8.889  0.5273  0.7971 -0.8512
   84SAPS  H16X 8004   2.312   1.357   8.802 -0.1531  2.0693 -0.1160
   84SAPS  H16Y 8005   2.208   1.343   8.946 -0.5381 -1.3064 -0.3446
   84SAPS  C317 8006   2.210   1.164   8.830  0.1571  0.5145  0.1953
   84SAPS  H17X 8007   2.102   1.170   8.804  0.4478 -1.3415 -1.7407
   84SAPS  H17Y 8008   2.205   1.083   8.906  2.7171 -0.5221 -0.6158
   84SAPS  C318 8009   2.291   1.098   8.718  0.0655  0.5327  0.1890
   84SAPS  H18X 8010   2.393   1.062   8.744  1.4514  1.9934 -2.8283
   84SAPS  H18Y 8011   2.294   1.163   8.629  0.0708  1.9744  1.2083
   84SAPS  H18Z 8012   2.224   1.014   8.689  0.5840  0.0715  0.3145
   85SAPS     N 8013   5.168   3.964  11.018  0.0911 -0.4993 -0.2846
   85SAPS   HN1 8014   5.177   4.048  10.958  0.1950 -0.0503  0.3585
   85SAPS   HN2 8015   5.259   3.930  11.056 -0.0952  1.6896  2.3696
   85SAPS   HN3 8016   5.139   3.898  10.943  0.3824  1.4323 -2.1910
   85SAPS   C12 8017   5.062   3.986  11.117 -0.4737  0.6164 -0.0029
   85SAPS  H12A 8018   5.077   3.907  11.190  0.3196  2.5970  2.1050
   85SAPS   C13 8019   5.076   4.111  11.206  0.0669  0.4256  0.8324
   85SAPS  O13A 8020   5.174   4.187  11.190  0.0054 -0.2401 -0.0509
   85SAPS  O13B 8021   4.979   4.132  11.286  0.1850 -0.6530  0.3871
   85SAPS   C11 8022   4.926   3.993  11.035  0.2593  0.5664 -0.2851
   85SAPS  H11A 8023   4.839   4.006  11.103  1.5848  1.8145  1.2727
   85SAPS  H11B 8024   4.923   3.893  10.988 -0.6648  1.1445 -1.4957
   85SAPS     P 8025   4.786   4.093  10.848 -0.0263 -0.3397 -0.3144
   85SAPS   O13 8026   4.675   4.045  10.933  0.5876 -0.2847  0.2247
   85SAPS   O14 8027   4.764   4.223  10.790 -0.4351  0.0099  0.4073
   85SAPS   O12 8028   4.924   4.091  10.928 -0.2127  0.2127 -0.5928
   85SAPS   O11 8029   4.804   3.994  10.723  0.0066  0.2762 -0.4352
   85SAPS    C1 8030   4.900   4.001  10.620  1.1352  0.2536 -0.0147
   85SAPS    HA 8031   4.989   4.047  10.669  0.4596 -0.1289  1.6477
   85SAPS    HB 8032   4.921   3.895  10.595  0.6424 -0.9646  3.9838
   85SAPS    C2 8033   4.845   4.082  10.497  0.2465  0.2985 -0.3655
   85SAPS    HS 8034   4.824   4.182  10.542  1.2205 -0.0672  0.9825
   85SAPS   O21 8035   4.733   4.015  10.447  0.5743 -0.6810  0.5099
   85SAPS   C21 8036   4.622   4.092  10.447 -0.4032 -0.6668  0.4437
   85SAPS   O22 8037   4.614   4.204  10.488  0.3252 -0.0248 -0.2207
   85SAPS   C22 8038   4.506   4.021  10.398  0.4105  0.2316  0.2970
   85SAPS   H2R 8039   4.540   3.927  10.349 -0.2979 -0.5585  1.2789
   85SAPS   H2S 8040   4.441   3.983  10.480  3.1144 -1.8624  1.6208
   85SAPS    C3 8041   4.954   4.108  10.393 -0.5891  1.2435  0.1080
   85SAPS    HX 8042   5.015   4.016  10.380  0.8393  2.2612 -0.6749
   85SAPS    HY 8043   5.034   4.175  10.431  2.1355 -2.4259  1.4442
   85SAPS   O31 8044   4.918   4.132  10.255  0.4467 -0.1746  0.0556
   85SAPS   C31 8045   4.870   4.247  10.221 -0.0189 -0.1291 -0.8183
   85SAPS   O32 8046   4.865   4.338  10.305  0.2485 -0.6535 -0.0273
   85SAPS   C32 8047   4.819   4.249  10.073 -0.6396  1.0435  0.7491
   85SAPS   H2X 8048   4.858   4.345  10.033  0.1138  0.7522  0.7629
   85SAPS   H2Y 8049   4.708   4.253  10.079 -0.8752  0.1060 -1.6316
   85SAPS   C23 8050   4.421   4.101  10.304  0.2320  0.3733  0.7640
   85SAPS   H3R 8051   4.403   4.209  10.320 -0.0024  0.4714 -0.0951
   85SAPS   H3S 8052   4.322   4.051  10.304  0.5162 -0.2208  1.9232
   85SAPS   C24 8053   4.471   4.087  10.158 -0.5021  0.0749 -0.2059
   85SAPS   H4R 8054   4.458   3.980  10.132 -0.4655 -0.1365  0.6308
   85SAPS   H4S 8055   4.580   4.110  10.157 -0.5423  0.2786 -1.5454
   85SAPS   C25 8056   4.392   4.164  10.055 -0.8563 -0.1491  0.1463
   85SAPS   H5R 8057   4.349   4.256  10.099  0.3842  0.3914  0.2558
   85SAPS   C26 8058   4.389   4.141   9.923 -0.6448  0.3069  0.4640
   85SAPS   H6R 8059   4.342   4.221   9.864  1.6285  1.3425 -0.0491
   85SAPS   C27 8060   4.460   4.027   9.851  0.2130 -0.4380 -0.5510
   85SAPS   H7R 8061   4.511   3.963   9.926 -0.2554  1.7423  1.7855
   85SAPS   H7S 8062   4.528   4.064   9.771 -0.8682 -0.1361 -1.3409
   85SAPS   C28 8063   4.361   3.934   9.781 -0.5372  0.5266 -0.0745
   85SAPS   H8R 8064   4.337   3.846   9.843  0.1942 -0.5521 -1.2763
   85SAPS   C29 8065   4.309   3.948   9.659 -0.2845  0.1380 -0.2160
   85SAPS   H9R 8066   4.243   3.863   9.636 -2.4815  1.1336  1.9790
   85SAPS  C210 8067   4.326   4.043   9.548  0.0211 -0.2229  0.6180
   85SAPS  H10R 8068   4.377   4.133   9.587  0.3842 -0.2359  0.1922
   85SAPS  H10S 8069   4.226   4.079   9.515 -0.1332  0.2974  1.6185
   85SAPS  C211 8070   4.423   4.002   9.447 -0.3713  0.1413  0.5668
   85SAPS  H11R 8071   4.526   3.985   9.479 -0.0945  0.8955  0.1119
   85SAPS  C212 8072   4.395   3.982   9.317 -0.1264  0.4303  0.2705
   85SAPS  H12R 8073   4.478   3.952   9.251 -0.2002  2.4023 -0.7966
   85SAPS  C213 8074   4.256   4.006   9.251 -0.5612 -0.0167  0.3956
   85SAPS  H13R 8075   4.180   4.045   9.322 -0.8204 -0.3741  0.3152
   85SAPS  H13S 8076   4.211   3.909   9.221 -0.4856 -0.3994  1.4631
   85SAPS  C214 8077   4.264   4.087   9.125 -0.3979 -0.0683  0.1872
   85SAPS  H14R 8078   4.281   4.193   9.146  3.2975 -0.7682  1.5301
   85SAPS  C215 8079   4.263   4.049   8.995 -0.0952  0.4138  0.4802
   85SAPS  H15R 8080   4.271   4.115   8.908  0.5386 -1.5916 -1.0839
   85SAPS  C216 8081   4.242   3.904   8.943  0.3707 -0.2122  0.5981
   85SAPS  H16R 8082   4.140   3.872   8.914  0.0352 -1.1322  2.6334
   85SAPS  H16S 8083   4.262   3.830   9.023 -0.7042 -0.1189  0.9698
   85SAPS  C217 8084   4.350   3.857   8.836 -0.5791  0.0157  0.0419
   85SAPS  H17R 8085   4.336   3.898   8.733  3.0805  0.0665 -0.5929
   85SAPS  H17S 8086   4.330   3.749   8.818  0.2457 -0.5452  2.2130
   85SAPS  C218 8087   4.492   3.877   8.893  0.2536 -0.5584  0.3866
   85SAPS  H18R 8088   4.518   3.835   8.992 -1.1455 -1.2002  0.5102
   85SAPS  H18S 8089   4.508   3.985   8.910 -1.8022 -0.2454  0.6814
   85SAPS  C219 8090   4.594   3.826   8.795 -0.3942 -0.2363  0.4579
   85SAPS  H19R 8091   4.580   3.721   8.761 -0.2805  0.7063 -2.8753
   85SAPS  H19S 8092   4.694   3.826   8.843  0.9814  0.5438 -2.1801
   85SAPS  C220 8093   4.605   3.904   8.659 -0.0758 -0.1979 -0.0899
   85SAPS  H20R 8094   4.613   4.014   8.679 -2.5453  0.2098 -1.0438
   85SAPS  H20S 8095   4.524   3.878   8.588 -0.7553 -0.7127  0.8564
   85SAPS  H20T 8096   4.696   3.864   8.609 -1.5582 -1.6890 -1.7157
   85SAPS   C33 8097   4.868   4.136   9.978  0.4796 -0.3113 -0.5703
   85SAPS   H3X 8098   4.818   4.041  10.005 -0.0258 -0.6335 -2.4599
   85SAPS   H3Y 8099   4.978   4.121   9.988  0.3835 -0.5811  0.1150
   85SAPS   C34 8100   4.852   4.166   9.827 -0.4280 -0.5485  0.0515
   85SAPS   H4X 8101   4.905   4.261   9.803 -2.0998  0.4972  0.3507
   85SAPS   H4Y 8102   4.744   4.182   9.807 -0.6053 -1.2016  0.4622
   85SAPS   C35 8103   4.917   4.060   9.732 -0.7408 -0.0562 -0.6417
   85SAPS   H5X 8104   4.877   3.958   9.749 -0.1565 -0.1643  0.1136
   85SAPS   H5Y 8105   5.018   4.059   9.777 -2.4742 -1.8395  3.7356
   85SAPS   C36 8106   4.929   4.104   9.584 -0.3022 -0.2550 -0.4419
   85SAPS   H6X 8107   4.997   4.192   9.585 -1.9278  1.0574 -1.1902
   85SAPS   H6Y 8108   4.831   4.135   9.543 -0.0131 -0.4901 -1.3238
   85SAPS   C37 8109   4.983   3.996   9.496  0.0355 -0.1801  0.2923
   85SAPS   H7X 8110   5.070   3.938   9.533 -0.6333 -0.1424  2.0295
   85SAPS   H7Y 8111   5.023   4.050   9.408 -2.3340 -0.3600 -0.9901
   85SAPS   C38 8112   4.881   3.892   9.447  0.1392 -0.6815  0.2579
   85SAPS   H8X 8113   4.816   3.954   9.382  0.1129  1.6239  2.3116
   85SAPS   H8Y 8114   4.810   3.861   9.527 -1.4591  2.4834  0.2499
   85SAPS   C39 8115   4.950   3.774   9.371 -0.6136  0.7444  0.6573
   85SAPS   H9X 8116   5.042   3.794   9.312  0.1176 -0.9363  1.1919
   85SAPS   H9Y 8117   4.878   3.722   9.304  0.6929  2.1736 -2.0340
   85SAPS  C310 8118   5.003   3.677   9.479  0.0987  0.2249  0.2856
   85SAPS  H10X 8119   4.928   3.625   9.541  0.5478 -2.2361 -1.1079
   85SAPS  H10Y 8120   5.073   3.726   9.550  1.2252 -0.0685 -0.5717
   85SAPS  C311 8121   5.094   3.568   9.421  0.2155 -0.8374  0.2249
   85SAPS  H11X 8122   5.194   3.611   9.402 -0.7825  0.7237 -1.9826
   85SAPS  H11Y 8123   5.045   3.529   9.329  2.1298 -2.8153 -0.0365
   85SAPS  C312 8124   5.107   3.451   9.516  0.0206  0.5621 -0.2366
   85SAPS  H12X 8125   5.183   3.381   9.475 -1.0910  0.6148 -2.5458
   85SAPS  H12Y 8126   5.008   3.401   9.519  0.2610  0.0984  0.1548
   85SAPS  C313 8127   5.130   3.484   9.664  0.0723 -0.0888  0.2426
   85SAPS  H13X 8128   5.063   3.563   9.703  1.1761  0.7278  0.5240
   85SAPS  H13Y 8129   5.232   3.527   9.673 -0.6881  1.3655  3.5835
   85SAPS  C314 8130   5.139   3.353   9.751 -0.1005 -0.0254 -0.0848
   85SAPS  H14X 8131   5.213   3.279   9.714 -0.5325 -1.1879  1.2631
   85SAPS  H14Y 8132   5.034   3.316   9.743  0.2461 -0.6197 -2.6677
   85SAPS  C315 8133   5.178   3.382   9.899  0.9768 -0.0523  0.1256
   85SAPS  H15X 8134   5.093   3.440   9.942 -1.4444 -2.7229 -0.7010
   85SAPS  H15Y 8135   5.278   3.430   9.901  2.5121 -2.9879 -0.1610
   85SAPS  C316 8136   5.177   3.266  10.000  0.3273  0.1328 -0.2535
   85SAPS  H16X 8137   5.257   3.199   9.962 -0.5390 -1.4906  0.6709
   85SAPS  H16Y 8138   5.087   3.202   9.980 -0.4698  0.7028  1.3547
   85SAPS  C317 8139   5.188   3.301  10.149 -0.5403  0.3577 -0.2700
   85SAPS  H17X 8140   5.092   3.352  10.173  1.1629  4.1534 -0.6850
   85SAPS  H17Y 8141   5.269   3.377  10.164 -0.3809  0.7578 -2.7763
   85SAPS  C318 8142   5.205   3.172  10.230  0.8039  0.2245  0.6267
   85SAPS  H18X 8143   5.278   3.102  10.184 -1.7024 -1.4638 -1.0705
   85SAPS  H18Y 8144   5.107   3.121  10.239  1.9238 -2.2902 -0.5154
   85SAPS  H18Z 8145   5.242   3.194  10.332  2.0624 -1.7860  0.6549
   86SAPS     N 8146   0.738   3.422  11.050 -0.2900 -0.3408 -0.1818
   86SAPS   HN1 8147   0.827   3.473  11.034  1.1487 -1.1060  4.0137
   86SAPS   HN2 8148   0.653   3.482  11.053 -0.4833 -0.6367  0.7778
   86SAPS   HN3 8149   0.755   3.378  11.143  2.9779  1.1277  0.0529
   86SAPS   C12 8150   0.739   3.326  10.932 -0.4257 -0.1494  1.1462
   86SAPS  H12A 8151   0.700   3.383  10.849 -2.5705 -1.4214  1.2103
   86SAPS   C13 8152   0.877   3.268  10.899  0.0556 -0.5912  0.7915
   86SAPS  O13A 8153   0.975   3.292  10.981  0.0033 -0.1579  0.1262
   86SAPS  O13B 8154   0.893   3.198  10.800  0.6457 -0.2431 -0.5127
   86SAPS   C11 8155   0.642   3.210  10.982  0.0190 -0.4426  0.4110
   86SAPS  H11A 8156   0.682   3.163  11.075  0.5238 -0.4725  0.1860
   86SAPS  H11B 8157   0.632   3.136  10.900 -1.3030  0.5447 -0.3536
   86SAPS     P 8158   0.381   3.177  10.966 -0.2435  0.2513  0.0033
   86SAPS   O13 8159   0.395   3.051  11.044 -0.1352  0.6692 -0.2337
   86SAPS   O14 8160   0.263   3.261  11.001  0.3838 -0.3964  0.0290
   86SAPS   O12 8161   0.514   3.265  10.995 -0.2895 -0.5500 -0.2801
   86SAPS   O11 8162   0.376   3.149  10.810  0.1046  0.2852 -0.3321
   86SAPS    C1 8163   0.424   3.248  10.727  0.4554 -0.4943  0.2660
   86SAPS    HA 8164   0.513   3.306  10.761 -0.9326  3.2786 -1.9250
   86SAPS    HB 8165   0.450   3.211  10.626  2.1910  1.0341  0.0914
   86SAPS    C2 8166   0.315   3.360  10.693  0.4066 -0.3178  0.0249
   86SAPS    HS 8167   0.295   3.407  10.791 -0.2820 -0.7448  0.0921
   86SAPS   O21 8168   0.197   3.294  10.643  0.3144 -0.4426  0.0391
   86SAPS   C21 8169   0.077   3.354  10.630  0.2889 -0.6055 -0.2238
   86SAPS   O22 8170   0.064   3.473  10.660  0.2351  0.0780  0.6489
   86SAPS   C22 8171  -0.027   3.248  10.578 -0.1377 -0.4982  0.6969
   86SAPS   H2R 8172   0.048   3.172  10.549  1.6502  1.0004  1.1966
   86SAPS   H2S 8173  -0.085   3.208  10.664 -0.6959 -2.0460 -0.3597
   86SAPS    C3 8174   0.368   3.464  10.596 -0.4836  0.0133  0.2166
   86SAPS    HX 8175   0.456   3.522  10.631 -1.0498  1.2354 -0.3007
   86SAPS    HY 8176   0.284   3.537  10.589 -0.9124 -0.4297  0.6186
   86SAPS   O31 8177   0.402   3.413  10.467  0.1966 -0.0302 -0.1220
   86SAPS   C31 8178   0.357   3.481  10.362  0.0947  0.0786 -0.6276
   86SAPS   O32 8179   0.302   3.591  10.360 -0.3910  0.5134 -0.7346
   86SAPS   C32 8180   0.405   3.407  10.242 -0.3697 -0.1227  0.1431
   86SAPS   H2X 8181   0.362   3.304  10.245  1.5958 -0.9640  0.4188
   86SAPS   H2Y 8182   0.510   3.372  10.247 -0.1091  0.6249 -0.0537
   86SAPS   C23 8183  -0.118   3.307  10.468 -0.5944 -0.3599  0.2828
   86SAPS   H3R 8184  -0.174   3.398  10.499 -0.4796  0.0992 -0.8208
   86SAPS   H3S 8185  -0.199   3.240  10.430 -0.9136 -0.6607  1.4685
   86SAPS   C24 8186  -0.041   3.339  10.332 -0.3088  0.7315  0.1697
   86SAPS   H4R 8187   0.031   3.423  10.341  0.1506  0.2886  0.7309
   86SAPS   H4S 8188  -0.114   3.377  10.258 -0.6646  0.0164  0.1462
   86SAPS   C25 8189   0.032   3.217  10.281 -1.2732 -0.5564 -0.1050
   86SAPS   H5R 8190   0.127   3.192  10.331 -1.9394 -0.9299  1.0141
   86SAPS   C26 8191  -0.004   3.153  10.168 -0.2093 -0.6252 -0.0090
   86SAPS   H6R 8192   0.069   3.078  10.131  0.2598 -0.1807  0.0117
   86SAPS   C27 8193  -0.122   3.180  10.066  0.8093  0.3066  0.5977
   86SAPS   H7R 8194  -0.218   3.186  10.121 -0.9613 -0.8554 -2.1699
   86SAPS   H7S 8195  -0.132   3.081  10.016 -1.3850 -0.5178  2.5164
   86SAPS   C28 8196  -0.116   3.289   9.955 -0.4368  0.1719  0.4346
   86SAPS   H8R 8197  -0.156   3.387   9.985 -0.5482  1.0034 -2.1952
   86SAPS   C29 8198  -0.047   3.269   9.836  0.6112  0.1874 -0.2584
   86SAPS   H9R 8199  -0.028   3.353   9.767 -0.4661 -0.2230 -1.0936
   86SAPS  C210 8200   0.019   3.148   9.785 -0.1694  0.2553  0.2835
   86SAPS  H10R 8201  -0.042   3.115   9.698 -0.2374  2.4747 -0.5986
   86SAPS  H10S 8202   0.026   3.069   9.862  1.5911  0.0436 -0.0644
   86SAPS  C211 8203   0.164   3.168   9.737  0.9403 -0.8104 -0.2223
   86SAPS  H11R 8204   0.240   3.154   9.816  1.3573 -1.2216 -0.6919
   86SAPS  C212 8205   0.202   3.205   9.614  0.1416 -0.4295  0.0969
   86SAPS  H12R 8206   0.310   3.223   9.602  0.2575  1.0599  2.6784
   86SAPS  C213 8207   0.113   3.239   9.497  0.0671  0.1561  0.4079
   86SAPS  H13R 8208   0.173   3.308   9.434  0.7383 -1.6203 -0.9515
   86SAPS  H13S 8209   0.025   3.297   9.534  1.7798  1.6056  2.4204
   86SAPS  C214 8210   0.061   3.116   9.424 -0.5111 -0.7827 -0.6374
   86SAPS  H14R 8211   0.046   3.034   9.496 -0.6294  0.5289  0.8972
   86SAPS  C215 8212   0.033   3.097   9.297 -0.6139  0.7003 -0.4697
   86SAPS  H15R 8213   0.007   2.994   9.270  0.1917  0.8035 -1.7171
   86SAPS  C216 8214   0.047   3.194   9.188 -0.3834  0.5801  0.0746
   86SAPS  H16R 8215   0.135   3.171   9.125  0.7281  2.0433  1.0126
   86SAPS  H16S 8216   0.059   3.289   9.244  1.4891  0.6655 -0.4041
   86SAPS  C217 8217  -0.064   3.210   9.085 -0.0111 -0.3153 -0.4459
   86SAPS  H17R 8218  -0.034   3.296   9.022  0.7369  0.5199  0.9950
   86SAPS  H17S 8219  -0.158   3.248   9.131  1.2470  1.9079  0.4812
   86SAPS  C218 8220  -0.076   3.087   8.994  0.0774 -0.4005  0.1265
   86SAPS  H18R 8221  -0.119   3.008   9.058 -2.1971  0.2008 -0.5639
   86SAPS  H18S 8222   0.027   3.063   8.960  0.9213  0.4213  1.9650
   86SAPS  C219 8223  -0.177   3.104   8.881 -0.0441 -0.6823  0.0601
   86SAPS  H19R 8224  -0.274   3.074   8.925  0.6306 -0.0875  2.0236
   86SAPS  H19S 8225  -0.144   3.031   8.803 -0.0877 -0.7490  0.1043
   86SAPS  C220 8226  -0.186   3.238   8.809  0.1348 -0.3544 -0.3553
   86SAPS  H20R 8227  -0.255   3.308   8.860 -0.9320  0.5920 -2.9282
   86SAPS  H20S 8228  -0.236   3.203   8.716  0.5070 -2.0066  0.0362
   86SAPS  H20T 8229  -0.087   3.287   8.791  0.3303 -0.1908  1.0872
   86SAPS   C33 8230   0.372   3.484  10.110 -0.0920  0.7633 -0.1674
   86SAPS   H3X 8231   0.406   3.589  10.127 -0.3774  0.4013  3.4268
   86SAPS   H3Y 8232   0.262   3.485  10.102 -0.1925 -2.3287 -0.2152
   86SAPS   C34 8233   0.440   3.422   9.984 -0.3204  0.0697  1.0906
   86SAPS   H4X 8234   0.400   3.319   9.973  2.0904 -0.6998 -1.8898
   86SAPS   H4Y 8235   0.547   3.407  10.005 -0.3788 -2.5140 -0.0381
   86SAPS   C35 8236   0.413   3.482   9.851 -0.3411 -0.2182  0.7782
   86SAPS   H5X 8237   0.429   3.591   9.861 -0.2023 -0.3067  1.6209
   86SAPS   H5Y 8238   0.307   3.474   9.818 -0.5783  0.2598  1.4029
   86SAPS   C36 8239   0.503   3.425   9.744  0.7154  0.3563  0.1326
   86SAPS   H6X 8240   0.481   3.316   9.739  2.1198  0.0714 -0.1420
   86SAPS   H6Y 8241   0.609   3.450   9.762  0.4837  2.4349 -1.0880
   86SAPS   C37 8242   0.468   3.472   9.601  0.0362 -0.2684 -0.7178
   86SAPS   H7X 8243   0.493   3.580   9.595 -1.3668  0.1400  0.2118
   86SAPS   H7Y 8244   0.358   3.460   9.591  0.0104 -0.6572 -0.0658
   86SAPS   C38 8245   0.537   3.407   9.484  0.7330 -0.6583  0.2631
   86SAPS   H8X 8246   0.512   3.299   9.492  0.6409 -0.6992 -0.5505
   86SAPS   H8Y 8247   0.647   3.412   9.495  0.8066 -0.4651 -0.5091
   86SAPS   C39 8248   0.474   3.457   9.354 -0.1861  0.2095 -1.1117
   86SAPS   H9X 8249   0.537   3.543   9.319  0.1448  0.2852 -0.3466
   86SAPS   H9Y 8250   0.370   3.495   9.362 -1.0798 -2.1262 -1.0779
   86SAPS  C310 8251   0.487   3.352   9.239  0.0201  0.4671 -0.0516
   86SAPS  H10X 8252   0.469   3.254   9.288 -2.7530  0.1727 -1.4350
   86SAPS  H10Y 8253   0.595   3.356   9.217  0.1558 -1.2774  0.1307
   86SAPS  C311 8254   0.381   3.372   9.127  0.0965 -0.3522  0.0446
   86SAPS  H11X 8255   0.389   3.467   9.070 -1.1633 -2.6896 -4.5115
   86SAPS  H11Y 8256   0.278   3.376   9.168 -0.0097 -1.2072 -0.1259
   86SAPS  C312 8257   0.405   3.265   9.017  0.6824 -0.4544 -0.5765
   86SAPS  H12X 8258   0.372   3.165   9.052  1.1562 -0.8730 -1.2830
   86SAPS  H12Y 8259   0.515   3.267   8.999  0.7309  3.8450 -0.7254
   86SAPS  C313 8260   0.318   3.297   8.896  0.5118  0.3514  0.2287
   86SAPS  H13X 8261   0.347   3.398   8.861 -0.2633  0.3907 -0.3313
   86SAPS  H13Y 8262   0.212   3.304   8.926  0.3273 -0.7441 -0.1234
   86SAPS  C314 8263   0.326   3.201   8.781 -0.4008 -0.5050  0.0579
   86SAPS  H14X 8264   0.259   3.117   8.809  1.0405 -1.5245  0.5583
   86SAPS  H14Y 8265   0.432   3.167   8.779 -0.6222 -1.2320  0.3195
   86SAPS  C315 8266   0.280   3.253   8.643  0.2189 -0.9445 -0.1251
   86SAPS  H15X 8267   0.185   3.310   8.651  0.2021 -1.0395  0.3549
   86SAPS  H15Y 8268   0.272   3.160   8.581 -0.7867 -1.9945  1.5051
   86SAPS  C316 8269   0.379   3.355   8.572 -0.1048 -0.0206 -0.0668
   86SAPS  H16X 8270   0.470   3.299   8.542 -0.9343 -0.3720 -2.0946
   86SAPS  H16Y 8271   0.394   3.440   8.641 -1.2914  2.4433 -2.6263
   86SAPS  C317 8272   0.326   3.425   8.449  0.5505 -0.0830 -0.1080
   86SAPS  H17X 8273   0.373   3.524   8.429 -3.6924  1.5650 -3.7623
   86SAPS  H17Y 8274   0.222   3.450   8.476  0.8237  0.5077  0.4191
   86SAPS  C318 8275   0.325   3.356   8.312 -0.5255 -0.3983  0.8474
   86SAPS  H18X 8276   0.290   3.252   8.330  1.6544 -1.3626 -0.1862
   86SAPS  H18Y 8277   0.423   3.372   8.263 -0.3591 -2.8422  0.2357
   86SAPS  H18Z 8278   0.254   3.411   8.246 -1.2676 -3.0945 -0.7457
   87SAPS     N 8279   5.407   4.157  11.326  0.5455 -0.2877  0.5446
   87SAPS   HN1 8280   5.396   4.256  11.356 -2.2819 -0.5304  0.6316
   87SAPS   HN2 8281   5.318   4.133  11.277 -0.7062  2.7887  1.0674
   87SAPS   HN3 8282   5.404   4.109  11.419 -0.9460 -0.9077  0.2136
   87SAPS   C12 8283   5.514   4.109  11.243  0.7096 -0.2219  0.2003
   87SAPS  H12A 8284   5.596   4.115  11.313  0.0231  1.5843  0.8952
   87SAPS   C13 8285   5.488   3.963  11.187  0.0164  0.6445 -0.5357
   87SAPS  O13A 8286   5.370   3.912  11.198 -0.1553 -0.3685  0.3571
   87SAPS  O13B 8287   5.573   3.898  11.130 -0.1149 -0.7274  0.2259
   87SAPS   C11 8288   5.531   4.200  11.118  0.1324  0.0346 -0.1060
   87SAPS  H11A 8289   5.439   4.205  11.056 -0.6461  0.1355  1.0354
   87SAPS  H11B 8290   5.604   4.161  11.044 -0.2912  0.7327 -0.9088
   87SAPS     P 8291   5.668   4.432  11.116  0.2101  0.0193 -0.1288
   87SAPS   O13 8292   5.630   4.572  11.157 -0.5839  0.2974 -0.3990
   87SAPS   O14 8293   5.799   4.374  11.167  0.0971  0.0514  0.0422
   87SAPS   O12 8294   5.558   4.335  11.173 -0.1450  0.3457 -0.0753
   87SAPS   O11 8295   5.649   4.419  10.964 -0.4577  0.2354  0.7465
   87SAPS    C1 8296   5.756   4.464  10.877 -0.5529 -0.3926 -0.1897
   87SAPS    HA 8297   5.709   4.497  10.781 -2.1857 -1.6278  0.1428
   87SAPS    HB 8298   5.807   4.552  10.923  0.5174 -1.2461  0.2918
   87SAPS    C2 8299   5.863   4.358  10.844  0.6106  0.6261  0.2238
   87SAPS    HS 8300   5.904   4.322  10.940  2.2802 -1.0924 -1.0503
   87SAPS   O21 8301   5.967   4.430  10.774  0.4624  0.3794  0.6007
   87SAPS   C21 8302   6.085   4.364  10.756  0.1138 -0.4850  0.2053
   87SAPS   O22 8303   6.114   4.266  10.817  0.6402  0.4459  0.2342
   87SAPS   C22 8304   6.181   4.443  10.667 -0.1285 -0.3924 -0.4780
   87SAPS   H2R 8305   6.112   4.494  10.597 -0.4459  2.6491  1.8251
   87SAPS   H2S 8306   6.237   4.517  10.728 -2.2433 -1.3016  2.7930
   87SAPS    C3 8307   5.795   4.232  10.764 -0.5169  0.0615 -0.3583
   87SAPS    HX 8308   5.721   4.186  10.833  1.4354 -0.3897  1.5214
   87SAPS    HY 8309   5.865   4.147  10.750 -1.1939 -0.7269  0.9170
   87SAPS   O31 8310   5.736   4.274  10.639 -0.1052 -0.3217  0.6404
   87SAPS   C31 8311   5.815   4.277  10.538  0.0097 -0.5660 -0.1835
   87SAPS   O32 8312   5.934   4.248  10.537  0.1115  0.0668  0.0450
   87SAPS   C32 8313   5.738   4.319  10.411 -0.9528  0.0288 -0.3911
   87SAPS   H2X 8314   5.667   4.399  10.440  0.3736  1.2040 -0.2488
   87SAPS   H2Y 8315   5.673   4.234  10.382 -0.5192  0.4558 -2.8929
   87SAPS   C23 8316   6.280   4.358  10.589 -0.2089  0.8121 -0.4640
   87SAPS   H3R 8317   6.229   4.279  10.528  0.8148 -0.3694  0.1623
   87SAPS   H3S 8318   6.343   4.297  10.657 -0.4736  0.3464 -0.6237
   87SAPS   C24 8319   6.380   4.446  10.506  0.0803  0.0395  0.7490
   87SAPS   H4R 8320   6.455   4.375  10.465 -2.0801 -1.1043 -1.4940
   87SAPS   H4S 8321   6.437   4.509  10.578  0.5496 -1.1417  1.4349
   87SAPS   C25 8322   6.299   4.521  10.400 -0.1397  0.2085  1.2954
   87SAPS   H5R 8323   6.265   4.623  10.420 -2.1882  0.1439 -1.3252
   87SAPS   C26 8324   6.278   4.476  10.276  0.3023  0.0987  0.5196
   87SAPS   H6R 8325   6.234   4.542  10.200  0.2013 -0.8153 -0.2286
   87SAPS   C27 8326   6.320   4.343  10.217  0.0547 -0.5308  0.4017
   87SAPS   H7R 8327   6.380   4.291  10.295 -0.0085 -1.2226 -0.0011
   87SAPS   H7S 8328   6.398   4.352  10.139  1.1207 -0.7391  1.4086
   87SAPS   C28 8329   6.205   4.253  10.191  0.4514  0.6566 -0.2676
   87SAPS   H8R 8330   6.141   4.255  10.280  1.2496  3.7097  0.3660
   87SAPS   C29 8331   6.166   4.186  10.083 -0.2713  0.7213 -0.7557
   87SAPS   H9R 8332   6.071   4.132  10.100 -0.7713  1.5001 -1.0404
   87SAPS  C210 8333   6.236   4.180   9.955 -0.4310  0.5798 -0.0391
   87SAPS  H10R 8334   6.185   4.103   9.894  1.0933  0.1904 -0.8822
   87SAPS  H10S 8335   6.334   4.129   9.965 -0.1568  0.7736 -1.4843
   87SAPS  C211 8336   6.244   4.309   9.879  0.8908 -0.0312 -0.2240
   87SAPS  H11R 8337   6.242   4.403   9.937  1.5912  0.2277 -0.6035
   87SAPS  C212 8338   6.263   4.321   9.742 -0.1743  0.2264 -0.2009
   87SAPS  H12R 8339   6.263   4.425   9.705  0.0464  0.6549  0.9689
   87SAPS  C213 8340   6.269   4.204   9.636 -1.2104 -0.0502  0.0183
   87SAPS  H13R 8341   6.268   4.106   9.687 -0.5073  1.8092  4.0179
   87SAPS  H13S 8342   6.363   4.199   9.577 -0.8091 -2.6953  0.7428
   87SAPS  C214 8343   6.156   4.225   9.539 -0.2586 -0.3689  0.1739
   87SAPS  H14R 8344   6.065   4.164   9.548 -1.3067  0.8127 -1.7597
   87SAPS  C215 8345   6.159   4.295   9.428  0.6189 -0.7950 -0.1087
   87SAPS  H15R 8346   6.078   4.281   9.354 -0.5826 -0.1409  1.0437
   87SAPS  C216 8347   6.281   4.376   9.386  0.2240 -0.6475 -0.3817
   87SAPS  H16R 8348   6.354   4.388   9.469 -1.1719 -1.2063  0.9824
   87SAPS  H16S 8349   6.252   4.478   9.356 -1.9996 -1.2017 -0.2968
   87SAPS  C217 8350   6.347   4.309   9.266  0.2233  0.0344 -0.1058
   87SAPS  H17R 8351   6.386   4.210   9.298  1.3148  0.4674 -0.0431
   87SAPS  H17S 8352   6.442   4.366   9.256 -0.3286  0.6158 -2.4301
   87SAPS  C218 8353   6.263   4.317   9.144 -0.2259 -0.5203  0.4202
   87SAPS  H18R 8354   6.164   4.273   9.168  0.7672 -1.5602  2.9202
   87SAPS  H18S 8355   6.323   4.268   9.064  1.2490  1.5811  0.1768
   87SAPS  C219 8356   6.244   4.468   9.092 -0.4469  0.6313  0.1186
   87SAPS  H19R 8357   6.335   4.530   9.078 -0.7644  1.4694  1.5554
   87SAPS  H19S 8358   6.184   4.518   9.170 -0.1626 -0.0967  0.8150
   87SAPS  C220 8359   6.181   4.475   8.948 -0.6792  0.0331  0.3264
   87SAPS  H20R 8360   6.132   4.573   8.926 -1.5016 -1.1236 -4.0646
   87SAPS  H20S 8361   6.102   4.399   8.930 -0.5631  0.0541 -0.2964
   87SAPS  H20T 8362   6.262   4.471   8.872 -0.4665 -0.2760  0.5703
   87SAPS   C33 8363   5.814   4.367  10.285  0.3034  0.7870 -0.5644
   87SAPS   H3X 8364   5.874   4.278  10.255 -1.5190 -0.5291 -0.4945
   87SAPS   H3Y 8365   5.877   4.453  10.315  0.7183  0.2735  0.0745
   87SAPS   C34 8366   5.705   4.395  10.179  0.4115  0.0116 -0.2782
   87SAPS   H4X 8367   5.628   4.467  10.213 -0.6385 -1.4593  0.6085
   87SAPS   H4Y 8368   5.660   4.300  10.145 -1.6281  1.7423 -2.7403
   87SAPS   C35 8369   5.776   4.440  10.055  0.0759 -0.3119 -0.6026
   87SAPS   H5X 8370   5.867   4.378  10.041  1.3580  1.8327 -2.4141
   87SAPS   H5Y 8371   5.808   4.545  10.075 -1.9459  0.2319  0.0321
   87SAPS   C36 8372   5.700   4.452   9.922 -0.4125 -0.1663 -0.6627
   87SAPS   H6X 8373   5.632   4.537   9.945  0.1723 -0.1909  1.2871
   87SAPS   H6Y 8374   5.640   4.358   9.919 -0.3898 -0.2129  0.2124
   87SAPS   C37 8375   5.793   4.468   9.807  0.2405  0.1991  0.4048
   87SAPS   H7X 8376   5.860   4.381   9.791  2.3752  2.0474 -1.4566
   87SAPS   H7Y 8377   5.862   4.554   9.821 -0.3530  1.2992 -2.6264
   87SAPS   C38 8378   5.712   4.487   9.673 -0.1962  0.0910 -0.4621
   87SAPS   H8X 8379   5.668   4.588   9.690  1.5108  1.1073 -1.7256
   87SAPS   H8Y 8380   5.640   4.403   9.661 -0.7795  0.8670 -3.2191
   87SAPS   C39 8381   5.816   4.481   9.558  0.0344 -0.8400  0.8816
   87SAPS   H9X 8382   5.842   4.376   9.534 -0.3031 -1.1440  1.8419
   87SAPS   H9Y 8383   5.907   4.532   9.596 -0.1913  1.0721 -0.9026
   87SAPS  C310 8384   5.774   4.568   9.433 -0.1560  0.2269 -0.7349
   87SAPS  H10X 8385   5.766   4.675   9.462 -0.3493  0.6986 -2.3887
   87SAPS  H10Y 8386   5.680   4.518   9.402 -0.6467  0.5876  0.1257
   87SAPS  C311 8387   5.868   4.549   9.311  0.5232 -0.8945 -0.2748
   87SAPS  H11X 8388   5.861   4.446   9.270 -0.0705 -0.5513 -1.0679
   87SAPS  H11Y 8389   5.973   4.573   9.339 -0.0769  3.9370 -1.2837
   87SAPS  C312 8390   5.841   4.641   9.193 -0.2745  0.3375 -0.0486
   87SAPS  H12X 8391   5.937   4.649   9.136  0.1434 -0.7803  0.4624
   87SAPS  H12Y 8392   5.794   4.735   9.229 -0.8313  0.8010 -1.8826
   87SAPS  C313 8393   5.739   4.567   9.103  0.6068  0.7596  0.2562
   87SAPS  H13X 8394   5.654   4.525   9.161  1.2068 -2.3829 -0.9766
   87SAPS  H13Y 8395   5.798   4.482   9.063 -0.0872 -1.1957  3.0484
   87SAPS  C314 8396   5.704   4.655   8.981 -0.7185  0.6441  0.0241
   87SAPS  H14X 8397   5.790   4.705   8.931 -0.0449 -0.9881 -0.5220
   87SAPS  H14Y 8398   5.634   4.734   9.015 -1.6378 -0.4779  0.7892
   87SAPS  C315 8399   5.623   4.576   8.877 -0.6240 -0.2299  0.8543
   87SAPS  H15X 8400   5.707   4.529   8.822  0.1322  2.7320 -0.7289
   87SAPS  H15Y 8401   5.583   4.653   8.808  0.0313 -0.1720  0.5332
   87SAPS  C316 8402   5.526   4.480   8.925 -0.6771 -0.2679  0.2118
   87SAPS  H16X 8403   5.451   4.516   9.000 -1.1757 -1.4937  0.3215
   87SAPS  H16Y 8404   5.574   4.389   8.965 -3.2921 -1.1947  1.5039
   87SAPS  C317 8405   5.432   4.419   8.811  0.1330 -0.5036  0.0144
   87SAPS  H17X 8406   5.505   4.356   8.756 -0.8402 -1.5698 -0.0821
   87SAPS  H17Y 8407   5.395   4.505   8.751  1.0458  1.1515  1.6974
   87SAPS  C318 8408   5.325   4.318   8.855 -0.0130  0.3419  0.1707
   87SAPS  H18X 8409   5.275   4.283   8.762 -0.4379 -0.6198  0.7469
   87SAPS  H18Y 8410   5.255   4.364   8.929  1.2555  2.0637  0.3695
   87SAPS  H18Z 8411   5.365   4.226   8.901  0.9890  1.0051  0.6669
   88SAPS     N 8412   2.976   2.678  10.752 -0.4244 -0.3750  0.4836
   88SAPS   HN1 8413   3.076   2.666  10.727  0.2341 -2.3102  3.5088
   88SAPS   HN2 8414   2.911   2.603  10.718 -0.1691 -0.9104  1.1617
   88SAPS   HN3 8415   2.946   2.768  10.708 -0.9699 -0.3607  0.8676
   88SAPS   C12 8416   2.974   2.683  10.900  0.0009  0.6437  0.1110
   88SAPS  H12A 8417   2.878   2.668  10.945  0.4986  0.2380  1.0641
   88SAPS   C13 8418   3.080   2.570  10.944 -0.1901 -0.3568  0.5998
   88SAPS  O13A 8419   3.120   2.480  10.867  0.0126 -0.3266  0.2769
   88SAPS  O13B 8420   3.130   2.594  11.056  0.1181 -0.6261 -0.4983
   88SAPS   C11 8421   3.012   2.820  10.951 -0.3605 -1.1146  0.0094
   88SAPS  H11A 8422   3.112   2.833  10.905  0.9780 -2.3691  2.3730
   88SAPS  H11B 8423   3.020   2.822  11.062  0.3185  0.0360 -0.0438
   88SAPS     P 8424   2.951   3.039  10.824 -0.3390 -0.1431  0.0218
   88SAPS   O13 8425   2.839   3.134  10.815  0.2779  0.0696  0.4784
   88SAPS   O14 8426   3.075   3.098  10.874 -0.0310  0.3818  0.2679
   88SAPS   O12 8427   2.921   2.921  10.915  0.9579 -0.9045 -0.2730
   88SAPS   O11 8428   2.972   2.954  10.690 -0.2439 -0.1770 -0.3394
   88SAPS    C1 8429   2.880   2.985  10.581  0.0738  0.0432 -0.9068
   88SAPS    HA 8430   2.788   2.930  10.607 -0.2873  0.4995 -1.2051
   88SAPS    HB 8431   2.846   3.090  10.569 -0.7174  0.1102  1.4654
   88SAPS    C2 8432   2.932   2.939  10.440  0.6960 -0.2700 -0.1548
   88SAPS    HS 8433   2.854   2.985  10.376  1.5107  3.0578  1.0757
   88SAPS   O21 8434   2.943   2.790  10.443  0.6772 -0.9451  0.5056
   88SAPS   C21 8435   2.890   2.728  10.335  0.0221  0.1424  0.0433
   88SAPS   O22 8436   2.827   2.780  10.247  0.0122 -0.0188 -0.1074
   88SAPS   C22 8437   2.944   2.583  10.327 -0.0059 -0.8021  0.0269
   88SAPS   H2R 8438   3.054   2.598  10.336 -0.1427  0.0235  0.4265
   88SAPS   H2S 8439   2.920   2.522  10.416 -1.5026 -0.8861 -0.4105
   88SAPS    C3 8440   3.076   2.995  10.415 -0.2693  0.0981  0.1950
   88SAPS    HX 8441   3.153   2.927  10.455  1.2463  1.9056  0.5021
   88SAPS    HY 8442   3.088   3.092  10.469  2.9017 -1.9970  3.7684
   88SAPS   O31 8443   3.112   3.004  10.277 -0.1376  0.0047  0.3658
   88SAPS   C31 8444   3.233   3.062  10.265 -0.6241 -0.0771 -0.8778
   88SAPS   O32 8445   3.300   3.090  10.365  0.2385 -0.0720 -0.0030
   88SAPS   C32 8446   3.260   3.101  10.121 -0.4734  0.4096  0.1040
   88SAPS   H2X 8447   3.165   3.114  10.065 -0.0983  0.0734 -0.6218
   88SAPS   H2Y 8448   3.310   3.015  10.072 -0.4558  0.5965 -0.2067
   88SAPS   C23 8449   2.897   2.495  10.208 -0.4951  0.1683  0.2654
   88SAPS   H3R 8450   2.789   2.516  10.192 -0.6981 -0.1467  1.1939
   88SAPS   H3S 8451   2.906   2.396  10.258 -2.2184  1.0768  2.5697
   88SAPS   C24 8452   2.977   2.492  10.077  0.1833 -0.5954  0.0655
   88SAPS   H4R 8453   2.959   2.393  10.031  1.9581 -0.9476  0.0748
   88SAPS   H4S 8454   3.086   2.504  10.095 -0.2049  2.0016  1.1730
   88SAPS   C25 8455   2.917   2.604   9.996  0.0762  0.2124  0.2927
   88SAPS   H5R 8456   2.895   2.705  10.035  1.6730  0.6733  0.0499
   88SAPS   C26 8457   2.883   2.593   9.865 -0.4218  0.3996 -0.2209
   88SAPS   H6R 8458   2.825   2.679   9.827 -1.0508  0.6880  1.3174
   88SAPS   C27 8459   2.909   2.467   9.779  0.2653 -0.5746 -0.4833
   88SAPS   H7R 8460   2.986   2.402   9.824  1.3676  0.7520 -0.3905
   88SAPS   H7S 8461   2.959   2.500   9.685  1.9593  0.6803  0.8229
   88SAPS   C28 8462   2.788   2.387   9.744  0.1943 -0.4254 -0.2911
   88SAPS   H8R 8463   2.769   2.316   9.825 -0.0348 -0.1343 -0.0881
   88SAPS   C29 8464   2.700   2.415   9.650  0.4730  0.3993  0.4370
   88SAPS   H9R 8465   2.626   2.337   9.628  1.6026 -0.7151  0.5078
   88SAPS  C210 8466   2.685   2.538   9.557 -0.2638  0.3612 -0.3205
   88SAPS  H10R 8467   2.751   2.625   9.579  1.5278 -0.8759 -0.6277
   88SAPS  H10S 8468   2.583   2.582   9.558 -0.0032  0.9992 -0.8706
   88SAPS  C211 8469   2.696   2.490   9.420  0.2451  0.3746 -0.0386
   88SAPS  H11R 8470   2.601   2.467   9.369  1.0704 -1.0359 -0.9884
   88SAPS  C212 8471   2.803   2.483   9.336  0.5755 -0.0482  0.9589
   88SAPS  H12R 8472   2.799   2.429   9.241 -0.0903  0.1179  0.8881
   88SAPS  C213 8473   2.936   2.529   9.372 -0.0341 -0.0768 -0.1488
   88SAPS  H13R 8474   3.009   2.445   9.367 -0.5923 -0.5742  0.0142
   88SAPS  H13S 8475   2.934   2.561   9.478 -1.3358  0.6480 -0.3773
   88SAPS  C214 8476   2.999   2.634   9.277  0.2035  0.9730 -0.1391
   88SAPS  H14R 8477   2.989   2.730   9.328 -0.4144  0.1652  1.3122
   88SAPS  C215 8478   3.053   2.619   9.154  0.9464  0.6138 -0.6664
   88SAPS  H15R 8479   3.097   2.704   9.100  1.2673  0.8733 -0.0047
   88SAPS  C216 8480   3.067   2.488   9.071  0.0686 -0.5944 -0.2964
   88SAPS  H16R 8481   3.002   2.493   8.981 -3.2095  2.2496  1.9816
   88SAPS  H16S 8482   3.024   2.397   9.118  1.3915 -1.9392 -1.5643
   88SAPS  C217 8483   3.218   2.464   9.042 -0.2268  0.4359 -0.2230
   88SAPS  H17R 8484   3.281   2.436   9.129 -2.4121 -3.3811  0.3465
   88SAPS  H17S 8485   3.267   2.561   9.018 -0.5337  0.3662 -1.1675
   88SAPS  C218 8486   3.256   2.356   8.936  0.5456  0.5943  0.9097
   88SAPS  H18R 8487   3.220   2.260   8.978 -2.1675  0.1171 -2.0942
   88SAPS  H18S 8488   3.363   2.359   8.906  0.5863  0.2290  1.0100
   88SAPS  C219 8489   3.184   2.374   8.800  0.2922 -0.2470  0.4907
   88SAPS  H19R 8490   3.209   2.472   8.755  0.9618 -0.1561  1.0406
   88SAPS  H19S 8491   3.074   2.369   8.805  0.3667 -2.5347  1.1468
   88SAPS  C220 8492   3.237   2.270   8.692  0.2961 -0.6305 -0.5117
   88SAPS  H20R 8493   3.343   2.298   8.674  0.3186  0.7436  1.4161
   88SAPS  H20S 8494   3.179   2.297   8.602 -0.6831  1.7480  0.7322
   88SAPS  H20T 8495   3.240   2.161   8.717  0.0084 -0.5737 -0.2192
   88SAPS   C33 8496   3.359   3.218  10.103 -0.3188  0.0195  0.0166
   88SAPS   H3X 8497   3.466   3.197  10.126  0.0943  2.3766  0.5184
   88SAPS   H3Y 8498   3.320   3.309  10.153 -0.7963  0.3685 -0.9702
   88SAPS   C34 8499   3.364   3.270   9.954 -0.1328 -0.1631  0.4928
   88SAPS   H4X 8500   3.437   3.353   9.948  0.9468 -1.1693 -1.1754
   88SAPS   H4Y 8501   3.268   3.309   9.914  0.4532  3.0270  1.8825
   88SAPS   C35 8502   3.386   3.160   9.838 -0.8190  0.1464  0.0097
   88SAPS   H5X 8503   3.311   3.079   9.834  0.1015 -0.7098 -0.3846
   88SAPS   H5Y 8504   3.482   3.115   9.871  0.1686  1.5853 -0.8013
   88SAPS   C36 8505   3.426   3.215   9.693 -0.3384 -0.3243  0.0960
   88SAPS   H6X 8506   3.502   3.296   9.701 -1.8300  1.2734 -0.9891
   88SAPS   H6Y 8507   3.333   3.258   9.650  1.4410  1.2814 -2.4005
   88SAPS   C37 8508   3.468   3.109   9.593 -0.0338  0.0521 -0.1628
   88SAPS   H7X 8509   3.381   3.058   9.545 -0.8729  1.8810 -0.6996
   88SAPS   H7Y 8510   3.523   3.031   9.649 -1.3767  0.2260  1.4730
   88SAPS   C38 8511   3.552   3.168   9.478 -0.5656 -0.3235 -0.1669
   88SAPS   H8X 8512   3.624   3.104   9.423 -2.6617 -1.4598 -1.7423
   88SAPS   H8Y 8513   3.608   3.253   9.522 -0.4462 -0.4032 -0.1631
   88SAPS   C39 8514   3.459   3.231   9.370  0.9594  0.2604 -0.4163
   88SAPS   H9X 8515   3.380   3.298   9.410  0.0143  0.2594 -2.1883
   88SAPS   H9Y 8516   3.410   3.136   9.338  2.0830 -1.1592  1.8454
   88SAPS  C310 8517   3.543   3.295   9.261 -0.1530 -0.1176 -0.4730
   88SAPS  H10X 8518   3.637   3.235   9.257 -0.3882 -1.0779  3.7506
   88SAPS  H10Y 8519   3.579   3.395   9.294  1.7930 -1.0526  0.4470
   88SAPS  C311 8520   3.476   3.297   9.122 -0.7725 -0.1673 -0.1173
   88SAPS  H11X 8521   3.556   3.345   9.061 -1.0104  0.2166 -0.1266
   88SAPS  H11Y 8522   3.379   3.349   9.124 -0.5846  0.5466  4.8522
   88SAPS  C312 8523   3.469   3.157   9.058 -0.3113  0.1144 -0.3101
   88SAPS  H12X 8524   3.386   3.100   9.104  1.1025 -2.3485 -0.6550
   88SAPS  H12Y 8525   3.562   3.101   9.085 -1.7547 -1.0425  2.7602
   88SAPS  C313 8526   3.433   3.168   8.906 -0.8580 -0.2614 -0.5159
   88SAPS  H13X 8527   3.325   3.182   8.888 -0.7184  1.2584 -0.3063
   88SAPS  H13Y 8528   3.451   3.067   8.863  0.8851 -0.6361  0.9372
   88SAPS  C314 8529   3.515   3.264   8.822 -0.2317 -0.1743 -0.5416
   88SAPS  H14X 8530   3.521   3.365   8.867 -1.8263 -1.3526  2.6317
   88SAPS  H14Y 8531   3.472   3.273   8.720 -0.9622  1.0970 -0.1485
   88SAPS  C315 8532   3.663   3.215   8.814 -0.6756 -0.4892  0.1469
   88SAPS  H15X 8533   3.670   3.111   8.778  0.3649 -0.5500  0.4795
   88SAPS  H15Y 8534   3.698   3.210   8.920  0.4631 -0.0853 -0.1923
   88SAPS  C316 8535   3.749   3.299   8.720 -0.7968  0.2490 -0.0558
   88SAPS  H16X 8536   3.853   3.273   8.748 -1.3206 -0.5366  1.2492
   88SAPS  H16Y 8537   3.726   3.407   8.738  0.8959  0.6938 -0.3706
   88SAPS  C317 8538   3.737   3.251   8.566 -0.3654  0.8288 -0.2357
   88SAPS  H17X 8539   3.656   3.299   8.507  0.8416  2.5484 -0.5540
   88SAPS  H17Y 8540   3.704   3.145   8.570 -1.8393  1.2299 -0.9011
   88SAPS  C318 8541   3.869   3.243   8.493  0.1349 -0.2759  0.6904
   88SAPS  H18X 8542   3.862   3.197   8.392 -4.5896 -0.2282  0.7664
   88SAPS  H18Y 8543   3.928   3.178   8.561 -0.5259 -1.7071 -0.0522
   88SAPS  H18Z 8544   3.925   3.338   8.478  0.9992 -0.9303 -0.3707
   89SAPS     N 8545   2.302   5.928  10.806  0.1563  0.4480  0.0828
   89SAPS   HN1 8546   2.293   5.861  10.727  1.6810  1.5139 -1.0616
   89SAPS   HN2 8547   2.212   5.972  10.836  1.4310  2.4858  1.1186
   89SAPS   HN3 8548   2.365   6.005  10.778  0.9007  0.3424  1.3684
   89SAPS   C12 8549   2.350   5.852  10.929 -0.3833  0.4326 -0.3557
   89SAPS  H12A 8550   2.371   5.931  11.000  1.1045  0.2719 -0.5894
   89SAPS   C13 8551   2.243   5.764  11.003  0.1363  1.0292 -0.0461
   89SAPS  O13A 8552   2.123   5.757  10.971  0.1016  0.0461  0.3332
   89SAPS  O13B 8553   2.281   5.722  11.116 -0.5185 -0.1943  0.2259
   89SAPS   C11 8554   2.479   5.768  10.899 -0.7351  1.0063 -0.3912
   89SAPS  H11A 8555   2.444   5.675  10.851  2.4580  0.7819 -2.6472
   89SAPS  H11B 8556   2.523   5.731  10.994 -0.9712 -0.7156 -0.9313
   89SAPS     P 8557   2.712   5.783  10.773 -0.2401 -0.1074 -0.5147
   89SAPS   O13 8558   2.762   5.871  10.662  0.1172 -0.1902  0.0793
   89SAPS   O14 8559   2.803   5.757  10.884  0.4387  0.6224 -0.3356
   89SAPS   O12 8560   2.585   5.846  10.836 -0.3114  0.0692  0.0910
   89SAPS   O11 8561   2.647   5.643  10.716  0.2480 -0.3500  0.3287
   89SAPS    C1 8562   2.566   5.661  10.597 -0.2990 -0.1520  0.2765
   89SAPS    HA 8563   2.484   5.588  10.609 -1.2227  0.4480 -1.8919
   89SAPS    HB 8564   2.522   5.762  10.584 -1.6462 -0.3754  2.4850
   89SAPS    C2 8565   2.644   5.616  10.469 -0.4458 -0.1334 -0.5412
   89SAPS    HS 8566   2.722   5.689  10.441 -1.0571  1.0469  0.7366
   89SAPS   O21 8567   2.546   5.616  10.362 -0.3111 -0.3314 -0.0276
   89SAPS   C21 8568   2.510   5.734  10.321  0.0272  0.8027 -0.0928
   89SAPS   O22 8569   2.565   5.836  10.357  0.1477 -0.0808 -0.3454
   89SAPS   C22 8570   2.402   5.717  10.212 -0.5038  0.8079 -0.5489
   89SAPS   H2R 8571   2.420   5.620  10.160 -2.1426  1.0259 -1.6009
   89SAPS   H2S 8572   2.304   5.710  10.264  0.9807 -0.6083  2.2799
   89SAPS    C3 8573   2.709   5.476  10.486  0.0289 -0.1192  0.0311
   89SAPS    HX 8574   2.632   5.406  10.524  0.9497  0.6143  3.5870
   89SAPS    HY 8575   2.781   5.484  10.570 -0.0666  2.2279 -0.0376
   89SAPS   O31 8576   2.786   5.435  10.370 -0.0007 -0.2728  0.0523
   89SAPS   C31 8577   2.715   5.377  10.276 -0.0462 -0.2777 -1.2954
   89SAPS   O32 8578   2.604   5.329  10.281  0.4569 -0.2871 -0.1339
   89SAPS   C32 8579   2.798   5.380  10.151 -0.3582 -0.3231 -0.3146
   89SAPS   H2X 8580   2.869   5.295  10.163 -1.4300 -1.3645 -1.1582
   89SAPS   H2Y 8581   2.850   5.478  10.155 -1.2853  0.1417  1.1393
   89SAPS   C23 8582   2.415   5.828  10.106 -0.3575  0.1147  0.3401
   89SAPS   H3R 8583   2.518   5.863  10.086 -1.4738  2.6008 -1.7731
   89SAPS   H3S 8584   2.363   5.923  10.132 -2.2861 -0.3473 -1.5184
   89SAPS   C24 8585   2.367   5.769   9.970 -0.5903  0.4151  0.1352
   89SAPS   H4R 8586   2.266   5.734   9.999 -0.8010  0.2567 -0.7824
   89SAPS   H4S 8587   2.422   5.678   9.939  0.8814  1.6540 -0.9924
   89SAPS   C25 8588   2.360   5.879   9.871 -0.1389 -0.1144 -0.2469
   89SAPS   H5R 8589   2.318   5.969   9.919  0.5540 -0.2178  0.5794
   89SAPS   C26 8590   2.398   5.884   9.740 -0.2212 -0.1824 -1.1269
   89SAPS   H6R 8591   2.374   5.973   9.679 -1.3916 -0.0315 -0.4601
   89SAPS   C27 8592   2.462   5.763   9.679  0.1256  0.2754  0.0142
   89SAPS   H7R 8593   2.377   5.704   9.638 -1.4340  1.4151  1.4225
   89SAPS   H7S 8594   2.510   5.702   9.758 -0.0923 -0.0055 -0.0708
   89SAPS   C28 8595   2.568   5.800   9.573  0.0528 -0.5875  0.9607
   89SAPS   H8R 8596   2.643   5.878   9.593  0.9279 -1.5592  1.5970
   89SAPS   C29 8597   2.562   5.749   9.448 -0.2337  0.5466 -0.7773
   89SAPS   H9R 8598   2.637   5.784   9.376 -0.9496  2.8861 -0.4594
   89SAPS  C210 8599   2.453   5.660   9.383  0.3379 -0.1252  0.4980
   89SAPS  H10R 8600   2.355   5.674   9.433  0.1093 -2.5226  0.8499
   89SAPS  H10S 8601   2.466   5.551   9.401 -0.9369  0.0426  2.6942
   89SAPS  C211 8602   2.448   5.669   9.229  0.8578 -0.4349  0.2700
   89SAPS  H11R 8603   2.500   5.589   9.175 -3.1251 -2.7611 -0.5401
   89SAPS  C212 8604   2.390   5.768   9.160 -0.0384 -0.1036 -0.1421
   89SAPS  H12R 8605   2.373   5.755   9.052  0.5388 -0.3775 -0.1998
   89SAPS  C213 8606   2.322   5.887   9.221  0.7260  0.6597  0.2373
   89SAPS  H13R 8607   2.281   5.860   9.321 -0.3937  0.7688 -0.1714
   89SAPS  H13S 8608   2.235   5.916   9.158  0.3126 -0.9117  0.0272
   89SAPS  C214 8609   2.421   5.998   9.242 -0.2139  0.0345  0.7549
   89SAPS  H14R 8610   2.461   6.004   9.345  3.4246  3.0717 -0.6062
   89SAPS  C215 8611   2.448   6.096   9.147  0.4801  0.6657 -0.9337
   89SAPS  H15R 8612   2.534   6.155   9.180  0.2311 -0.1166  1.2939
   89SAPS  C216 8613   2.397   6.112   9.004 -0.5532  0.1406  0.0772
   89SAPS  H16R 8614   2.352   6.213   8.993 -2.2762 -0.5738  0.2179
   89SAPS  H16S 8615   2.325   6.029   8.990 -2.0266  1.3177  0.3459
   89SAPS  C217 8616   2.508   6.106   8.902  0.3923  0.3812 -0.6159
   89SAPS  H17R 8617   2.556   6.006   8.909 -1.0869 -0.3028  0.4270
   89SAPS  H17S 8618   2.578   6.182   8.942 -0.1597 -0.3118  1.8242
   89SAPS  C218 8619   2.464   6.121   8.756  0.0317  0.0164 -0.2488
   89SAPS  H18R 8620   2.464   6.230   8.734  0.1320  0.3157  1.1433
   89SAPS  H18S 8621   2.361   6.079   8.748  0.1662 -0.4090  0.2389
   89SAPS  C219 8622   2.566   6.069   8.655  0.0656 -0.6056  0.2375
   89SAPS  H19R 8623   2.581   5.960   8.668 -3.2305 -1.3270 -0.9218
   89SAPS  H19S 8624   2.663   6.123   8.665 -0.0226 -0.6131  1.1436
   89SAPS  C220 8625   2.515   6.086   8.508 -0.3165 -0.2836 -0.6922
   89SAPS  H20R 8626   2.598   6.063   8.438  0.5784 -0.1279  0.2879
   89SAPS  H20S 8627   2.489   6.192   8.486 -2.9970 -1.3634 -3.4780
   89SAPS  H20T 8628   2.434   6.014   8.485  0.2870 -0.3238 -2.9657
   89SAPS   C33 8629   2.716   5.341  10.022 -0.1924 -0.0781  0.3327
   89SAPS   H3X 8630   2.672   5.239  10.034  0.2437 -0.5055 -1.4509
   89SAPS   H3Y 8631   2.782   5.339   9.933 -1.0558 -1.3381 -0.3156
   89SAPS   C34 8632   2.604   5.445   9.988 -0.3676 -0.5692 -0.4297
   89SAPS   H4X 8633   2.646   5.548   9.985  0.0187 -0.6974  0.3309
   89SAPS   H4Y 8634   2.526   5.446  10.067 -0.2383 -0.9283 -0.2956
   89SAPS   C35 8635   2.531   5.407   9.856  0.2093 -0.3990 -0.5846
   89SAPS   H5X 8636   2.436   5.463   9.841 -0.1721 -0.9081 -0.1346
   89SAPS   H5Y 8637   2.516   5.297   9.865  0.6436 -0.5169 -1.2981
   89SAPS   C36 8638   2.606   5.405   9.720  0.4785 -0.0318 -0.7477
   89SAPS   H6X 8639   2.713   5.381   9.736 -0.1155 -2.9510 -0.6511
   89SAPS   H6Y 8640   2.593   5.503   9.670 -1.1061  0.8342  1.1913
   89SAPS   C37 8641   2.556   5.295   9.629 -0.5646 -0.0704 -0.0171
   89SAPS   H7X 8642   2.448   5.312   9.614 -0.7856 -2.9499 -2.7332
   89SAPS   H7Y 8643   2.569   5.198   9.680  0.7892 -0.1434 -0.4584
   89SAPS   C38 8644   2.617   5.295   9.495 -0.2408 -0.2562 -0.0818
   89SAPS   H8X 8645   2.722   5.259   9.497 -0.7290 -1.7150  0.9500
   89SAPS   H8Y 8646   2.636   5.400   9.463  0.8236  0.3770  2.3889
   89SAPS   C39 8647   2.531   5.234   9.373 -0.3426  0.4659 -0.2247
   89SAPS   H9X 8648   2.432   5.285   9.368 -0.0418  0.9458 -2.5090
   89SAPS   H9Y 8649   2.500   5.132   9.405 -2.4494  0.4483 -2.0796
   89SAPS  C310 8650   2.601   5.233   9.238 -0.2337 -0.0956 -0.5002
   89SAPS  H10X 8651   2.679   5.154   9.233 -1.6711 -1.6514  0.3206
   89SAPS  H10Y 8652   2.650   5.330   9.216 -1.1122  0.6844  0.8378
   89SAPS  C311 8653   2.500   5.209   9.116 -0.2895 -0.8139  0.8707
   89SAPS  H11X 8654   2.558   5.215   9.021  0.4801  0.9392  1.4147
   89SAPS  H11Y 8655   2.419   5.281   9.096 -1.9835 -3.0188 -0.7364
   89SAPS  C312 8656   2.420   5.077   9.126  0.2823 -0.6077  0.4250
   89SAPS  H12X 8657   2.338   5.094   9.199  1.3668  2.5616  1.0654
   89SAPS  H12Y 8658   2.488   4.996   9.160  1.9163  0.1840 -0.8182
   89SAPS  C313 8659   2.350   5.045   8.992 -0.1974  0.7726  0.5014
   89SAPS  H13X 8660   2.278   5.120   8.953  1.8853  3.0318  0.8031
   89SAPS  H13Y 8661   2.287   4.956   9.011  0.1713 -0.1669 -2.2397
   89SAPS  C314 8662   2.448   5.007   8.878  0.2815 -0.2485 -0.2741
   89SAPS  H14X 8663   2.532   4.960   8.934 -0.1082 -0.0993  0.4483
   89SAPS  H14Y 8664   2.478   5.099   8.823  1.6562  1.0697  2.4551
   89SAPS  C315 8665   2.383   4.910   8.774 -0.1774 -0.0181 -0.9822
   89SAPS  H15X 8666   2.294   4.949   8.720  0.9409  1.5634 -1.7745
   89SAPS  H15Y 8667   2.348   4.818   8.826  0.7351  0.6162  0.8592
   89SAPS  C316 8668   2.487   4.883   8.666 -0.3040  0.2366  0.1699
   89SAPS  H16X 8669   2.581   4.839   8.706  1.8500  2.3498 -2.1734
   89SAPS  H16Y 8670   2.518   4.986   8.639 -1.5902  0.7390  0.5455
   89SAPS  C317 8671   2.445   4.822   8.534  0.0361  0.9409 -0.0910
   89SAPS  H17X 8672   2.532   4.839   8.467 -0.3444  0.1887 -0.8100
   89SAPS  H17Y 8673   2.364   4.884   8.491  0.1079  0.6114 -0.7203
   89SAPS  C318 8674   2.410   4.676   8.549  0.6794 -0.0991  0.6656
   89SAPS  H18X 8675   2.365   4.633   8.457 -1.4531 -1.1140  2.0906
   89SAPS  H18Y 8676   2.333   4.671   8.629  1.3456  3.4648  1.7233
   89SAPS  H18Z 8677   2.502   4.622   8.581  1.2612 -0.3844 -1.3579
   90SAPS     N 8678   3.509   5.905  11.012  0.8537  0.0435 -0.3590
   90SAPS   HN1 8679   3.522   5.874  10.913  1.4116 -1.0637  0.0518
   90SAPS   HN2 8680   3.423   5.863  11.053 -0.0938  1.6856 -0.5449
   90SAPS   HN3 8681   3.505   6.008  11.025  1.3496 -0.2187  2.2803
   90SAPS   C12 8682   3.627   5.844  11.074 -0.8842 -0.3500 -0.0886
   90SAPS  H12A 8683   3.710   5.908  11.048 -1.4036  1.1477  1.7405
   90SAPS   C13 8684   3.626   5.848  11.220  1.0991  0.5506 -0.7735
   90SAPS  O13A 8685   3.518   5.866  11.289  0.1306 -0.0634  0.5117
   90SAPS  O13B 8686   3.734   5.816  11.274 -0.3473  0.0557 -0.6723
   90SAPS   C11 8687   3.634   5.697  11.025 -1.1354 -0.3734  0.7702
   90SAPS  H11A 8688   3.543   5.649  11.066 -0.6052 -0.6235  1.6867
   90SAPS  H11B 8689   3.715   5.635  11.070 -1.7969 -2.1947 -0.4360
   90SAPS     P 8690   3.757   5.671  10.787 -0.0077 -0.0651  0.2457
   90SAPS   O13 8691   3.824   5.803  10.783 -0.4933  0.6288 -0.3055
   90SAPS   O14 8692   3.832   5.556  10.839 -0.4252  0.2352  0.2638
   90SAPS   O12 8693   3.626   5.691  10.877  0.3800  0.0864  0.0414
   90SAPS   O11 8694   3.715   5.634  10.641 -0.5683 -0.2762  0.2179
   90SAPS    C1 8695   3.608   5.694  10.571  0.0647  0.3640 -0.2522
   90SAPS    HA 8696   3.525   5.620  10.569 -0.3341  0.8021 -1.9735
   90SAPS    HB 8697   3.561   5.778  10.626 -0.5397  0.4701 -0.9064
   90SAPS    C2 8698   3.642   5.745  10.428  0.2824 -0.3840  1.0069
   90SAPS    HS 8699   3.558   5.802  10.383  1.0006 -0.5000 -0.5332
   90SAPS   O21 8700   3.669   5.636  10.339  0.5924  0.3209  0.6108
   90SAPS   C21 8701   3.553   5.573  10.302  0.1268  0.0224  0.3222
   90SAPS   O22 8702   3.439   5.607  10.337 -0.6347  0.8623 -0.0917
   90SAPS   C22 8703   3.574   5.456  10.205  0.3593 -0.2107  0.2263
   90SAPS   H2R 8704   3.565   5.362  10.264 -0.7789  0.0708  0.5300
   90SAPS   H2S 8705   3.485   5.466  10.140 -0.8724  0.6163  1.9423
   90SAPS    C3 8706   3.760   5.846  10.426  0.2836  0.2285 -0.1387
   90SAPS    HX 8707   3.842   5.786  10.472 -0.5360 -0.7498  0.0689
   90SAPS    HY 8708   3.740   5.925  10.502  3.0937  0.3907  0.5586
   90SAPS   O31 8709   3.790   5.896  10.293 -0.0588 -0.3123 -0.2266
   90SAPS   C31 8710   3.902   5.962  10.285 -0.0202 -0.2232  0.2950
   90SAPS   O32 8711   3.982   5.983  10.375  0.2705  0.3887 -0.5101
   90SAPS   C32 8712   3.920   6.011  10.141 -0.2316  0.9821 -0.4983
   90SAPS   H2X 8713   4.018   6.064  10.136  1.3179 -1.5658  0.8049
   90SAPS   H2Y 8714   3.834   6.073  10.109 -0.0316  1.7135  0.3599
   90SAPS   C23 8715   3.709   5.453  10.123 -0.1372  0.2069 -0.7723
   90SAPS   H3R 8716   3.721   5.352  10.079  2.8767 -0.1875  0.6810
   90SAPS   H3S 8717   3.794   5.469  10.193 -0.5617  0.1580 -0.2337
   90SAPS   C24 8718   3.721   5.567  10.013 -0.4132 -0.1734 -0.3999
   90SAPS   H4R 8719   3.814   5.580   9.954 -1.6006  0.1571 -2.2880
   90SAPS   H4S 8720   3.700   5.665  10.060 -0.7502 -1.8457  3.2991
   90SAPS   C25 8721   3.606   5.536   9.905 -0.3750 -0.1966 -0.7710
   90SAPS   H5R 8722   3.511   5.570   9.950  1.3561  1.8160  1.6267
   90SAPS   C26 8723   3.611   5.489   9.782  0.6345 -0.0918 -0.0247
   90SAPS   H6R 8724   3.513   5.460   9.741 -0.2709 -0.0784  2.0200
   90SAPS   C27 8725   3.729   5.436   9.701 -0.7826  0.4303 -0.9702
   90SAPS   H7R 8726   3.822   5.444   9.762 -0.5633 -2.4664 -0.7775
   90SAPS   H7S 8727   3.757   5.496   9.611  1.2610 -1.2182 -1.5255
   90SAPS   C28 8728   3.720   5.285   9.668 -0.5168 -0.9280 -0.3970
   90SAPS   H8R 8729   3.761   5.228   9.753 -0.7928  0.7971  0.9298
   90SAPS   C29 8730   3.676   5.227   9.550  0.2225  0.0908  0.1208
   90SAPS   H9R 8731   3.689   5.118   9.547 -1.1242 -0.1530  1.6936
   90SAPS  C210 8732   3.623   5.298   9.425  0.2007  0.5321 -0.3622
   90SAPS  H10R 8733   3.678   5.395   9.420  0.8432  0.4612  2.8344
   90SAPS  H10S 8734   3.520   5.328   9.452  1.0825  2.2244  1.3903
   90SAPS  C211 8735   3.633   5.210   9.308 -0.0749 -0.8780 -1.2373
   90SAPS  H11R 8736   3.729   5.229   9.258 -0.2262  0.1994 -1.1542
   90SAPS  C212 8737   3.534   5.127   9.262 -0.5914 -0.0557 -0.3069
   90SAPS  H12R 8738   3.548   5.063   9.174 -1.3081  0.2056 -0.6188
   90SAPS  C213 8739   3.397   5.108   9.325  0.8847 -0.0764 -0.0416
   90SAPS  H13R 8740   3.344   5.205   9.336 -3.0621 -2.1338  0.7897
   90SAPS  H13S 8741   3.419   5.065   9.425 -1.1302 -1.5170 -0.1550
   90SAPS  C214 8742   3.301   5.001   9.262  0.1085 -0.6910 -0.4638
   90SAPS  H14R 8743   3.341   4.899   9.269  1.6354 -0.0710  0.3380
   90SAPS  C215 8744   3.184   5.018   9.199  0.6505 -0.0405  0.2284
   90SAPS  H15R 8745   3.134   4.926   9.164 -1.3398  1.0382  0.0745
   90SAPS  C216 8746   3.118   5.141   9.152 -0.0133 -0.0174 -0.2825
   90SAPS  H16R 8747   3.171   5.225   9.201  0.2430 -0.7212  0.6787
   90SAPS  H16S 8748   3.010   5.149   9.179  0.2774  1.3063  0.6107
   90SAPS  C217 8749   3.132   5.151   8.996  0.1929 -0.2238  0.3054
   90SAPS  H17R 8750   3.062   5.084   8.942  0.2751  1.6412 -2.3187
   90SAPS  H17S 8751   3.239   5.132   8.972  0.3244 -1.5228  1.7775
   90SAPS  C218 8752   3.102   5.295   8.949  0.1980  0.1429  0.3356
   90SAPS  H18R 8753   3.174   5.364   8.998  1.7622  1.9170 -3.9292
   90SAPS  H18S 8754   2.997   5.313   8.979  0.1605  0.0789  0.2430
   90SAPS  C219 8755   3.110   5.325   8.801 -0.5996 -0.2617  0.7431
   90SAPS  H19R 8756   3.036   5.257   8.753  0.3588  0.3324 -1.6808
   90SAPS  H19S 8757   3.215   5.299   8.776 -1.2478 -1.0788 -1.3272
   90SAPS  C220 8758   3.084   5.471   8.757 -0.1617  0.0399 -0.1811
   90SAPS  H20R 8759   3.176   5.529   8.779 -0.4140 -0.2150  1.7275
   90SAPS  H20S 8760   2.990   5.511   8.801  1.8948  1.2436  3.6199
   90SAPS  H20T 8761   3.079   5.478   8.647  0.0620  0.5171 -0.1673
   90SAPS   C33 8762   3.934   5.904  10.031  0.1471 -0.9372  0.1130
   90SAPS   H3X 8763   3.849   5.833  10.039 -0.3514 -0.2478  1.1936
   90SAPS   H3Y 8764   4.025   5.841  10.046  0.0619 -1.0501  0.1508
   90SAPS   C34 8765   3.944   5.961   9.891 -0.4349 -0.2434  0.2892
   90SAPS   H4X 8766   4.030   6.030   9.878  0.7644 -1.8138 -0.4071
   90SAPS   H4Y 8767   3.854   6.017   9.859  0.6071  0.8081 -0.9244
   90SAPS   C35 8768   3.956   5.855   9.780  0.0335  0.2095 -0.3400
   90SAPS   H5X 8769   3.876   5.780   9.796  0.9758 -0.2836  2.7467
   90SAPS   H5Y 8770   4.052   5.803   9.798 -0.3040 -0.2914  0.0392
   90SAPS   C36 8771   3.956   5.913   9.636  0.0075  0.0307  0.4191
   90SAPS   H6X 8772   4.020   6.001   9.614 -1.1528  0.4720 -1.5086
   90SAPS   H6Y 8773   3.862   5.962   9.602 -0.0475 -0.4816 -0.1947
   90SAPS   C37 8774   3.994   5.796   9.537 -0.4751 -0.4481  0.1292
   90SAPS   H7X 8775   4.037   5.713   9.598  1.5894  0.0768 -0.5285
   90SAPS   H7Y 8776   4.068   5.840   9.467 -0.0039 -0.6214  0.5149
   90SAPS   C38 8777   3.873   5.744   9.448 -0.3161  0.0665 -0.5125
   90SAPS   H8X 8778   3.810   5.828   9.411  0.3655  0.0584 -1.7565
   90SAPS   H8Y 8779   3.797   5.689   9.508  0.0695  1.3704  1.2400
   90SAPS   C39 8780   3.924   5.666   9.326 -0.1530 -0.2813  0.0889
   90SAPS   H9X 8781   3.958   5.570   9.371 -2.3426 -0.9531  0.4319
   90SAPS   H9Y 8782   4.009   5.722   9.281  0.6584 -0.5822  1.2023
   90SAPS  C310 8783   3.816   5.639   9.221 -0.1396  0.0193 -0.3920
   90SAPS  H10X 8784   3.782   5.736   9.178 -0.1134 -0.5954 -1.8555
   90SAPS  H10Y 8785   3.720   5.609   9.267 -0.2497 -0.2723 -0.8067
   90SAPS  C311 8786   3.843   5.552   9.105  0.0207 -0.1655  0.1852
   90SAPS  H11X 8787   3.756   5.542   9.037  0.6220  1.2588 -0.8466
   90SAPS  H11Y 8788   3.854   5.449   9.145  0.6787  0.0511  0.5772
   90SAPS  C312 8789   3.972   5.599   9.033  0.6828  0.2492  0.4295
   90SAPS  H12X 8790   4.066   5.581   9.090  2.0852 -1.8469 -2.2981
   90SAPS  H12Y 8791   3.970   5.706   9.003 -0.2492 -0.2345 -1.3379
   90SAPS  C313 8792   3.997   5.533   8.896 -0.8052 -0.3971 -0.1756
   90SAPS  H13X 8793   3.988   5.423   8.908 -0.5585 -0.1838  2.7044
   90SAPS  H13Y 8794   4.095   5.570   8.861 -0.6485  1.2369  1.7694
   90SAPS  C314 8795   3.890   5.572   8.793  0.6625 -0.5633  0.7134
   90SAPS  H14X 8796   3.891   5.683   8.792  0.3101 -0.5561 -0.3349
   90SAPS  H14Y 8797   3.786   5.541   8.815  0.1490  1.5177  1.4339
   90SAPS  C315 8798   3.923   5.517   8.653 -0.1179  0.2280 -0.1025
   90SAPS  H15X 8799   4.015   5.568   8.615  0.6947 -1.0248  0.1171
   90SAPS  H15Y 8800   3.838   5.529   8.582 -0.2654 -2.4378 -0.5112
   90SAPS  C316 8801   3.955   5.365   8.644  0.1708 -0.0161  0.6942
   90SAPS  H16X 8802   3.883   5.313   8.712 -0.7620  1.2586  0.7081
   90SAPS  H16Y 8803   4.060   5.355   8.680  0.1582 -0.1233  0.7011
   90SAPS  C317 8804   3.954   5.311   8.498 -0.3146 -0.0809  0.0514
   90SAPS  H17X 8805   3.849   5.307   8.464 -0.0170  0.7180 -1.0340
   90SAPS  H17Y 8806   3.993   5.207   8.513  1.1997  0.4475  0.0113
   90SAPS  C318 8807   4.041   5.385   8.395  0.1084 -0.2647 -0.1541
   90SAPS  H18X 8808   4.067   5.315   8.312  3.3761  1.1365 -0.4458
   90SAPS  H18Y 8809   4.131   5.440   8.428 -0.8349  1.7431 -0.7943
   90SAPS  H18Z 8810   3.987   5.471   8.350  1.0227  0.9033  0.9295
   91SAPS     N 8811   1.298   2.957   5.871  0.0620 -0.2567 -0.7645
   91SAPS   HN1 8812   1.239   2.948   5.956 -1.2806 -0.9854 -1.7492
   91SAPS   HN2 8813   1.388   3.009   5.880  0.1239 -0.4935  0.0396
   91SAPS   HN3 8814   1.251   3.016   5.799  0.7532 -0.2738 -1.2446
   91SAPS   C12 8815   1.346   2.822   5.829 -0.1354  0.0666  0.5935
   91SAPS  H12A 8816   1.258   2.762   5.809  0.4732 -0.8332  0.5204
   91SAPS   C13 8817   1.439   2.819   5.704 -0.4122 -0.4785  0.6830
   91SAPS  O13A 8818   1.454   2.927   5.641  0.3416  0.4280 -0.4506
   91SAPS  O13B 8819   1.492   2.709   5.667 -0.1008 -0.8758 -0.3154
   91SAPS   C11 8820   1.427   2.757   5.948  0.0807  0.1829 -0.1462
   91SAPS  H11A 8821   1.523   2.810   5.964  0.2737  0.3745 -1.8215
   91SAPS  H11B 8822   1.458   2.655   5.918 -2.3287 -1.2873  1.9204
   91SAPS     P 8823   1.237   2.636   6.094 -0.0663 -0.2186 -0.2285
   91SAPS   O13 8824   1.121   2.668   6.005  0.7927  0.4141 -0.3694
   91SAPS   O14 8825   1.297   2.498   6.079 -0.0037 -0.4370 -0.0990
   91SAPS   O12 8826   1.353   2.739   6.066 -0.4921  0.5869 -0.4934
   91SAPS   O11 8827   1.216   2.664   6.247  0.2516 -0.6125 -0.3322
   91SAPS    C1 8828   1.251   2.793   6.311 -0.6253  0.6400 -0.1707
   91SAPS    HA 8829   1.362   2.794   6.309 -0.5930 -0.8844 -0.1800
   91SAPS    HB 8830   1.210   2.877   6.249  0.9781  1.4264 -0.2231
   91SAPS    C2 8831   1.199   2.798   6.454  0.6743  0.0274  0.3589
   91SAPS    HS 8832   1.199   2.904   6.487  3.2342  0.1672  0.1264
   91SAPS   O21 8833   1.284   2.723   6.541 -0.0552 -0.6942  0.4894
   91SAPS   C21 8834   1.382   2.794   6.598  0.3152  0.3815 -0.3106
   91SAPS   O22 8835   1.399   2.915   6.586 -0.1051 -0.2098 -0.3001
   91SAPS   C22 8836   1.455   2.706   6.692  0.3653 -0.3083 -0.4246
   91SAPS   H2R 8837   1.484   2.608   6.650  4.0740 -0.8553  2.8491
   91SAPS   H2S 8838   1.545   2.766   6.718  0.9353 -0.0270 -2.7561
   91SAPS    C3 8839   1.052   2.745   6.457  0.1220 -0.2688 -0.1704
   91SAPS    HX 8840   1.049   2.645   6.408 -0.8425 -1.2145  1.7345
   91SAPS    HY 8841   0.986   2.824   6.415 -0.5969  0.8233  2.8026
   91SAPS   O31 8842   1.013   2.720   6.601 -0.4584 -0.0570  0.1507
   91SAPS   C31 8843   0.908   2.640   6.608 -0.1895  0.2397 -0.5132
   91SAPS   O32 8844   0.855   2.583   6.517  0.1869  0.7946  0.5413
   91SAPS   C32 8845   0.858   2.609   6.755 -0.2566 -0.2152 -0.3277
   91SAPS   H2X 8846   0.809   2.510   6.748 -0.1337 -0.2412 -0.8937
   91SAPS   H2Y 8847   0.769   2.675   6.769  0.9785  1.4089  0.2649
   91SAPS   C23 8848   1.374   2.691   6.823  0.2905 -0.1762  0.2125
   91SAPS   H3R 8849   1.443   2.647   6.898  0.7283  0.6252  0.2851
   91SAPS   H3S 8850   1.283   2.627   6.816 -0.3068  0.5367  1.1891
   91SAPS   C24 8851   1.335   2.824   6.891 -0.0675  0.0572 -0.0291
   91SAPS   H4R 8852   1.281   2.797   6.984 -0.1398  1.7908  0.4636
   91SAPS   H4S 8853   1.271   2.885   6.824 -0.8898 -0.5072  0.2240
   91SAPS   C25 8854   1.454   2.910   6.928 -0.2818  0.2615 -0.1052
   91SAPS   H5R 8855   1.492   2.985   6.857 -2.1669  0.5207 -0.8768
   91SAPS   C26 8856   1.508   2.917   7.048 -0.6272 -0.0539  0.5461
   91SAPS   H6R 8857   1.579   3.000   7.062 -2.9693  2.1632 -0.1091
   91SAPS   C27 8858   1.467   2.847   7.177  0.1924 -0.6206 -0.5260
   91SAPS   H7R 8859   1.514   2.747   7.185  3.1720  0.7604  0.4394
   91SAPS   H7S 8860   1.356   2.846   7.181  0.1979  0.0715 -0.1422
   91SAPS   C28 8861   1.514   2.931   7.299  0.1731  0.5099  0.7054
   91SAPS   H8R 8862   1.454   3.021   7.319  1.9538  2.0711 -0.5545
   91SAPS   C29 8863   1.616   2.909   7.384  0.3780  0.2696  0.5060
   91SAPS   H9R 8864   1.634   2.991   7.456 -0.3568  0.9900 -0.1150
   91SAPS  C210 8865   1.711   2.787   7.383  0.1601 -0.1278 -0.1751
   91SAPS  H10R 8866   1.729   2.757   7.277 -5.1142 -1.0850 -1.0725
   91SAPS  H10S 8867   1.659   2.695   7.417 -2.0235  0.0527 -2.6449
   91SAPS  C211 8868   1.845   2.803   7.454  0.0482  0.0264 -0.1904
   91SAPS  H11R 8869   1.924   2.825   7.379  0.1485 -0.8320 -0.3402
   91SAPS  C212 8870   1.874   2.775   7.578  0.2110 -0.0526 -0.9996
   91SAPS  H12R 8871   1.979   2.773   7.613 -0.1777 -1.2554  0.2016
   91SAPS  C213 8872   1.780   2.723   7.686  0.2433  0.0087  0.2531
   91SAPS  H13R 8873   1.832   2.664   7.765 -0.5927 -1.4061 -0.2347
   91SAPS  H13S 8874   1.707   2.653   7.640  0.4277  0.4531 -0.7403
   91SAPS  C214 8875   1.699   2.839   7.734 -0.4393 -0.6586 -0.3607
   91SAPS  H14R 8876   1.627   2.881   7.663  0.6422  0.2061 -0.9792
   91SAPS  C215 8877   1.696   2.878   7.864 -0.3779 -0.4438  0.0660
   91SAPS  H15R 8878   1.635   2.966   7.889 -0.7389 -0.6889  0.0593
   91SAPS  C216 8879   1.782   2.821   7.971  0.2127 -0.3181 -0.0863
   91SAPS  H16R 8880   1.764   2.712   7.981  0.0644 -0.3549 -0.7169
   91SAPS  H16S 8881   1.746   2.862   8.068 -1.5441 -0.9910 -0.4156
   91SAPS  C217 8882   1.930   2.863   7.957 -0.5375 -0.2600  0.3836
   91SAPS  H17R 8883   1.942   2.973   7.947  1.0507 -0.3331  1.2044
   91SAPS  H17S 8884   1.980   2.804   7.877 -1.3659 -0.7547  0.2223
   91SAPS  C218 8885   2.005   2.830   8.083 -0.7162  0.3423 -0.8716
   91SAPS  H18R 8886   1.974   2.728   8.113  0.8633 -0.6879 -2.4995
   91SAPS  H18S 8887   1.980   2.897   8.168  0.0690 -0.5905  0.1171
   91SAPS  C219 8888   2.155   2.834   8.073 -0.3433  0.4110 -0.6127
   91SAPS  H19R 8889   2.177   2.937   8.038 -0.4587 -0.1939 -2.5515
   91SAPS  H19S 8890   2.185   2.765   7.991 -0.5444  1.7171 -1.8111
   91SAPS  C220 8891   2.230   2.817   8.202  0.5894  0.0578 -0.8326
   91SAPS  H20R 8892   2.338   2.836   8.179  0.9268 -0.1865  0.4727
   91SAPS  H20S 8893   2.213   2.716   8.243 -1.0193  0.7996  0.4294
   91SAPS  H20T 8894   2.194   2.894   8.273  1.5711 -0.2751  0.0539
   91SAPS   C33 8895   0.943   2.621   6.881  0.3827 -0.0944  0.1577
   91SAPS   H3X 8896   0.983   2.719   6.912  0.7186 -0.4711  0.9496
   91SAPS   H3Y 8897   1.038   2.566   6.862  0.0452 -0.1677 -1.5334
   91SAPS   C34 8898   0.879   2.574   7.006  0.2621 -0.4713  0.1683
   91SAPS   H4X 8899   0.837   2.474   6.981  1.9927 -1.4409  0.9730
   91SAPS   H4Y 8900   0.792   2.639   7.029  0.9575  0.3351  0.6059
   91SAPS   C35 8901   0.972   2.558   7.125 -0.8521  0.2012 -0.0205
   91SAPS   H5X 8902   1.007   2.659   7.157  0.2855  0.0197 -0.6567
   91SAPS   H5Y 8903   1.062   2.498   7.101 -0.7370  0.4399 -0.1811
   91SAPS   C36 8904   0.903   2.507   7.245 -0.0952 -0.6668 -0.1400
   91SAPS   H6X 8905   0.924   2.400   7.261 -1.6916 -1.2406 -1.5823
   91SAPS   H6Y 8906   0.794   2.525   7.252 -0.2368 -1.9543  1.7153
   91SAPS   C37 8907   0.945   2.574   7.382 -0.6351 -0.9003  0.1300
   91SAPS   H7X 8908   0.959   2.684   7.368 -3.4339 -0.4780  0.1529
   91SAPS   H7Y 8909   1.041   2.532   7.420 -0.4738  0.7025  1.6895
   91SAPS   C38 8910   0.842   2.574   7.498  0.2767 -0.0334  1.5645
   91SAPS   H8X 8911   0.823   2.470   7.531 -2.0295 -1.1768 -2.6972
   91SAPS   H8Y 8912   0.747   2.611   7.454  2.0582  4.1362  0.7041
   91SAPS   C39 8913   0.895   2.670   7.608 -0.2374 -0.3214 -0.2803
   91SAPS   H9X 8914   0.926   2.768   7.565  2.6586 -0.8797  0.3957
   91SAPS   H9Y 8915   0.983   2.625   7.658 -0.8978 -0.7741  0.5063
   91SAPS  C310 8916   0.785   2.686   7.716  1.2181 -0.4363  0.5878
   91SAPS  H10X 8917   0.747   2.586   7.746 -0.9879  0.7329  2.0073
   91SAPS  H10Y 8918   0.696   2.724   7.661  0.0965 -1.9048  1.3007
   91SAPS  C311 8919   0.815   2.764   7.842  0.1775 -0.6387 -0.6491
   91SAPS  H11X 8920   0.721   2.816   7.870  0.7210  0.3537 -0.6295
   91SAPS  H11Y 8921   0.889   2.846   7.826 -0.1958 -0.2312 -0.3348
   91SAPS  C312 8922   0.854   2.668   7.954 -0.1045  0.4885 -0.2177
   91SAPS  H12X 8923   0.956   2.625   7.939  1.3753  2.8993  2.1895
   91SAPS  H12Y 8924   0.773   2.592   7.947  0.4567  0.0105 -2.5933
   91SAPS  C313 8925   0.864   2.730   8.094 -0.2031  0.5548  1.2152
   91SAPS  H13X 8926   0.946   2.805   8.094  0.5693 -0.2799  0.5866
   91SAPS  H13Y 8927   0.891   2.648   8.164 -0.8904  0.0014  0.8432
   91SAPS  C314 8928   0.737   2.806   8.146 -0.7227  0.4239  0.7397
   91SAPS  H14X 8929   0.656   2.742   8.103 -1.3695  0.9504  1.1526
   91SAPS  H14Y 8930   0.733   2.903   8.093 -1.1724  0.4457  0.8104
   91SAPS  C315 8931   0.724   2.829   8.289  0.3570 -0.2954 -0.3746
   91SAPS  H15X 8932   0.775   2.924   8.316  0.6547 -0.7417  0.7108
   91SAPS  H15Y 8933   0.746   2.743   8.356  1.9807 -0.8901 -1.5987
   91SAPS  C316 8934   0.573   2.858   8.309 -0.0786 -0.2448 -0.4914
   91SAPS  H16X 8935   0.526   2.765   8.273  1.7265 -0.8522 -1.3675
   91SAPS  H16Y 8936   0.542   2.942   8.242  1.9408  0.8143 -0.1722
   91SAPS  C317 8937   0.534   2.904   8.451 -0.3962 -0.1214  0.3167
   91SAPS  H17X 8938   0.574   2.831   8.526  4.8459 -0.4541 -2.3712
   91SAPS  H17Y 8939   0.423   2.903   8.442 -0.4188 -2.3308  0.3034
   91SAPS  C318 8940   0.586   3.043   8.483  0.2168  0.1166 -0.3764
   91SAPS  H18X 8941   0.536   3.120   8.420  1.6466  0.9611 -0.5194
   91SAPS  H18Y 8942   0.694   3.064   8.472  0.6312  0.8569  3.6730
   91SAPS  H18Z 8943   0.548   3.066   8.584 -2.6100 -0.8314 -1.1133
   92SAPS     N 8944   0.173   1.180   6.508  0.5273 -0.3414  0.2692
   92SAPS   HN1 8945   0.270   1.143   6.513  0.5490 -0.2227  0.8468
   92SAPS   HN2 8946   0.182   1.283   6.495  0.3436 -0.5072 -1.3173
   92SAPS   HN3 8947   0.133   1.160   6.602 -1.2729 -3.3027 -0.9985
   92SAPS   C12 8948   0.106   1.115   6.396  0.0053 -0.2322  0.7046
   92SAPS  H12A 8949   0.001   1.139   6.402  0.0535  0.2261 -0.1697
   92SAPS   C13 8950   0.157   1.149   6.259 -0.1817  0.2033 -0.4091
   92SAPS  O13A 8951   0.260   1.215   6.239 -0.2069 -0.1199 -0.3892
   92SAPS  O13B 8952   0.088   1.114   6.157  0.1008 -0.1089  0.5172
   92SAPS   C11 8953   0.116   0.966   6.415 -0.2757  0.1013  0.7099
   92SAPS  H11A 8954   0.060   0.919   6.331 -1.9336  1.2226  1.1555
   92SAPS  H11B 8955   0.057   0.929   6.500 -0.0817 -1.4390  0.1984
   92SAPS     P 8956   0.305   0.766   6.434 -0.0668 -0.5083 -0.0183
   92SAPS   O13 8957   0.208   0.683   6.357 -0.2960  0.2756 -0.1228
   92SAPS   O14 8958   0.447   0.741   6.413  0.2878 -0.6478  0.7494
   92SAPS   O12 8959   0.254   0.921   6.418 -0.0369  0.1512 -0.4074
   92SAPS   O11 8960   0.269   0.737   6.582  0.1668  0.0880 -0.3214
   92SAPS    C1 8961   0.315   0.817   6.693  0.3222  0.1387  0.5004
   92SAPS    HA 8962   0.345   0.918   6.658 -0.2150 -0.3669 -1.5900
   92SAPS    HB 8963   0.230   0.841   6.760 -0.0217  1.8826 -0.5047
   92SAPS    C2 8964   0.416   0.739   6.780 -0.0305 -0.4072  0.0151
   92SAPS    HS 8965   0.503   0.731   6.711  0.0268 -1.1976  0.1692
   92SAPS   O21 8966   0.364   0.610   6.821  0.1149  0.1567  0.1594
   92SAPS   C21 8967   0.447   0.539   6.891 -1.3012  0.2547 -0.2093
   92SAPS   O22 8968   0.568   0.565   6.914  0.0381 -0.0620 -0.3040
   92SAPS   C22 8969   0.381   0.409   6.940 -0.2893  0.2809  0.0288
   92SAPS   H2R 8970   0.320   0.392   6.849  0.8874  1.4606 -1.0279
   92SAPS   H2S 8971   0.459   0.330   6.945 -0.7194 -0.1028  0.8558
   92SAPS    C3 8972   0.476   0.824   6.899 -0.5630  0.2474  0.8201
   92SAPS    HX 8973   0.500   0.925   6.858 -1.7496  0.1183 -0.2568
   92SAPS    HY 8974   0.579   0.784   6.909 -0.2396  0.5370 -1.0435
   92SAPS   O31 8975   0.397   0.828   7.022  0.0861 -0.6449  0.6819
   92SAPS   C31 8976   0.307   0.928   7.037 -1.0844 -0.3722  0.9518
   92SAPS   O32 8977   0.282   1.019   6.956 -0.4877  0.0505 -0.0955
   92SAPS   C32 8978   0.225   0.903   7.165  0.0776  0.3315  1.1324
   92SAPS   H2X 8979   0.282   0.819   7.212 -1.3392 -1.3659 -0.0222
   92SAPS   H2Y 8980   0.133   0.847   7.135  1.6391 -1.5468 -0.5122
   92SAPS   C23 8981   0.281   0.430   7.061 -0.4977  0.1270 -0.2694
   92SAPS   H3R 8982   0.216   0.340   7.067  1.7777 -1.4783  2.0866
   92SAPS   H3S 8983   0.230   0.519   7.017 -2.5094 -0.4274  0.8122
   92SAPS   C24 8984   0.347   0.469   7.192  0.3591 -0.1663 -0.6911
   92SAPS   H4R 8985   0.276   0.499   7.271  0.8935 -0.5039 -0.0741
   92SAPS   H4S 8986   0.420   0.552   7.177 -0.8596  1.0125 -0.3146
   92SAPS   C25 8987   0.420   0.344   7.238  0.1886 -0.4229  0.4017
   92SAPS   H5R 8988   0.496   0.304   7.168  1.2381  1.0581  0.6486
   92SAPS   C26 8989   0.398   0.276   7.354 -0.6267  0.2204 -0.2322
   92SAPS   H6R 8990   0.449   0.179   7.369  0.5206  0.7192 -0.7595
   92SAPS   C27 8991   0.305   0.315   7.466  0.5588 -0.0176 -0.1647
   92SAPS   H7R 8992   0.269   0.224   7.518  0.6411  0.0886  0.0752
   92SAPS   H7S 8993   0.225   0.385   7.433  3.1016  2.6239 -1.1750
   92SAPS   C28 8994   0.380   0.395   7.572 -0.1313  0.7173  0.8140
   92SAPS   H8R 8995   0.465   0.455   7.537 -1.0517  0.8189 -1.4009
   92SAPS   C29 8996   0.345   0.407   7.709 -0.6190 -0.7576  0.6585
   92SAPS   H9R 8997   0.405   0.479   7.767 -3.2737  2.3173 -0.1214
   92SAPS  C210 8998   0.232   0.340   7.787  0.4902  0.0619 -0.3519
   92SAPS  H10R 8999   0.146   0.318   7.720  1.0118 -1.4980 -0.5323
   92SAPS  H10S 9000   0.187   0.401   7.868  0.9476 -0.0847  0.0165
   92SAPS  C211 9001   0.284   0.210   7.849 -0.4678  0.0966 -0.4734
   92SAPS  H11R 9002   0.274   0.120   7.786 -0.0094 -1.1635  1.1742
   92SAPS  C212 9003   0.343   0.191   7.962 -0.4646 -0.1382 -0.4457
   92SAPS  H12R 9004   0.376   0.089   7.986 -0.9700  0.4175  3.0459
   92SAPS  C213 9005   0.373   0.305   8.059  0.2713  0.5929  0.2169
   92SAPS  H13R 9006   0.287   0.374   8.073  0.0217  0.0016  1.8209
   92SAPS  H13S 9007   0.461   0.364   8.026  0.1402  1.4067  1.2499
   92SAPS  C214 9008   0.405   0.249   8.195  0.0932  0.2367 -0.1761
   92SAPS  H14R 9009   0.314   0.206   8.239  0.8154 -0.0676  1.0460
   92SAPS  C215 9010   0.516   0.257   8.278  0.5026 -0.2926  0.4826
   92SAPS  H15R 9011   0.502   0.208   8.376  0.0830  1.1238  1.1569
   92SAPS  C216 9012   0.652   0.324   8.251  0.9332  0.0696  0.5861
   92SAPS  H16R 9013   0.658   0.430   8.285  0.7436 -0.2026  1.4847
   92SAPS  H16S 9014   0.670   0.309   8.143  0.8114  0.1435  0.5550
   92SAPS  C217 9015   0.761   0.240   8.315 -0.1056  0.0079 -0.2039
   92SAPS  H17R 9016   0.733   0.134   8.301 -1.5307  0.4363 -0.7740
   92SAPS  H17S 9017   0.755   0.265   8.424  0.3162  0.4327 -0.2770
   92SAPS  C218 9018   0.897   0.286   8.269  0.5265  0.0026  0.2376
   92SAPS  H18R 9019   0.903   0.282   8.158  3.2922  3.4113  0.0852
   92SAPS  H18S 9020   0.976   0.220   8.312 -2.5266 -1.8628  3.5044
   92SAPS  C219 9021   0.951   0.418   8.313 -0.2069  0.7402  0.8216
   92SAPS  H19R 9022   0.975   0.418   8.422 -1.4764  0.1588  1.1210
   92SAPS  H19S 9023   0.884   0.499   8.278  1.2904  0.6595 -2.6642
   92SAPS  C220 9024   1.083   0.443   8.229  0.8227  0.1452  0.3786
   92SAPS  H20R 9025   1.140   0.534   8.257  0.6689  0.3011  0.1863
   92SAPS  H20S 9026   1.064   0.455   8.121  0.1013  2.5056  0.7124
   92SAPS  H20T 9027   1.139   0.348   8.243  0.7012 -0.0255 -0.2752
   92SAPS   C33 9028   0.200   1.028   7.257  0.0578  0.1496 -0.2964
   92SAPS   H3X 9029   0.116   1.089   7.219 -1.1178 -1.6063 -0.6555
   92SAPS   H3Y 9030   0.291   1.091   7.248 -1.0417  1.9014  0.3286
   92SAPS   C34 9031   0.185   0.995   7.416 -0.0982  0.2109 -0.5126
   92SAPS   H4X 9032   0.076   0.993   7.433 -0.3110  2.2998 -1.3056
   92SAPS   H4Y 9033   0.209   1.088   7.470 -0.5259 -0.9720  1.8263
   92SAPS   C35 9034   0.266   0.876   7.469  0.2385 -0.5829 -0.3596
   92SAPS   H5X 9035   0.361   0.873   7.411 -0.7977 -1.6474 -2.0850
   92SAPS   H5Y 9036   0.212   0.785   7.438 -0.6255  0.2887 -1.4774
   92SAPS   C36 9037   0.288   0.873   7.621  0.7346 -0.1239  0.2744
   92SAPS   H6X 9038   0.352   0.960   7.646  2.4313 -1.0047 -0.8069
   92SAPS   H6Y 9039   0.331   0.780   7.663 -1.3965 -0.6312  1.4758
   92SAPS   C37 9040   0.161   0.879   7.713  0.1367 -0.1288  0.3497
   92SAPS   H7X 9041   0.111   0.780   7.711  0.0370 -0.0674 -0.9704
   92SAPS   H7Y 9042   0.103   0.963   7.668 -0.8402 -1.0832 -0.2159
   92SAPS   C38 9043   0.199   0.905   7.855  0.0963 -0.2896  0.2856
   92SAPS   H8X 9044   0.109   0.960   7.890 -1.7833 -1.5236 -2.3178
   92SAPS   H8Y 9045   0.282   0.979   7.849 -1.5352  1.5354 -1.0217
   92SAPS   C39 9046   0.217   0.777   7.933 -0.2340 -0.1344  0.2308
   92SAPS   H9X 9047   0.285   0.698   7.894 -0.9154 -0.7997  0.3709
   92SAPS   H9Y 9048   0.119   0.725   7.938 -0.2799 -0.3238 -1.7343
   92SAPS  C310 9049   0.276   0.793   8.078 -0.0127  0.0233  0.5394
   92SAPS  H10X 9050   0.213   0.862   8.137 -1.9618 -0.1171 -1.2666
   92SAPS  H10Y 9051   0.373   0.843   8.055  1.1906 -0.7899  3.4196
   92SAPS  C311 9052   0.300   0.661   8.156 -0.5080 -0.2841 -0.4107
   92SAPS  H11X 9053   0.388   0.608   8.114  0.2429 -1.1836  2.0924
   92SAPS  H11Y 9054   0.208   0.598   8.148  0.0448 -1.1771  0.1368
   92SAPS  C312 9055   0.324   0.688   8.308  0.1094  0.8893  0.0720
   92SAPS  H12X 9056   0.355   0.587   8.343  3.1962  1.5184 -0.5050
   92SAPS  H12Y 9057   0.237   0.733   8.360 -0.5440  0.8578 -0.9688
   92SAPS  C313 9058   0.448   0.775   8.339 -0.0559 -0.5813 -1.1293
   92SAPS  H13X 9059   0.413   0.867   8.286 -1.6763  2.3308  4.2864
   92SAPS  H13Y 9060   0.543   0.736   8.297  1.2056  0.4071  0.6583
   92SAPS  C314 9061   0.457   0.810   8.490  0.4150  0.4900  0.5856
   92SAPS  H14X 9062   0.355   0.824   8.532 -0.2887 -2.9274  0.3129
   92SAPS  H14Y 9063   0.509   0.907   8.503  0.8066  0.4571 -0.5682
   92SAPS  C315 9064   0.529   0.706   8.581  0.7545  0.6390 -0.6895
   92SAPS  H15X 9065   0.477   0.608   8.583 -0.0612  1.0571 -0.7432
   92SAPS  H15Y 9066   0.519   0.730   8.689 -1.8022 -1.9310 -0.2503
   92SAPS  C316 9067   0.679   0.678   8.546 -0.1763  0.1066  0.3505
   92SAPS  H16X 9068   0.731   0.776   8.542 -0.1425  0.0451 -1.1485
   92SAPS  H16Y 9069   0.679   0.634   8.444  0.3589  1.9848 -0.5100
   92SAPS  C317 9070   0.749   0.592   8.656  0.0075 -0.2483 -0.3071
   92SAPS  H17X 9071   0.853   0.573   8.623  1.2111  0.8544  2.5218
   92SAPS  H17Y 9072   0.700   0.493   8.663  1.0615 -0.8231 -0.7853
   92SAPS  C318 9073   0.764   0.653   8.793  0.3898  0.3600 -0.3498
   92SAPS  H18X 9074   0.664   0.675   8.836 -0.9756 -0.7165 -2.8339
   92SAPS  H18Y 9075   0.826   0.746   8.792  1.1663 -0.1204 -2.7657
   92SAPS  H18Z 9076   0.803   0.582   8.870  0.3562  0.8217  0.0989
   93SAPS     N 9077   2.264   1.160   6.243 -0.1306 -0.1116 -0.4875
   93SAPS   HN1 9078   2.282   1.231   6.317 -0.6818 -1.4896  1.0305
   93SAPS   HN2 9079   2.282   1.204   6.150 -0.3265  0.9447 -0.0344
   93SAPS   HN3 9080   2.166   1.127   6.248 -0.1138  0.0394  1.9932
   93SAPS   C12 9081   2.349   1.038   6.252 -0.7528  0.0295  0.5565
   93SAPS  H12A 9082   2.312   0.968   6.179  0.3936  0.6469 -0.6694
   93SAPS   C13 9083   2.505   1.055   6.238  1.3230  0.1767 -0.3020
   93SAPS  O13A 9084   2.550   1.172   6.219 -0.1460  0.0127 -0.2013
   93SAPS  O13B 9085   2.572   0.950   6.221  0.2401 -0.0827  0.2459
   93SAPS   C11 9086   2.315   0.978   6.394  0.1619 -0.1988  0.3129
   93SAPS  H11A 9087   2.320   1.060   6.469  1.3649 -0.0250  0.0704
   93SAPS  H11B 9088   2.389   0.903   6.429 -0.1706  0.1942  1.9324
   93SAPS     P 9089   2.090   0.870   6.496 -0.1745 -0.2857 -0.1327
   93SAPS   O13 9090   2.002   0.981   6.544  0.3618 -0.0347  0.0139
   93SAPS   O14 9091   2.016   0.747   6.460 -0.3195  0.6931  0.0352
   93SAPS   O12 9092   2.182   0.930   6.382 -0.3960 -0.3538  0.0870
   93SAPS   O11 9093   2.191   0.820   6.603  0.2703  0.4218  0.6076
   93SAPS    C1 9094   2.236   0.909   6.708  0.3544 -0.5915  0.2467
   93SAPS    HA 9095   2.346   0.910   6.723  0.1626  0.4947  1.9649
   93SAPS    HB 9096   2.227   1.017   6.684  1.6229 -0.3394  0.7852
   93SAPS    C2 9097   2.171   0.891   6.847 -0.5481 -0.0725 -0.0712
   93SAPS    HS 9098   2.250   0.906   6.924  1.0096 -0.9931 -1.4171
   93SAPS   O21 9099   2.108   0.763   6.867 -0.2184  0.2012  0.2345
   93SAPS   C21 9100   2.182   0.665   6.898  0.2175 -0.0215  0.4285
   93SAPS   O22 9101   2.301   0.661   6.929 -0.5326  0.6948  0.0180
   93SAPS   C22 9102   2.090   0.545   6.895 -0.5771  0.5596  0.4169
   93SAPS   H2R 9103   2.004   0.558   6.964  0.1855  0.0293  1.5166
   93SAPS   H2S 9104   2.051   0.531   6.792 -0.1895  0.6023  0.2609
   93SAPS    C3 9105   2.063   1.002   6.885 -0.2068  0.4154  0.8175
   93SAPS    HX 9106   1.980   0.987   6.812  2.2992  1.9879 -2.6515
   93SAPS    HY 9107   2.109   1.098   6.851  0.0933  0.5234  1.5028
   93SAPS   O31 9108   2.031   1.003   7.020 -0.1212 -0.6254 -0.1505
   93SAPS   C31 9109   1.908   1.047   7.056  0.7515  0.7610  0.0787
   93SAPS   O32 9110   1.816   1.081   6.981 -0.4397  0.2821  0.0430
   93SAPS   C32 9111   1.902   1.055   7.206  0.0022 -0.1814 -0.3900
   93SAPS   H2X 9112   1.829   1.135   7.229 -2.5549 -1.5071 -3.0979
   93SAPS   H2Y 9113   2.005   1.068   7.245 -0.1983 -0.9207  0.4133
   93SAPS   C23 9114   2.181   0.425   6.923 -0.2351  0.1306 -0.3205
   93SAPS   H3R 9115   2.224   0.439   7.025 -0.7982  0.7946 -0.1688
   93SAPS   H3S 9116   2.273   0.406   6.862  0.2446  0.0069  0.4280
   93SAPS   C24 9117   2.096   0.297   6.919  0.2967  0.5998  0.3103
   93SAPS   H4R 9118   2.058   0.277   6.816  1.5279 -1.3903  0.1812
   93SAPS   H4S 9119   2.007   0.300   6.986  1.0353 -1.8474  1.5266
   93SAPS   C25 9120   2.177   0.173   6.953  0.2896 -0.1167  0.0656
   93SAPS   H5R 9121   2.205   0.106   6.870  1.6517 -0.9147  1.1179
   93SAPS   C26 9122   2.197   0.128   7.082 -0.2449  0.1013 -0.0949
   93SAPS   H6R 9123   2.237   0.028   7.101 -0.3408  0.4401  2.0959
   93SAPS   C27 9124   2.158   0.193   7.213  0.5137  0.8355  0.3163
   93SAPS   H7R 9125   2.081   0.132   7.264  0.2116 -1.7876 -2.9504
   93SAPS   H7S 9126   2.098   0.286   7.205 -0.1487  0.8000  3.4461
   93SAPS   C28 9127   2.273   0.200   7.308  0.2241  0.2466  0.4238
   93SAPS   H8R 9128   2.335   0.289   7.293 -0.7020  0.9272  0.5853
   93SAPS   C29 9129   2.299   0.109   7.403  1.0883 -0.3153  0.2280
   93SAPS   H9R 9130   2.378   0.130   7.477  0.0501  0.7176  1.0805
   93SAPS  C210 9131   2.223  -0.018   7.438  0.8370 -0.5118 -0.2059
   93SAPS  H10R 9132   2.285  -0.095   7.488 -0.3339 -3.1393 -2.5478
   93SAPS  H10S 9133   2.190  -0.065   7.343  3.6192 -0.5275 -1.2707
   93SAPS  C211 9134   2.099   0.021   7.523  0.1605  0.3444 -0.4034
   93SAPS  H11R 9135   2.078   0.129   7.521  0.2591  0.3599 -1.9496
   93SAPS  C212 9136   2.016  -0.063   7.584  0.9367  0.0775 -0.4842
   93SAPS  H12R 9137   1.925  -0.024   7.631  0.4095 -1.0231 -0.5592
   93SAPS  C213 9138   2.021  -0.206   7.588  0.9264  0.4486  0.2477
   93SAPS  H13R 9139   2.051  -0.240   7.689  1.0737 -0.3847 -0.0687
   93SAPS  H13S 9140   2.089  -0.255   7.516 -0.3001 -0.6675 -0.2083
   93SAPS  C214 9141   1.893  -0.268   7.545  0.1259 -0.5898  0.9718
   93SAPS  H14R 9142   1.875  -0.265   7.436 -1.8090  1.1137  1.2833
   93SAPS  C215 9143   1.797  -0.323   7.620 -0.4679  0.1397  0.2785
   93SAPS  H15R 9144   1.714  -0.366   7.562  0.9632  0.3129 -2.0362
   93SAPS  C216 9145   1.796  -0.328   7.774 -0.0973 -0.2358 -0.3689
   93SAPS  H16R 9146   1.885  -0.285   7.824 -0.8477  0.4915  0.3605
   93SAPS  H16S 9147   1.786  -0.434   7.804 -0.6383 -0.3837 -1.0487
   93SAPS  C217 9148   1.667  -0.266   7.830  0.6726 -0.7266 -0.4861
   93SAPS  H17R 9149   1.578  -0.308   7.780 -1.6025  2.1088  0.8946
   93SAPS  H17S 9150   1.665  -0.160   7.796  0.2085  0.4631  2.8686
   93SAPS  C218 9151   1.648  -0.275   7.985 -0.3796  0.1483  0.0109
   93SAPS  H18R 9152   1.555  -0.219   8.009  0.9394  1.0726  3.6294
   93SAPS  H18S 9153   1.726  -0.225   8.045  1.2550 -0.5048 -1.4822
   93SAPS  C219 9154   1.634  -0.425   8.021  0.3699 -0.5883 -0.2095
   93SAPS  H19R 9155   1.729  -0.479   8.003  0.0043 -1.2923 -0.0706
   93SAPS  H19S 9156   1.541  -0.454   7.967 -0.8795 -1.1869  2.1120
   93SAPS  C220 9157   1.603  -0.448   8.172 -0.1429 -1.1797  0.1451
   93SAPS  H20R 9158   1.606  -0.558   8.190  0.6083 -1.0912  0.6026
   93SAPS  H20S 9159   1.505  -0.405   8.200  0.5715  0.2825  0.4831
   93SAPS  H20T 9160   1.684  -0.392   8.224  0.2020 -0.3445 -1.2406
   93SAPS   C33 9161   1.840   0.926   7.260 -0.4721  0.0180  0.5850
   93SAPS   H3X 9162   1.736   0.903   7.228 -0.9119  1.4785  0.8978
   93SAPS   H3Y 9163   1.834   0.929   7.371 -1.9140 -1.7706  0.6089
   93SAPS   C34 9164   1.926   0.801   7.224  0.0683  0.2480 -0.2234
   93SAPS   H4X 9165   1.919   0.778   7.115 -0.4474 -1.2095  0.0858
   93SAPS   H4Y 9166   1.886   0.717   7.285  2.6897  0.2336  1.6636
   93SAPS   C35 9167   2.074   0.806   7.277  0.0435  0.2610  1.1661
   93SAPS   H5X 9168   2.072   0.829   7.386  1.0173  1.2364  0.9870
   93SAPS   H5Y 9169   2.135   0.887   7.231 -0.9319 -0.3284 -1.3068
   93SAPS   C36 9170   2.162   0.685   7.257 -0.1061  0.2622 -0.1865
   93SAPS   H6X 9171   2.272   0.700   7.258  0.0079 -0.5503  0.6941
   93SAPS   H6Y 9172   2.132   0.630   7.165  2.2236 -3.2191  0.9434
   93SAPS   C37 9173   2.142   0.587   7.374  0.3739 -0.1445  0.2533
   93SAPS   H7X 9174   2.143   0.480   7.343  1.2445 -0.3396  0.9462
   93SAPS   H7Y 9175   2.036   0.607   7.401 -0.1316  1.3864 -2.4711
   93SAPS   C38 9176   2.241   0.611   7.492  0.7201  0.2673 -0.1220
   93SAPS   H8X 9177   2.242   0.719   7.515 -3.6560  0.7133 -1.1792
   93SAPS   H8Y 9178   2.347   0.597   7.460  0.5279  2.9000 -2.2568
   93SAPS   C39 9179   2.194   0.549   7.624 -0.2744 -0.5122 -0.0597
   93SAPS   H9X 9180   2.207   0.439   7.615 -0.5923 -0.6785  1.2180
   93SAPS   H9Y 9181   2.086   0.574   7.639  0.3173  0.9560  2.2992
   93SAPS  C310 9182   2.285   0.587   7.741 -0.5614  0.3771 -0.1172
   93SAPS  H10X 9183   2.249   0.687   7.774 -0.7001  0.6366 -1.0154
   93SAPS  H10Y 9184   2.394   0.585   7.721 -0.3934 -0.9479  0.8162
   93SAPS  C311 9185   2.261   0.493   7.865 -0.4262 -0.7348  0.5325
   93SAPS  H11X 9186   2.154   0.488   7.897 -0.5838  0.0528  0.1415
   93SAPS  H11Y 9187   2.304   0.546   7.952  1.0766 -0.2320 -0.4871
   93SAPS  C312 9188   2.329   0.361   7.859 -0.4193 -0.2835 -0.9122
   93SAPS  H12X 9189   2.435   0.383   7.835  0.2573  1.5575  2.9563
   93SAPS  H12Y 9190   2.296   0.290   7.781  1.0458 -1.7739 -0.2395
   93SAPS  C313 9191   2.324   0.276   7.989  0.1753 -0.7929 -0.4805
   93SAPS  H13X 9192   2.334   0.339   8.080 -0.7508 -0.7714 -0.3849
   93SAPS  H13Y 9193   2.411   0.210   7.968 -1.4502 -2.3709 -2.7790
   93SAPS  C314 9194   2.196   0.189   7.998  0.7973  0.2618  0.7349
   93SAPS  H14X 9195   2.200   0.133   7.902 -1.8407  0.7539  0.2719
   93SAPS  H14Y 9196   2.105   0.253   7.995 -0.6064 -1.6483 -2.4160
   93SAPS  C315 9197   2.195   0.098   8.121 -0.4781 -0.4030  0.2611
   93SAPS  H15X 9198   2.270   0.132   8.195  1.2495 -0.9848 -1.1549
   93SAPS  H15Y 9199   2.240  -0.000   8.093  1.2384  0.2605  0.5593
   93SAPS  C316 9200   2.060   0.068   8.173 -0.0739 -0.6859 -1.0632
   93SAPS  H16X 9201   2.059  -0.035   8.214  0.0709  0.1596  1.1737
   93SAPS  H16Y 9202   1.994   0.066   8.083 -0.4711 -0.5096 -0.7785
   93SAPS  C317 9203   2.005   0.164   8.280 -0.6213  0.2490  0.0706
   93SAPS  H17X 9204   1.994   0.267   8.241  2.8115  0.5110 -0.5449
   93SAPS  H17Y 9205   2.068   0.174   8.371 -1.3631 -2.0261  0.8959
   93SAPS  C318 9206   1.874   0.107   8.323  0.2080  0.2224  0.4526
   93SAPS  H18X 9207   1.786   0.120   8.256  0.4920 -0.9345 -0.1578
   93SAPS  H18Y 9208   1.838   0.154   8.418 -1.9131 -0.4177  0.0194
   93SAPS  H18Z 9209   1.883   0.002   8.356  1.8757  0.2605  0.1897
   94SAPS     N 9210   1.732   3.273   5.850  0.6522 -0.4777 -0.0858
   94SAPS   HN1 9211   1.791   3.342   5.799  0.9235  0.0502  0.9328
   94SAPS   HN2 9212   1.766   3.261   5.947 -1.5478 -1.6604  0.6130
   94SAPS   HN3 9213   1.746   3.182   5.802  2.1405 -0.4602  0.2517
   94SAPS   C12 9214   1.589   3.314   5.851 -0.2640 -0.0892 -0.5891
   94SAPS  H12A 9215   1.552   3.328   5.751 -3.2723  0.6158  0.5041
   94SAPS   C13 9216   1.493   3.202   5.888  0.4201  0.0267 -0.7516
   94SAPS  O13A 9217   1.532   3.082   5.909 -0.2126 -0.0296 -0.0799
   94SAPS  O13B 9218   1.371   3.225   5.877 -0.1161 -0.0847  0.4437
   94SAPS   C11 9219   1.577   3.438   5.947  1.0500  0.1476  0.2483
   94SAPS  H11A 9220   1.619   3.423   6.049 -2.5250  0.7306  2.0099
   94SAPS  H11B 9221   1.469   3.438   5.977  1.2507  0.1229  1.0008
   94SAPS     P 9222   1.626   3.687   5.986 -0.6824 -0.5896  0.1859
   94SAPS   O13 9223   1.751   3.662   6.051 -0.7464 -0.0257 -0.4236
   94SAPS   O14 9224   1.600   3.817   5.919 -0.5626 -0.2785 -0.0466
   94SAPS   O12 9225   1.613   3.563   5.885  0.1454  0.2524 -0.0761
   94SAPS   O11 9226   1.512   3.663   6.092 -0.3983  0.1023  0.2436
   94SAPS    C1 9227   1.416   3.761   6.132 -0.7318  0.1708  0.0314
   94SAPS    HA 9228   1.453   3.863   6.109  1.0879 -0.0716  1.5664
   94SAPS    HB 9229   1.321   3.743   6.078 -0.7311 -0.9230  0.3730
   94SAPS    C2 9230   1.388   3.744   6.289  0.7766  0.3683  0.9157
   94SAPS    HS 9231   1.479   3.765   6.349 -0.1547  0.8635  2.2187
   94SAPS   O21 9232   1.357   3.607   6.306 -0.1352  0.1770  0.7334
   94SAPS   C21 9233   1.455   3.525   6.345  0.4633  0.1118 -0.2287
   94SAPS   O22 9234   1.568   3.557   6.370 -0.6363  0.0039  0.7424
   94SAPS   C22 9235   1.413   3.376   6.366  0.4635 -0.0829 -0.7360
   94SAPS   H2R 9236   1.444   3.312   6.281  0.1629 -1.0556 -0.1372
   94SAPS   H2S 9237   1.468   3.338   6.455 -2.6182  1.5751  2.1324
   94SAPS    C3 9238   1.268   3.826   6.342  0.3022  0.6672 -0.6342
   94SAPS    HX 9239   1.270   3.800   6.450 -2.3489 -1.3977 -0.9974
   94SAPS    HY 9240   1.178   3.781   6.295 -1.1810  0.9644  1.7322
   94SAPS   O31 9241   1.291   3.969   6.317 -0.0034  0.1759  0.6010
   94SAPS   C31 9242   1.180   4.041   6.315  0.3932  0.1875  0.6703
   94SAPS   O32 9243   1.068   3.994   6.342  0.2018 -0.8304 -0.2094
   94SAPS   C32 9244   1.210   4.185   6.274  0.2181 -0.2577  0.1313
   94SAPS   H2X 9245   1.126   4.221   6.210 -0.5549 -1.9671  0.1295
   94SAPS   H2Y 9246   1.301   4.199   6.213 -1.2021  1.3919 -1.7428
   94SAPS   C23 9247   1.263   3.344   6.389  0.0570  0.2063 -0.1014
   94SAPS   H3R 9248   1.214   3.343   6.289 -1.5862 -0.0996  0.6717
   94SAPS   H3S 9249   1.227   3.432   6.447  0.3508  1.4043 -1.6503
   94SAPS   C24 9250   1.236   3.213   6.456  0.5602 -0.7212 -0.1238
   94SAPS   H4R 9251   1.313   3.151   6.406 -0.2005 -0.0384 -2.2304
   94SAPS   H4S 9252   1.131   3.179   6.451  0.7701 -1.4734  0.4138
   94SAPS   C25 9253   1.288   3.211   6.598  0.3005  0.5102 -0.1193
   94SAPS   H5R 9254   1.393   3.182   6.610 -0.4803 -2.6097  0.1001
   94SAPS   C26 9255   1.213   3.209   6.714 -0.2110  0.0241  0.4044
   94SAPS   H6R 9256   1.268   3.195   6.808  1.4720  2.5082 -0.1187
   94SAPS   C27 9257   1.056   3.213   6.729 -1.3600  0.1123 -0.5629
   94SAPS   H7R 9258   1.002   3.234   6.634 -1.0522 -0.5682 -0.8949
   94SAPS   H7S 9259   1.026   3.297   6.795 -0.9588 -0.4369  0.3397
   94SAPS   C28 9260   1.002   3.080   6.782  0.3760 -0.2032 -0.3626
   94SAPS   H8R 9261   0.974   3.009   6.703 -0.6132  1.3044 -1.4326
   94SAPS   C29 9262   1.016   3.048   6.915 -0.3363 -0.3396  0.8523
   94SAPS   H9R 9263   0.972   2.952   6.948 -0.1992 -0.9512 -0.6814
   94SAPS  C210 9264   1.070   3.139   7.019  1.3714  0.0372 -0.1973
   94SAPS  H10R 9265   1.110   3.237   6.986 -2.0214  2.0382  1.1395
   94SAPS  H10S 9266   1.160   3.086   7.058  0.2923  0.1879  2.7805
   94SAPS  C211 9267   0.972   3.155   7.132 -0.1075 -0.5394  0.0056
   94SAPS  H11R 9268   0.872   3.188   7.099 -0.1184 -2.5629 -2.2434
   94SAPS  C212 9269   1.006   3.136   7.260 -0.8781 -0.1934 -0.4378
   94SAPS  H12R 9270   0.932   3.145   7.341 -1.2944 -0.7999 -0.7457
   94SAPS  C213 9271   1.134   3.097   7.327  0.1425  0.1267  0.4918
   94SAPS  H13R 9272   1.162   3.154   7.418 -1.5989 -0.2161  1.2746
   94SAPS  H13S 9273   1.217   3.103   7.253  0.5672  0.5761  1.0026
   94SAPS  C214 9274   1.129   2.948   7.358 -0.3364 -1.0319 -0.1905
   94SAPS  H14R 9275   1.056   2.885   7.305 -1.1874 -0.7476  0.6076
   94SAPS  C215 9276   1.191   2.879   7.456 -0.2541 -0.3975  0.5196
   94SAPS  H15R 9277   1.174   2.770   7.456 -2.2689 -0.1315 -0.6042
   94SAPS  C216 9278   1.284   2.938   7.558  0.5882 -0.2525 -0.7295
   94SAPS  H16R 9279   1.330   3.033   7.523 -0.4692 -0.1023 -1.7930
   94SAPS  H16S 9280   1.376   2.875   7.561  0.4833 -0.4131 -0.8344
   94SAPS  C217 9281   1.213   2.954   7.688 -0.4404  0.2474 -0.2729
   94SAPS  H17R 9282   1.151   2.865   7.710 -0.5021 -0.2607 -2.3353
   94SAPS  H17S 9283   1.142   3.039   7.678 -0.8920  0.0594  1.0464
   94SAPS  C218 9284   1.311   2.981   7.800 -0.0140  0.4160  0.2382
   94SAPS  H18R 9285   1.359   3.079   7.778 -1.0344  0.6374 -1.0819
   94SAPS  H18S 9286   1.393   2.906   7.804 -1.8057 -1.9006 -2.7376
   94SAPS  C219 9287   1.237   2.985   7.939 -0.1474 -0.2753  0.2277
   94SAPS  H19R 9288   1.178   2.892   7.947  2.0651 -1.6466  2.2528
   94SAPS  H19S 9289   1.162   3.067   7.936 -0.7231 -0.7144  1.7100
   94SAPS  C220 9290   1.328   2.993   8.063 -0.5189  0.5709 -0.0148
   94SAPS  H20R 9291   1.381   2.896   8.075  1.6963  1.6655 -0.3330
   94SAPS  H20S 9292   1.277   3.026   8.156  1.2371 -0.6329  1.4459
   94SAPS  H20T 9293   1.402   3.076   8.059  0.5803 -0.4010 -0.8096
   94SAPS   C33 9294   1.206   4.280   6.398 -0.3611 -0.0281 -0.7532
   94SAPS   H3X 9295   1.108   4.267   6.448  0.8109 -1.1352  1.4430
   94SAPS   H3Y 9296   1.197   4.383   6.359 -0.2484  0.7457  1.1323
   94SAPS   C34 9297   1.314   4.262   6.502  0.5178 -0.3574 -0.0835
   94SAPS   H4X 9298   1.353   4.363   6.526 -0.8735 -0.2932  2.2755
   94SAPS   H4Y 9299   1.404   4.206   6.471  2.5248  1.8665  1.3367
   94SAPS   C35 9300   1.256   4.206   6.638  0.5256 -0.6227 -0.7424
   94SAPS   H5X 9301   1.208   4.106   6.626 -0.2919 -0.0552 -2.4851
   94SAPS   H5Y 9302   1.175   4.274   6.671 -0.6084 -2.0748 -0.4257
   94SAPS   C36 9303   1.363   4.204   6.748  0.2984  0.1483 -0.5691
   94SAPS   H6X 9304   1.399   4.309   6.756 -1.1760  0.5734  1.1927
   94SAPS   H6Y 9305   1.444   4.133   6.722  0.4705 -0.5018  1.5536
   94SAPS   C37 9306   1.314   4.159   6.891 -0.1959  0.3782 -0.5335
   94SAPS   H7X 9307   1.236   4.222   6.938 -0.2622 -0.3619  0.3707
   94SAPS   H7Y 9308   1.405   4.163   6.954 -0.0877 -0.7415 -0.5872
   94SAPS   C38 9309   1.277   4.013   6.897  0.4755  0.7623  0.3367
   94SAPS   H8X 9310   1.350   3.949   6.843 -0.5084  1.7185 -2.3113
   94SAPS   H8Y 9311   1.184   3.999   6.838  0.5397 -1.8147  0.7602
   94SAPS   C39 9312   1.249   3.960   7.039  0.4262 -0.3551  0.4642
   94SAPS   H9X 9313   1.189   3.867   7.027 -1.1035  0.8359 -1.7608
   94SAPS   H9Y 9314   1.187   4.032   7.096  3.4582  0.9257  2.3578
   94SAPS  C310 9315   1.379   3.915   7.111  0.2050 -0.5870 -0.0511
   94SAPS  H10X 9316   1.457   3.988   7.141  1.1576 -1.2883 -0.7639
   94SAPS  H10Y 9317   1.434   3.851   7.039  0.0593  1.5812 -2.1859
   94SAPS  C311 9318   1.347   3.834   7.246  0.2759 -0.3294  0.5352
   94SAPS  H11X 9319   1.441   3.818   7.303  0.4163 -1.1574  0.0909
   94SAPS  H11Y 9320   1.301   3.736   7.221  2.6110 -1.2338 -0.5618
   94SAPS  C312 9321   1.255   3.912   7.335 -0.6256 -0.1359 -0.5326
   94SAPS  H12X 9322   1.151   3.909   7.295 -1.5590  0.8547  1.6421
   94SAPS  H12Y 9323   1.294   4.016   7.330 -0.2081 -0.3316 -3.5144
   94SAPS  C313 9324   1.260   3.882   7.487 -0.1102 -0.4263 -0.1757
   94SAPS  H13X 9325   1.201   3.791   7.513  0.6424 -0.5079  1.3369
   94SAPS  H13Y 9326   1.210   3.970   7.530 -0.2677  0.2178 -1.6123
   94SAPS  C314 9327   1.404   3.855   7.543 -0.2509 -0.1198  0.6328
   94SAPS  H14X 9328   1.474   3.936   7.513  3.0163 -1.9954  2.6060
   94SAPS  H14Y 9329   1.443   3.760   7.501  2.9700  0.4892  1.9716
   94SAPS  C315 9330   1.409   3.836   7.692 -0.3072  0.1576  0.7272
   94SAPS  H15X 9331   1.352   3.744   7.720  2.8235 -2.5630 -1.0833
   94SAPS  H15Y 9332   1.368   3.929   7.737  1.4451  1.9062 -1.1080
   94SAPS  C316 9333   1.548   3.803   7.744  0.5156  0.1987  0.2958
   94SAPS  H16X 9334   1.617   3.887   7.723  0.8004  0.2920  1.5197
   94SAPS  H16Y 9335   1.598   3.716   7.697 -0.9457 -0.8650  0.6204
   94SAPS  C317 9336   1.555   3.784   7.895 -0.0200  0.4938 -0.4071
   94SAPS  H17X 9337   1.483   3.704   7.923  0.5648  0.2821  0.5310
   94SAPS  H17Y 9338   1.515   3.882   7.928  2.0714  1.6022 -0.9548
   94SAPS  C318 9339   1.692   3.759   7.946  0.1008  0.8855  0.6722
   94SAPS  H18X 9340   1.756   3.710   7.870 -3.3157 -0.7470 -1.3913
   94SAPS  H18Y 9341   1.687   3.690   8.033  1.1918  0.8564  0.7279
   94SAPS  H18Z 9342   1.741   3.853   7.978  1.6852  1.0171 -1.8576
   95SAPS     N 9343   6.138   0.741   6.238  0.5211 -0.4988  0.7801
   95SAPS   HN1 9344   6.067   0.702   6.173 -0.2651  0.3711  1.0978
   95SAPS   HN2 9345   6.221   0.679   6.241 -0.2959 -1.9866 -2.4088
   95SAPS   HN3 9346   6.098   0.764   6.331  1.5554  2.2688  0.6376
   95SAPS   C12 9347   6.164   0.878   6.193 -0.2731  0.0117  0.6206
   95SAPS  H12A 9348   6.191   0.930   6.284  1.3976  0.4197 -0.0799
   95SAPS   C13 9349   6.294   0.902   6.110 -0.3442  0.4146 -0.7031
   95SAPS  O13A 9350   6.381   0.810   6.114 -0.0013  0.4298  0.0605
   95SAPS  O13B 9351   6.302   1.005   6.040 -0.0550  0.0499  0.3444
   95SAPS   C11 9352   6.031   0.945   6.135  0.2807  0.4604 -0.7185
   95SAPS  H11A 9353   6.006   0.884   6.046  3.7493  0.8231 -2.0990
   95SAPS  H11B 9354   6.058   1.051   6.115  0.3312  0.2315 -1.9137
   95SAPS     P 9355   5.798   1.008   6.246  0.3925 -0.0111  0.3074
   95SAPS   O13 9356   5.789   1.113   6.137  0.2233 -0.1883  0.1150
   95SAPS   O14 9357   5.687   0.915   6.257  0.3817 -0.1023 -0.0609
   95SAPS   O12 9358   5.928   0.921   6.238  0.0094 -0.2776  0.2819
   95SAPS   O11 9359   5.818   1.089   6.381  0.8933 -0.0267  0.3677
   95SAPS    C1 9360   5.942   1.111   6.452 -0.8819 -0.4053  0.0518
   95SAPS    HA 9361   6.010   1.026   6.431 -0.2363 -0.3597  1.8130
   95SAPS    HB 9362   5.995   1.198   6.409 -0.1429 -1.1077 -0.4936
   95SAPS    C2 9363   5.928   1.125   6.608  0.2161 -0.3733  0.3726
   95SAPS    HS 9364   6.021   1.174   6.644 -1.5917  2.9787  0.9240
   95SAPS   O21 9365   5.898   0.996   6.671 -1.0013  0.2628  0.6175
   95SAPS   C21 9366   6.002   0.916   6.688 -0.0724  0.7577  0.2787
   95SAPS   O22 9367   6.112   0.928   6.646  0.1529  0.6063 -0.0779
   95SAPS   C22 9368   5.956   0.803   6.781 -0.1552  0.3395  0.0660
   95SAPS   H2R 9369   5.850   0.822   6.810 -1.0417 -0.9394 -2.1332
   95SAPS   H2S 9370   5.956   0.709   6.722  1.6088 -0.1364  0.7267
   95SAPS    C3 9371   5.820   1.225   6.643 -0.8817 -0.6200 -0.4076
   95SAPS    HX 9372   5.735   1.195   6.577  0.0728 -1.7735 -1.1510
   95SAPS    HY 9373   5.859   1.328   6.632  0.5712 -1.1068  0.0341
   95SAPS   O31 9374   5.778   1.200   6.774  0.1404 -0.1091 -0.0153
   95SAPS   C31 9375   5.848   1.241   6.887  0.4187  0.8424  0.6550
   95SAPS   O32 9376   5.948   1.309   6.891  0.3923 -0.2689 -0.1933
   95SAPS   C32 9377   5.789   1.157   7.001 -0.2555  0.0016 -0.1084
   95SAPS   H2X 9378   5.807   1.054   6.964  1.2828  0.5771 -1.0645
   95SAPS   H2Y 9379   5.678   1.157   7.009 -0.2732 -0.1633 -0.3246
   95SAPS   C23 9380   6.058   0.770   6.893  0.5214 -0.5667  0.2625
   95SAPS   H3R 9381   6.091   0.860   6.948  1.7541 -1.3189  0.8192
   95SAPS   H3S 9382   6.158   0.752   6.847  1.5263  1.3875  1.5668
   95SAPS   C24 9383   5.997   0.665   6.989 -0.0429  0.7505 -0.0125
   95SAPS   H4R 9384   5.917   0.603   6.943  1.1282 -0.2385 -0.7496
   95SAPS   H4S 9385   5.953   0.724   7.072 -0.5642  1.6261 -0.8779
   95SAPS   C25 9386   6.105   0.587   7.058  0.5004  0.1515  0.2666
   95SAPS   H5R 9387   6.155   0.517   6.990  0.8681 -0.7218  1.4063
   95SAPS   C26 9388   6.148   0.600   7.186  0.4853 -0.1269 -0.1461
   95SAPS   H6R 9389   6.223   0.530   7.227 -2.0611 -2.7961  0.2682
   95SAPS   C27 9390   6.093   0.702   7.289  0.0776 -0.0372 -0.2910
   95SAPS   H7R 9391   6.030   0.646   7.362 -1.7628  2.0825 -0.1562
   95SAPS   H7S 9392   6.024   0.774   7.241 -0.9313 -0.4914  0.4541
   95SAPS   C28 9393   6.203   0.775   7.367 -0.2100  0.9997  0.7207
   95SAPS   H8R 9394   6.278   0.820   7.301 -1.2224  2.5259  0.5649
   95SAPS   C29 9395   6.203   0.808   7.497  0.8958 -0.1732  0.6154
   95SAPS   H9R 9396   6.290   0.867   7.530  2.0810 -1.7555  0.4310
   95SAPS  C210 9397   6.100   0.782   7.602 -0.1951 -0.2482 -0.0700
   95SAPS  H10R 9398   6.157   0.799   7.695 -1.3809 -0.4281  0.7123
   95SAPS  H10S 9399   6.069   0.675   7.608 -4.6929  0.8218 -0.2657
   95SAPS  C211 9400   5.975   0.858   7.582  0.7508 -0.2497  0.0460
   95SAPS  H11R 9401   5.922   0.849   7.486 -0.2383 -0.9431  0.6421
   95SAPS  C212 9402   5.926   0.942   7.674 -0.0655  1.3000  0.4422
   95SAPS  H12R 9403   5.833   0.988   7.637 -0.8250 -1.9448 -2.2420
   95SAPS  C213 9404   5.970   0.985   7.810  0.1512 -0.0017  0.3202
   95SAPS  H13R 9405   6.076   1.015   7.823  0.3140 -0.7095  0.6991
   95SAPS  H13S 9406   5.956   0.892   7.869  1.4180  0.3098  1.1292
   95SAPS  C214 9407   5.885   1.079   7.887  0.6284 -0.6120 -0.2574
   95SAPS  H14R 9408   5.795   1.116   7.836  1.3611  1.1943 -0.3313
   95SAPS  C215 9409   5.895   1.119   8.017 -0.3164 -0.0428 -0.3024
   95SAPS  H15R 9410   5.832   1.201   8.055  2.3399  1.7207  0.5567
   95SAPS  C216 9411   6.001   1.074   8.117 -0.1158 -0.5730 -0.2695
   95SAPS  H16R 9412   6.068   1.159   8.143  0.3610 -0.4830 -1.6535
   95SAPS  H16S 9413   6.065   0.988   8.085 -2.6097 -2.0956 -1.4237
   95SAPS  C217 9414   5.945   1.031   8.255  0.5345 -0.4554  0.0615
   95SAPS  H17R 9415   5.876   0.944   8.247 -2.5157  1.7544  0.5129
   95SAPS  H17S 9416   5.890   1.120   8.292 -0.8444 -0.7055 -1.2571
   95SAPS  C218 9417   6.050   0.998   8.365  0.0082  0.6781 -0.3354
   95SAPS  H18R 9418   6.075   1.097   8.408  0.3271  1.4163 -2.1347
   95SAPS  H18S 9419   6.131   0.939   8.317 -0.0639  1.2405 -1.1496
   95SAPS  C219 9420   6.003   0.923   8.497  0.0454  0.5702 -0.1939
   95SAPS  H19R 9421   5.937   0.984   8.562  1.3178  1.0554  0.6879
   95SAPS  H19S 9422   6.091   0.906   8.562 -1.1986 -1.9848  0.9763
   95SAPS  C220 9423   5.934   0.785   8.467  0.2606 -0.5714  0.4787
   95SAPS  H20R 9424   5.827   0.790   8.437  0.6293 -2.2314 -1.3199
   95SAPS  H20S 9425   5.931   0.725   8.560 -2.1926  0.1054  0.9048
   95SAPS  H20T 9426   5.988   0.719   8.396 -1.1923 -3.0056  1.5150
   95SAPS   C33 9427   5.869   1.200   7.124  1.3280 -0.7875 -0.5965
   95SAPS   H3X 9428   5.806   1.168   7.210 -0.3231  1.4863 -0.8641
   95SAPS   H3Y 9429   5.859   1.308   7.146 -0.1586 -1.2372  1.1099
   95SAPS   C34 9430   6.013   1.160   7.134  1.0337  0.2650  0.5749
   95SAPS   H4X 9431   6.091   1.228   7.094  1.7029 -1.1358 -0.5858
   95SAPS   H4Y 9432   6.018   1.064   7.079  1.1500  0.1061  0.8603
   95SAPS   C35 9433   6.046   1.115   7.282  0.8691 -0.2537  0.3939
   95SAPS   H5X 9434   6.121   1.033   7.285 -1.1513 -2.2130  0.3556
   95SAPS   H5Y 9435   5.958   1.073   7.334 -0.2616 -0.3492 -1.4798
   95SAPS   C36 9436   6.105   1.234   7.361  0.2125  0.3941  0.4691
   95SAPS   H6X 9437   6.037   1.322   7.355 -0.0192  0.2560  1.0305
   95SAPS   H6Y 9438   6.201   1.272   7.320  0.5804  0.2680  1.2018
   95SAPS   C37 9439   6.143   1.196   7.506 -0.4003 -0.1449 -0.6847
   95SAPS   H7X 9440   6.225   1.123   7.517 -0.5777 -0.1392  0.8621
   95SAPS   H7Y 9441   6.059   1.143   7.556 -1.5300  0.2780 -2.0556
   95SAPS   C38 9442   6.187   1.315   7.589 -0.0113  0.0059  0.4280
   95SAPS   H8X 9443   6.135   1.410   7.562 -1.1136 -0.7576 -0.1742
   95SAPS   H8Y 9444   6.292   1.336   7.559  0.1582 -0.9997  0.3043
   95SAPS   C39 9445   6.186   1.293   7.737  0.6756  0.1702  0.0860
   95SAPS   H9X 9446   6.244   1.199   7.753  0.9638  0.1979 -0.7380
   95SAPS   H9Y 9447   6.085   1.270   7.778  0.5270  2.7726  1.3367
   95SAPS  C310 9448   6.244   1.403   7.825 -0.3582  0.3906  0.1059
   95SAPS  H10X 9449   6.172   1.488   7.823 -2.9237 -1.3677  4.2199
   95SAPS  H10Y 9450   6.343   1.433   7.784 -1.2389  1.1254 -1.5694
   95SAPS  C311 9451   6.252   1.361   7.972 -0.1766 -0.6061  0.7021
   95SAPS  H11X 9452   6.295   1.260   7.987  0.1866 -0.4417  0.7950
   95SAPS  H11Y 9453   6.150   1.355   8.015  0.0617  1.0347  1.5733
   95SAPS  C312 9454   6.326   1.467   8.052 -0.1295  0.0964  0.5387
   95SAPS  H12X 9455   6.294   1.567   8.014 -0.4817 -1.2381 -3.0894
   95SAPS  H12Y 9456   6.436   1.469   8.036 -0.0231  1.0758  1.2768
   95SAPS  C313 9457   6.302   1.459   8.203  0.1969  0.0596 -0.0414
   95SAPS  H13X 9458   6.336   1.357   8.234 -0.2301 -0.1520 -0.2638
   95SAPS  H13Y 9459   6.192   1.462   8.216  0.1382 -2.5076  0.6427
   95SAPS  C314 9460   6.374   1.571   8.282 -0.1040  0.6241 -0.8071
   95SAPS  H14X 9461   6.354   1.667   8.230  1.4956  1.0514 -0.6941
   95SAPS  H14Y 9462   6.485   1.566   8.282  0.0023  0.5560  2.3220
   95SAPS  C315 9463   6.331   1.582   8.429 -0.4902  0.4904 -0.6283
   95SAPS  H15X 9464   6.220   1.588   8.429 -1.2104 -5.8390  0.4899
   95SAPS  H15Y 9465   6.378   1.674   8.470  0.9118 -0.0464 -0.9773
   95SAPS  C316 9466   6.376   1.455   8.515 -0.0646 -0.5806 -0.1187
   95SAPS  H16X 9467   6.483   1.431   8.499 -0.1619 -0.3071 -1.3237
   95SAPS  H16Y 9468   6.325   1.366   8.471 -0.0641  0.2998 -1.9935
   95SAPS  C317 9469   6.348   1.475   8.661  0.4980  0.2797  0.8133
   95SAPS  H17X 9470   6.428   1.538   8.704  0.0188  0.8942  0.8158
   95SAPS  H17Y 9471   6.361   1.374   8.706 -0.3336 -0.7769 -1.1843
   95SAPS  C318 9472   6.218   1.537   8.703  1.2913  0.1620  0.0522
   95SAPS  H18X 9473   6.135   1.508   8.636 -0.2722  2.6670  0.7782
   95SAPS  H18Y 9474   6.221   1.646   8.726  2.3820  0.4205 -1.1507
   95SAPS  H18Z 9475   6.189   1.494   8.801 -2.9814 -0.8942 -1.4617
   96SAPS     N 9476   5.716   3.283   6.606  0.2390  0.2311 -0.0862
   96SAPS   HN1 9477   5.765   3.207   6.657 -1.0459  0.0082  0.8427
   96SAPS   HN2 9478   5.783   3.355   6.570  1.5779 -0.7099  0.4637
   96SAPS   HN3 9479   5.658   3.323   6.682  0.1761 -0.7157  0.3712
   96SAPS   C12 9480   5.634   3.222   6.498  0.1148  0.1753 -0.8790
   96SAPS  H12A 9481   5.563   3.163   6.554  0.6527 -0.1839 -0.5597
   96SAPS   C13 9482   5.545   3.313   6.412 -0.4286  0.0684 -0.6169
   96SAPS  O13A 9483   5.545   3.439   6.435  0.3206 -0.0970  0.3184
   96SAPS  O13B 9484   5.484   3.260   6.319 -0.8392 -0.9693 -0.1473
   96SAPS   C11 9485   5.721   3.131   6.397  0.8658 -0.3890 -0.2016
   96SAPS  H11A 9486   5.799   3.193   6.348 -1.6070  0.8987 -2.7888
   96SAPS  H11B 9487   5.650   3.102   6.317  0.9138 -1.3075  0.0702
   96SAPS     P 9488   5.852   2.904   6.409 -0.2847 -0.2427  0.1974
   96SAPS   O13 9489   5.769   2.794   6.352  0.8003 -0.1028  0.0256
   96SAPS   O14 9490   5.949   2.966   6.312  0.2396 -0.1589 -0.3326
   96SAPS   O12 9491   5.767   3.014   6.468 -0.3164 -0.2312  0.0381
   96SAPS   O11 9492   5.935   2.848   6.534 -0.6876 -0.4650  0.3098
   96SAPS    C1 9493   5.865   2.782   6.635  0.6449 -0.3981 -0.6973
   96SAPS    HA 9494   5.769   2.735   6.606  0.2513 -0.9029  1.2690
   96SAPS    HB 9495   5.923   2.700   6.683 -0.5902 -0.9238 -0.0646
   96SAPS    C2 9496   5.828   2.881   6.745 -0.1064 -0.4607 -0.5639
   96SAPS    HS 9497   5.760   2.955   6.698 -0.6004 -0.7378 -0.2922
   96SAPS   O21 9498   5.950   2.938   6.793 -0.2122  0.6088  0.7796
   96SAPS   C21 9499   5.946   3.072   6.818  0.5666  0.3287  0.3239
   96SAPS   O22 9500   5.850   3.144   6.789 -0.6595  0.3394  0.2882
   96SAPS   C22 9501   6.070   3.115   6.894 -0.4812 -0.6911  0.4560
   96SAPS   H2R 9502   6.121   3.024   6.933 -0.2541 -0.9339 -0.3770
   96SAPS   H2S 9503   6.140   3.157   6.819 -1.4389 -2.6640 -1.6651
   96SAPS    C3 9504   5.760   2.803   6.864  0.2479 -1.1730  0.0957
   96SAPS    HX 9505   5.836   2.726   6.889  3.6020  1.4931 -1.1300
   96SAPS    HY 9506   5.664   2.763   6.825  1.3361 -0.7762 -3.3779
   96SAPS   O31 9507   5.735   2.897   6.976 -0.7084 -0.1228  0.0439
   96SAPS   C31 9508   5.623   2.969   6.979 -0.2386  0.5850  0.0300
   96SAPS   O32 9509   5.537   2.973   6.902  0.3890  0.0162 -0.6763
   96SAPS   C32 9510   5.633   3.068   7.099  0.2036  0.0029  0.3928
   96SAPS   H2X 9511   5.634   3.175   7.069  1.0511 -0.3751 -1.0349
   96SAPS   H2Y 9512   5.721   3.046   7.164  1.0814  0.0561 -0.7352
   96SAPS   C23 9513   6.030   3.211   7.007 -0.4754 -0.7943  0.4684
   96SAPS   H3R 9514   5.955   3.289   6.982  1.4093  0.9224 -0.1170
   96SAPS   H3S 9515   6.122   3.269   7.030 -1.4230  0.3064  1.6881
   96SAPS   C24 9516   5.990   3.143   7.134 -0.0071  0.2851  0.4245
   96SAPS   H4R 9517   6.078   3.083   7.168 -0.1162  0.1382  0.4481
   96SAPS   H4S 9518   5.910   3.070   7.106  1.3190 -1.2992  0.5800
   96SAPS   C25 9519   5.937   3.230   7.245  0.1731 -0.5382  0.3104
   96SAPS   H5R 9520   5.889   3.324   7.213  0.5730  0.0006  1.2600
   96SAPS   C26 9521   5.939   3.203   7.382 -0.2256 -0.6363 -0.0035
   96SAPS   H6R 9522   5.878   3.272   7.442 -0.6622 -1.2295  0.2407
   96SAPS   C27 9523   6.001   3.093   7.456  0.1760  0.8317 -0.1814
   96SAPS   H7R 9524   6.070   3.139   7.529  1.2375 -0.0884 -0.5778
   96SAPS   H7S 9525   6.060   3.023   7.393  2.2575  0.7278  1.7680
   96SAPS   C28 9526   5.888   3.021   7.529 -0.6910  0.5983  0.3884
   96SAPS   H8R 9527   5.820   2.957   7.473  1.2627  0.1430 -1.6089
   96SAPS   C29 9528   5.865   3.034   7.664  0.7008 -0.5408  0.4073
   96SAPS   H9R 9529   5.778   2.982   7.707 -1.0343 -0.0335 -2.2066
   96SAPS  C210 9530   5.949   3.106   7.767 -0.3928  0.7015 -0.7049
   96SAPS  H10R 9531   5.889   3.127   7.857 -1.9488  0.9678 -1.7657
   96SAPS  H10S 9532   5.987   3.202   7.727  4.6650  0.2377  2.1396
   96SAPS  C211 9533   6.069   3.018   7.804 -0.1699 -0.2193 -0.5273
   96SAPS  H11R 9534   6.113   2.941   7.740 -0.5122 -0.5687 -0.3509
   96SAPS  C212 9535   6.130   3.054   7.920 -0.2145  0.4633  0.2956
   96SAPS  H12R 9536   6.204   2.990   7.970  1.9279  2.2350 -0.4429
   96SAPS  C213 9537   6.078   3.151   8.026 -0.2842 -0.2013  0.2625
   96SAPS  H13R 9538   5.987   3.113   8.076  0.3944 -0.0042  1.6911
   96SAPS  H13S 9539   6.047   3.249   7.986  1.3523  0.4133  0.4004
   96SAPS  C214 9540   6.171   3.177   8.143  0.1889 -0.0846  0.7563
   96SAPS  H14R 9541   6.231   3.269   8.142  0.1713 -0.0500 -1.2278
   96SAPS  C215 9542   6.182   3.101   8.255  0.0285  0.0283  0.0766
   96SAPS  H15R 9543   6.256   3.125   8.333  0.5886 -0.4369 -0.3033
   96SAPS  C216 9544   6.100   2.978   8.288 -0.1958  0.0517  0.0085
   96SAPS  H16R 9545   6.175   2.899   8.312 -0.3385 -0.4454 -1.1210
   96SAPS  H16S 9546   6.041   2.937   8.204  1.1847  0.5581 -1.2491
   96SAPS  C217 9547   6.020   2.995   8.423  0.3046  0.2395  0.8007
   96SAPS  H17R 9548   6.092   3.004   8.508  2.1916 -3.2488 -0.2309
   96SAPS  H17S 9549   5.988   2.892   8.450  0.3328  0.2627  0.9274
   96SAPS  C218 9550   5.912   3.095   8.421 -0.1128  0.4162  0.0877
   96SAPS  H18R 9551   5.839   3.082   8.338  0.1796 -3.6216  0.2681
   96SAPS  H18S 9552   5.965   3.192   8.408 -2.6698  1.7519 -1.1440
   96SAPS  C219 9553   5.839   3.112   8.557  0.1256 -0.8295  0.4169
   96SAPS  H19R 9554   5.772   3.200   8.553 -0.0691 -1.0018 -3.4480
   96SAPS  H19S 9555   5.918   3.129   8.634  0.0020  0.6248  0.2442
   96SAPS  C220 9556   5.747   2.990   8.604 -0.1677  0.2707 -0.1061
   96SAPS  H20R 9557   5.655   2.976   8.543  0.2574  0.5138 -0.8265
   96SAPS  H20S 9558   5.717   3.015   8.708 -0.6796 -1.3222  0.1586
   96SAPS  H20T 9559   5.801   2.894   8.610 -0.0454  0.1882 -1.8824
   96SAPS   C33 9560   5.514   3.042   7.186  0.5130 -0.5879 -0.0122
   96SAPS   H3X 9561   5.509   2.932   7.198  1.3901 -0.9690 -2.5049
   96SAPS   H3Y 9562   5.419   3.070   7.136 -0.3345 -0.5335  1.5599
   96SAPS   C34 9563   5.523   3.118   7.320  0.2763 -0.5063  0.3399
   96SAPS   H4X 9564   5.522   3.226   7.295  0.7687 -0.1436  1.8303
   96SAPS   H4Y 9565   5.621   3.102   7.371  1.7408  1.7141 -1.5267
   96SAPS   C35 9566   5.415   3.091   7.419  0.6770  0.7217  0.3180
   96SAPS   H5X 9567   5.377   2.988   7.403  0.9632  0.2223  2.4726
   96SAPS   H5Y 9568   5.319   3.146   7.410 -0.8448 -1.6590  1.1026
   96SAPS   C36 9569   5.470   3.103   7.568  1.1887 -0.6145 -0.1969
   96SAPS   H6X 9570   5.514   3.204   7.579  1.7002 -0.6116 -1.9053
   96SAPS   H6Y 9571   5.562   3.044   7.588  0.4887 -1.2029  1.4736
   96SAPS   C37 9572   5.367   3.077   7.679  0.3486 -0.2146 -0.1167
   96SAPS   H7X 9573   5.328   2.974   7.666  0.4974 -0.8040  3.1870
   96SAPS   H7Y 9574   5.286   3.153   7.673  0.5436 -0.1184 -1.8523
   96SAPS   C38 9575   5.428   3.094   7.819  0.2564 -0.8159 -0.3951
   96SAPS   H8X 9576   5.473   3.194   7.838 -0.9193 -0.5180  1.0290
   96SAPS   H8Y 9577   5.511   3.020   7.827 -1.0111 -2.5609 -2.4161
   96SAPS   C39 9578   5.330   3.073   7.933 -0.1993  0.5609 -0.5048
   96SAPS   H9X 9579   5.270   2.983   7.913 -1.5033  1.7443 -2.1399
   96SAPS   H9Y 9580   5.251   3.151   7.929  1.0734  2.0258  1.1888
   96SAPS  C310 9581   5.394   3.073   8.071 -0.4254 -0.6165 -0.6247
   96SAPS  H10X 9582   5.409   3.176   8.110  0.3788 -1.2795  0.8885
   96SAPS  H10Y 9583   5.487   3.013   8.082  0.1090  0.5894  2.8483
   96SAPS  C311 9584   5.296   3.008   8.172  0.3851  0.2873  0.5512
   96SAPS  H11X 9585   5.318   2.903   8.144 -0.5345  0.2167  0.0512
   96SAPS  H11Y 9586   5.192   3.043   8.152  0.7062  1.3216  0.6535
   96SAPS  C312 9587   5.335   3.030   8.319  0.2471  0.4451  0.8561
   96SAPS  H12X 9588   5.352   3.138   8.338 -0.3846  0.7101  0.0094
   96SAPS  H12Y 9589   5.436   2.987   8.338  1.0947  1.1935 -1.6284
   96SAPS  C313 9590   5.218   2.989   8.407  0.1420  0.4645 -0.4505
   96SAPS  H13X 9591   5.123   3.040   8.381 -0.3494  0.2005  0.7478
   96SAPS  H13Y 9592   5.247   3.016   8.511  3.2086  0.2778 -1.1547
   96SAPS  C314 9593   5.187   2.841   8.404 -0.0464  0.5185 -0.3711
   96SAPS  H14X 9594   5.282   2.790   8.377  0.9248  3.1025 -2.2882
   96SAPS  H14Y 9595   5.109   2.819   8.329  1.2807  0.6223 -1.8471
   96SAPS  C315 9596   5.144   2.765   8.535  0.1671  0.5140 -0.5898
   96SAPS  H15X 9597   5.041   2.794   8.566  0.5091  0.9582  0.1638
   96SAPS  H15Y 9598   5.219   2.798   8.611 -1.1181 -0.4207  1.1465
   96SAPS  C316 9599   5.147   2.610   8.525 -0.0425  0.0585 -0.1704
   96SAPS  H16X 9600   5.109   2.561   8.618 -0.1731 -1.1495 -0.8481
   96SAPS  H16Y 9601   5.256   2.593   8.514 -0.0935  0.9474 -2.3901
   96SAPS  C317 9602   5.073   2.567   8.401 -0.3564 -0.0660 -0.1901
   96SAPS  H17X 9603   5.070   2.456   8.400 -0.4308 -0.1123  1.7962
   96SAPS  H17Y 9604   5.137   2.597   8.315 -1.2594 -0.3990 -1.0090
   96SAPS  C318 9605   4.920   2.611   8.386 -0.1852  0.0611  0.2554
   96SAPS  H18X 9606   4.921   2.721   8.399 -1.7011  0.1647 -0.2965
   96SAPS  H18Y 9607   4.857   2.554   8.459  0.4460 -0.9301  0.0536
   96SAPS  H18Z 9608   4.877   2.595   8.285 -0.6755  1.9631  0.1321
   97SAPS     N 9609   5.992   6.731   6.279 -0.0077  0.4517  0.5846
   97SAPS   HN1 9610   6.004   6.647   6.218  1.0951 -0.8653  2.4792
   97SAPS   HN2 9611   6.035   6.698   6.369  3.5175  1.2826 -0.6243
   97SAPS   HN3 9612   5.888   6.732   6.279 -0.1003 -1.9106 -0.2369
   97SAPS   C12 9613   6.060   6.854   6.231  0.3951 -0.6485  0.2846
   97SAPS  H12A 9614   6.168   6.854   6.243  0.7109  0.3934 -1.9870
   97SAPS   C13 9615   6.053   6.869   6.076 -0.3957  0.2642 -0.5304
   97SAPS  O13A 9616   6.006   6.776   6.009 -0.7692 -0.5056  0.7978
   97SAPS  O13B 9617   6.111   6.969   6.021  0.1224  0.2094  0.2280
   97SAPS   C11 9618   5.996   6.983   6.301 -0.0439  0.0221 -0.0161
   97SAPS  H11A 9619   5.899   6.990   6.248 -0.2818 -0.3637  0.3537
   97SAPS  H11B 9620   6.058   7.073   6.282 -2.1428  1.4901 -0.2620
   97SAPS     P 9621   5.958   7.078   6.540  0.0362 -0.1717  0.1710
   97SAPS   O13 9622   6.091   7.147   6.543  0.0820 -0.0992 -0.1437
   97SAPS   O14 9623   5.842   7.162   6.502  0.3932  0.0884 -0.2991
   97SAPS   O12 9624   5.976   6.961   6.441 -0.2929 -0.0555  0.0188
   97SAPS   O11 9625   5.923   7.023   6.679  0.1419  0.1078  0.4307
   97SAPS    C1 9626   5.951   6.888   6.716 -0.1734  0.4338 -0.1349
   97SAPS    HA 9627   5.858   6.826   6.721  0.5290 -0.5612  0.8792
   97SAPS    HB 9628   6.004   6.820   6.646 -0.8461 -3.5573  2.9361
   97SAPS    C2 9629   6.033   6.875   6.847  0.4574 -0.1700 -0.5516
   97SAPS    HS 9630   6.007   6.775   6.888  1.6278  0.8161  2.9009
   97SAPS   O21 9631   5.987   6.955   6.951  0.2632 -0.0980 -0.6518
   97SAPS   C21 9632   5.859   6.964   6.987 -0.3531  0.6319 -0.2684
   97SAPS   O22 9633   5.766   6.895   6.948 -0.0135  0.0037 -0.1136
   97SAPS   C22 9634   5.849   7.070   7.099 -0.6656  0.4322 -0.0276
   97SAPS   H2R 9635   5.949   7.093   7.141 -0.1351 -2.9154  0.8664
   97SAPS   H2S 9636   5.795   7.160   7.065 -0.2065  1.5578  2.0310
   97SAPS    C3 9637   6.181   6.900   6.817  0.0136 -0.4747  0.0537
   97SAPS    HX 9638   6.202   6.997   6.766  0.8060 -0.1050  1.0486
   97SAPS    HY 9639   6.205   6.821   6.743  0.0866 -2.4907  2.1054
   97SAPS   O31 9640   6.264   6.892   6.927 -0.5764 -0.2468 -0.4754
   97SAPS   C31 9641   6.289   7.001   6.992  0.1482 -0.1453  0.1884
   97SAPS   O32 9642   6.260   7.112   6.954  0.0502 -0.0640  0.3573
   97SAPS   C32 9643   6.336   6.952   7.133 -0.5548  0.0106  0.0149
   97SAPS   H2X 9644   6.414   7.021   7.171 -0.2557 -0.2991 -0.0334
   97SAPS   H2Y 9645   6.372   6.848   7.120 -0.3681  0.2337 -1.4808
   97SAPS   C23 9646   5.761   7.000   7.211 -0.3598  0.0979  0.7811
   97SAPS   H3R 9647   5.816   6.912   7.251 -3.9683 -2.0921  1.3400
   97SAPS   H3S 9648   5.662   6.975   7.166 -0.1488  1.5474 -0.5747
   97SAPS   C24 9649   5.726   7.085   7.331  0.7949 -0.2740 -0.1934
   97SAPS   H4R 9650   5.653   7.031   7.395 -0.4001  1.1965 -0.2599
   97SAPS   H4S 9651   5.676   7.177   7.294  1.5349 -0.1135 -0.8257
   97SAPS   C25 9652   5.842   7.151   7.399 -0.0445  0.5777  0.4754
   97SAPS   H5R 9653   5.915   7.199   7.332  1.0956 -0.7697  0.7258
   97SAPS   C26 9654   5.871   7.152   7.532 -0.2536 -0.0733 -0.6620
   97SAPS   H6R 9655   5.954   7.210   7.575 -1.0080 -0.9740  2.2347
   97SAPS   C27 9656   5.775   7.083   7.628  0.0020  0.2243 -0.8057
   97SAPS   H7R 9657   5.832   7.021   7.702 -0.2037  0.6207 -0.3102
   97SAPS   H7S 9658   5.705   7.004   7.592  2.4359 -3.2036  1.2795
   97SAPS   C28 9659   5.691   7.191   7.704 -0.1955 -0.3105 -0.1020
   97SAPS   H8R 9660   5.671   7.282   7.645  1.3655 -0.4683 -0.9387
   97SAPS   C29 9661   5.635   7.188   7.822  0.4128  0.9170 -0.4991
   97SAPS   H9R 9662   5.574   7.271   7.860  0.3237  0.7091 -0.1878
   97SAPS  C210 9663   5.641   7.068   7.911 -0.5979 -0.6590 -1.0987
   97SAPS  H10R 9664   5.644   7.110   8.014 -2.9835 -2.0785 -0.3863
   97SAPS  H10S 9665   5.738   7.016   7.894  0.9235  1.9240 -0.8839
   97SAPS  C211 9666   5.527   6.963   7.905 -0.0162  0.7550 -0.0220
   97SAPS  H11R 9667   5.484   6.931   7.809  2.2337  0.6372 -1.0536
   97SAPS  C212 9668   5.470   6.906   8.011  0.2467  0.0345 -1.1581
   97SAPS  H12R 9669   5.395   6.828   7.992 -1.8266  1.8895 -0.9871
   97SAPS  C213 9670   5.507   6.929   8.156 -0.8363 -0.1562 -0.1892
   97SAPS  H13R 9671   5.421   6.919   8.226 -1.7068 -0.3988 -1.2746
   97SAPS  H13S 9672   5.537   7.035   8.169 -1.0705 -0.1469  0.3368
   97SAPS  C214 9673   5.622   6.838   8.198  0.2448  0.4598 -0.0762
   97SAPS  H14R 9674   5.693   6.801   8.122  2.2025 -0.1414  1.9534
   97SAPS  C215 9675   5.639   6.772   8.317 -0.3290 -0.4988  0.2136
   97SAPS  H15R 9676   5.732   6.714   8.333  0.1304  0.6135  1.9093
   97SAPS  C216 9677   5.554   6.794   8.442  0.5652 -0.1288  0.7384
   97SAPS  H16R 9678   5.480   6.711   8.448 -1.5341  1.6503  0.6646
   97SAPS  H16S 9679   5.488   6.882   8.424 -1.2326 -1.6075 -0.2300
   97SAPS  C217 9680   5.638   6.826   8.567 -0.0260  0.2585  0.3288
   97SAPS  H17R 9681   5.565   6.847   8.649 -0.9060  1.8728 -0.8146
   97SAPS  H17S 9682   5.698   6.917   8.549 -0.2873  0.0971 -1.5373
   97SAPS  C218 9683   5.715   6.705   8.606  0.0579 -0.0512 -0.3082
   97SAPS  H18R 9684   5.765   6.644   8.528 -0.3272  1.0083 -1.4171
   97SAPS  H18S 9685   5.645   6.641   8.663 -0.5063  0.8641  0.0484
   97SAPS  C219 9686   5.832   6.732   8.709 -0.9164  0.1836  0.1164
   97SAPS  H19R 9687   5.915   6.783   8.655 -1.0651 -0.8247 -1.1038
   97SAPS  H19S 9688   5.878   6.638   8.747 -0.3557  1.8858  4.2652
   97SAPS  C220 9689   5.778   6.802   8.831 -0.0439  0.3481  0.6222
   97SAPS  H20R 9690   5.802   6.909   8.812  2.1238 -0.1310  0.4373
   97SAPS  H20S 9691   5.823   6.769   8.927 -1.9333 -1.5711  0.9220
   97SAPS  H20T 9692   5.672   6.772   8.846 -0.0599  0.3396  0.4948
   97SAPS   C33 9693   6.215   6.947   7.233 -0.4046 -0.1620  0.4170
   97SAPS   H3X 9694   6.135   6.882   7.191 -0.0293 -0.9614  0.9007
   97SAPS   H3Y 9695   6.187   7.052   7.256 -0.8895 -0.1935 -0.0105
   97SAPS   C34 9696   6.261   6.883   7.359 -0.2541  0.3425 -0.3365
   97SAPS   H4X 9697   6.358   6.924   7.396 -0.3019  2.9382 -2.7307
   97SAPS   H4Y 9698   6.278   6.774   7.347  1.3047  0.4232  0.7251
   97SAPS   C35 9699   6.160   6.906   7.472  0.5856 -0.8118 -0.1181
   97SAPS   H5X 9700   6.057   6.877   7.442 -0.3836  1.7722  0.4482
   97SAPS   H5Y 9701   6.156   7.015   7.489  0.7576 -0.3914 -2.4884
   97SAPS   C36 9702   6.185   6.831   7.603  0.7349 -0.0384  0.5904
   97SAPS   H6X 9703   6.291   6.842   7.635  0.6126 -0.0116  0.9989
   97SAPS   H6Y 9704   6.145   6.727   7.605 -2.3181  1.0625  1.5026
   97SAPS   C37 9705   6.104   6.899   7.721 -0.2567 -0.3282  0.2417
   97SAPS   H7X 9706   5.996   6.876   7.708  0.1283 -1.4079 -1.4189
   97SAPS   H7Y 9707   6.125   7.008   7.715  1.9411 -0.6020  1.6902
   97SAPS   C38 9708   6.137   6.845   7.857 -0.3381 -0.0965  0.5649
   97SAPS   H8X 9709   6.235   6.871   7.902 -0.1769 -1.0096  0.7635
   97SAPS   H8Y 9710   6.130   6.734   7.856 -1.2583 -0.0465  0.5324
   97SAPS   C39 9711   6.028   6.879   7.958  0.8759 -0.1326 -0.2184
   97SAPS   H9X 9712   5.941   6.814   7.937 -0.5126  1.7051 -0.4445
   97SAPS   H9Y 9713   5.990   6.983   7.943  0.2799 -0.0615  1.5337
   97SAPS  C310 9714   6.078   6.852   8.100 -0.5347 -0.1578  0.2306
   97SAPS  H10X 9715   6.143   6.937   8.129  0.6133 -0.7594 -0.5498
   97SAPS  H10Y 9716   6.132   6.755   8.101  0.0639  0.1710 -0.1624
   97SAPS  C311 9717   5.964   6.851   8.199  0.4086  0.0445 -0.4735
   97SAPS  H11X 9718   5.923   6.749   8.209  0.4128  0.2893  4.4863
   97SAPS  H11Y 9719   5.884   6.925   8.174 -0.5803 -1.2135 -1.1298
   97SAPS  C312 9720   6.002   6.880   8.349  0.5891  0.2854 -0.1448
   97SAPS  H12X 9721   6.082   6.807   8.375 -0.9018 -1.3489  0.0642
   97SAPS  H12Y 9722   5.909   6.859   8.406  0.1603  1.2219 -0.4906
   97SAPS  C313 9723   6.040   7.018   8.376  0.0838 -0.3911  0.1273
   97SAPS  H13X 9724   6.090   7.073   8.294 -1.3200  2.1710  0.8471
   97SAPS  H13Y 9725   6.127   7.006   8.445 -0.4907  0.5852  1.0524
   97SAPS  C314 9726   5.921   7.095   8.437 -0.1024 -0.2257  0.4111
   97SAPS  H14X 9727   5.951   7.189   8.488 -0.6643 -1.0649  2.3980
   97SAPS  H14Y 9728   5.871   7.038   8.519  0.4328  0.2334  1.0670
   97SAPS  C315 9729   5.831   7.163   8.329 -0.3891 -0.4865 -0.1256
   97SAPS  H15X 9730   5.764   7.235   8.382  0.6024 -2.0419  3.5716
   97SAPS  H15Y 9731   5.765   7.086   8.284  0.2121 -0.6784 -0.6786
   97SAPS  C316 9732   5.906   7.236   8.218 -0.6177  0.0694 -0.6216
   97SAPS  H16X 9733   5.939   7.165   8.139 -0.3816 -0.6683  0.1267
   97SAPS  H16Y 9734   6.000   7.281   8.257  0.2021  0.1856 -2.6011
   97SAPS  C317 9735   5.811   7.346   8.163 -0.6055 -0.3547  0.1083
   97SAPS  H17X 9736   5.781   7.413   8.246  1.7205  1.1564 -0.1567
   97SAPS  H17Y 9737   5.722   7.286   8.136 -0.4420 -2.9866  4.5390
   97SAPS  C318 9738   5.883   7.422   8.048  0.5698 -0.3598 -0.2097
   97SAPS  H18X 9739   5.900   7.349   7.967  1.7532 -0.0705 -0.2325
   97SAPS  H18Y 9740   5.976   7.459   8.097 -1.6578  2.3354  2.4104
   97SAPS  H18Z 9741   5.812   7.502   8.018  0.0962  0.1330  2.0296
   98SAPS     N 9742   4.438   1.824   6.016  0.8397  0.2234  0.0001
   98SAPS   HN1 9743   4.355   1.883   6.039 -2.3590 -2.9795 -2.3272
   98SAPS   HN2 9744   4.507   1.850   6.090 -0.6811  3.6899  0.3857
   98SAPS   HN3 9745   4.474   1.845   5.921  0.9249  1.5183  0.2952
   98SAPS   C12 9746   4.404   1.679   6.030 -0.5742  0.0047  0.5378
   98SAPS  H12A 9747   4.341   1.654   5.947  0.7939  0.3604 -0.6571
   98SAPS   C13 9748   4.526   1.586   6.020 -0.7746 -0.0627 -0.3795
   98SAPS  O13A 9749   4.645   1.630   6.020  0.0614  0.4589  0.2408
   98SAPS  O13B 9750   4.510   1.457   6.022  0.1761  0.5405  0.1769
   98SAPS   C11 9751   4.327   1.650   6.168  0.2013 -0.4177 -0.0239
   98SAPS  H11A 9752   4.410   1.656   6.241  0.7936  0.5817 -0.7467
   98SAPS  H11B 9753   4.289   1.546   6.155  1.7339 -0.9420 -0.6003
   98SAPS     P 9754   4.074   1.712   6.186 -0.1513  0.1416 -0.1677
   98SAPS   O13 9755   3.985   1.828   6.200 -0.3186 -0.7662  0.0671
   98SAPS   O14 9756   4.054   1.626   6.070  0.6404 -0.0312  0.1356
   98SAPS   O12 9757   4.226   1.749   6.192 -0.1187 -0.4728  0.2236
   98SAPS   O11 9758   4.056   1.631   6.323 -0.4310 -0.0171 -0.1935
   98SAPS    C1 9759   4.112   1.688   6.445 -0.1480  0.3998 -0.0132
   98SAPS    HA 9760   4.207   1.741   6.425  0.4649 -0.2539  1.0591
   98SAPS    HB 9761   4.049   1.767   6.492 -0.6800 -0.6533  1.1099
   98SAPS    C2 9762   4.151   1.581   6.551  0.3905 -0.2036 -0.7901
   98SAPS    HS 9763   4.235   1.525   6.505  1.2347  1.6674 -1.6373
   98SAPS   O21 9764   4.035   1.497   6.588  0.4156  0.0647  0.0815
   98SAPS   C21 9765   4.063   1.376   6.627 -0.4687  0.2595  0.0937
   98SAPS   O22 9766   4.173   1.323   6.630 -0.3228 -0.0042 -0.0143
   98SAPS   C22 9767   3.937   1.293   6.668 -0.0437 -0.1935  0.5939
   98SAPS   H2R 9768   3.852   1.363   6.682 -0.9402 -1.4079  1.4435
   98SAPS   H2S 9769   3.904   1.231   6.582 -0.2180  1.6379 -0.7146
   98SAPS    C3 9770   4.217   1.654   6.680  0.6414 -0.4241 -0.2235
   98SAPS    HX 9771   4.129   1.712   6.716  0.9362  0.0184 -0.2178
   98SAPS    HY 9772   4.297   1.721   6.644  0.1379  0.4714  0.2891
   98SAPS   O31 9773   4.262   1.568   6.788 -0.1707 -0.8555 -0.0810
   98SAPS   C31 9774   4.383   1.525   6.779 -0.0057  0.5767  0.2377
   98SAPS   O32 9775   4.460   1.547   6.687  0.0201 -0.0654  0.4938
   98SAPS   C32 9776   4.414   1.467   6.920 -0.0103  0.5027 -0.5020
   98SAPS   H2X 9777   4.503   1.400   6.920  0.4051  1.0416  0.8121
   98SAPS   H2Y 9778   4.332   1.397   6.948 -0.7890  1.2974 -0.7517
   98SAPS   C23 9779   3.956   1.209   6.791 -0.1595  0.4841 -0.5289
   98SAPS   H3R 9780   4.010   1.114   6.770 -0.3934 -0.2194  1.8149
   98SAPS   H3S 9781   3.854   1.177   6.820 -0.0115  1.3929  1.1466
   98SAPS   C24 9782   4.034   1.280   6.909 -0.1739  0.6713  0.7584
   98SAPS   H4R 9783   4.134   1.303   6.866  0.9671 -0.3978  2.6929
   98SAPS   H4S 9784   4.046   1.206   6.992 -0.4971 -0.4774 -0.1844
   98SAPS   C25 9785   3.969   1.404   6.952 -0.6922 -0.4016 -0.2438
   98SAPS   H5R 9786   3.978   1.484   6.877 -0.4115 -1.7953 -1.7527
   98SAPS   C26 9787   3.908   1.423   7.070 -0.3332 -0.1737  0.5513
   98SAPS   H6R 9788   3.857   1.519   7.087  0.1325  0.0893  0.4757
   98SAPS   C27 9789   3.905   1.321   7.176  0.2318 -0.0148  0.2307
   98SAPS   H7R 9790   3.990   1.344   7.244  1.7081  0.5184 -1.7022
   98SAPS   H7S 9791   3.920   1.215   7.145  0.8386  0.0536  0.2727
   98SAPS   C28 9792   3.770   1.319   7.252  0.1533 -0.7153 -0.0104
   98SAPS   H8R 9793   3.695   1.247   7.216 -1.1339  0.9257 -0.7100
   98SAPS   C29 9794   3.730   1.389   7.356 -0.5292  0.0280 -0.8739
   98SAPS   H9R 9795   3.630   1.365   7.396 -0.2806  0.9813  0.3689
   98SAPS  C210 9796   3.820   1.483   7.431  0.5248 -0.0987 -0.2256
   98SAPS  H10R 9797   3.759   1.572   7.458  2.4807  1.5717 -1.0562
   98SAPS  H10S 9798   3.897   1.528   7.365 -0.1614  1.8982  0.2734
   98SAPS  C211 9799   3.878   1.417   7.557  0.5192 -1.0283 -0.5590
   98SAPS  H11R 9800   3.921   1.317   7.544 -1.0950 -1.8188 -0.1258
   98SAPS  C212 9801   3.866   1.465   7.679  0.4297 -0.4382 -0.7726
   98SAPS  H12R 9802   3.912   1.405   7.759 -1.2426 -1.3723 -0.4506
   98SAPS  C213 9803   3.796   1.592   7.729  1.0083  0.3612 -0.0183
   98SAPS  H13R 9804   3.729   1.561   7.812  1.2576  2.5659  1.0964
   98SAPS  H13S 9805   3.728   1.632   7.650  2.4700  2.8996 -0.1204
   98SAPS  C214 9806   3.895   1.693   7.772  0.5681 -0.0159  0.5300
   98SAPS  H14R 9807   3.960   1.726   7.690  1.7391 -1.0586  1.0095
   98SAPS  C215 9808   3.922   1.734   7.900 -0.5578  0.0623 -0.0185
   98SAPS  H15R 9809   3.998   1.813   7.913  1.4579 -2.0055  1.4105
   98SAPS  C216 9810   3.846   1.684   8.019 -0.4428 -0.0788 -0.5984
   98SAPS  H16R 9811   3.870   1.582   8.056 -1.2612 -0.1465 -0.2364
   98SAPS  H16S 9812   3.742   1.671   7.983 -0.7807 -0.8956  0.6228
   98SAPS  C217 9813   3.845   1.790   8.131  0.3151 -0.5251 -0.3647
   98SAPS  H17R 9814   3.837   1.896   8.099 -1.7348 -0.5472 -0.0374
   98SAPS  H17S 9815   3.946   1.772   8.174  0.2964 -0.9811 -0.5098
   98SAPS  C218 9816   3.751   1.750   8.248  0.0569  0.1073  0.3334
   98SAPS  H18R 9817   3.784   1.654   8.295 -2.4500 -1.3472 -0.6706
   98SAPS  H18S 9818   3.646   1.732   8.215  0.5477 -0.4656 -1.0446
   98SAPS  C219 9819   3.763   1.858   8.357  0.1591 -0.5128  0.1759
   98SAPS  H19R 9820   3.756   1.956   8.303  2.1388 -0.7580 -0.6444
   98SAPS  H19S 9821   3.862   1.860   8.407 -0.4861 -0.0340  1.4784
   98SAPS  C220 9822   3.661   1.840   8.472 -0.1078 -0.9297 -0.0342
   98SAPS  H20R 9823   3.624   1.937   8.512 -0.2488 -1.0645  0.1609
   98SAPS  H20S 9824   3.700   1.779   8.556 -0.8605 -0.1151  0.9287
   98SAPS  H20T 9825   3.570   1.789   8.436  0.6628 -0.9990 -2.0497
   98SAPS   C33 9826   4.410   1.569   7.036 -0.4446  0.3767  0.6383
   98SAPS   H3X 9827   4.348   1.654   7.000  0.1705  0.3584 -0.5126
   98SAPS   H3Y 9828   4.503   1.621   7.064  0.3850 -0.4778 -0.4312
   98SAPS   C34 9829   4.358   1.502   7.170 -0.1978  0.1699  0.5464
   98SAPS   H4X 9830   4.441   1.443   7.213 -0.3554  0.1307  0.7933
   98SAPS   H4Y 9831   4.267   1.441   7.151 -1.4800  2.1633 -0.1113
   98SAPS   C35 9832   4.316   1.604   7.282  0.2454  0.2981  0.7143
   98SAPS   H5X 9833   4.208   1.628   7.271  0.3130  0.7339  1.0019
   98SAPS   H5Y 9834   4.370   1.699   7.264  0.0480  0.1833 -0.5740
   98SAPS   C36 9835   4.325   1.561   7.428  0.0875 -0.1448  0.5057
   98SAPS   H6X 9836   4.314   1.658   7.482 -0.9157 -1.3486  2.6113
   98SAPS   H6Y 9837   4.433   1.543   7.447  0.5042  0.4838 -1.1540
   98SAPS   C37 9838   4.245   1.439   7.473  0.0855 -0.5632 -0.3523
   98SAPS   H7X 9839   4.262   1.357   7.401 -0.2871 -0.9326 -0.0255
   98SAPS   H7Y 9840   4.137   1.465   7.466  0.8825  3.8676  0.9218
   98SAPS   C38 9841   4.269   1.392   7.622 -0.1148  0.1095  0.2558
   98SAPS   H8X 9842   4.375   1.361   7.623  0.6255  2.4460  1.4131
   98SAPS   H8Y 9843   4.203   1.310   7.657 -1.7186  0.3929 -1.8663
   98SAPS   C39 9844   4.248   1.514   7.712 -0.1282  0.1595 -0.0001
   98SAPS   H9X 9845   4.150   1.561   7.688  0.0417  1.9974  2.4640
   98SAPS   H9Y 9846   4.328   1.587   7.689 -0.2195  0.6024  1.0241
   98SAPS  C310 9847   4.251   1.483   7.863  0.0453  0.5940 -0.0244
   98SAPS  H10X 9848   4.325   1.404   7.886  1.0151  1.5212  0.0772
   98SAPS  H10Y 9849   4.151   1.441   7.890  0.4953  0.8744  2.3357
   98SAPS  C311 9850   4.281   1.609   7.945 -0.1463 -0.0837  0.3655
   98SAPS  H11X 9851   4.225   1.696   7.903 -1.4769  0.2519  2.6246
   98SAPS  H11Y 9852   4.387   1.638   7.931 -0.4283  2.0767  2.1153
   98SAPS  C312 9853   4.241   1.607   8.093  0.2021  0.3211 -0.5504
   98SAPS  H12X 9854   4.291   1.525   8.151  0.3115 -0.2313 -1.3989
   98SAPS  H12Y 9855   4.133   1.584   8.097  0.0603  1.1227  2.4860
   98SAPS  C313 9856   4.285   1.732   8.172  0.0883  0.2605 -0.2156
   98SAPS  H13X 9857   4.230   1.819   8.130 -2.9338 -0.4023  2.0543
   98SAPS  H13Y 9858   4.394   1.740   8.152  0.4686  0.4106  1.7002
   98SAPS  C314 9859   4.262   1.722   8.327  0.0072 -0.7148  0.3459
   98SAPS  H14X 9860   4.158   1.721   8.366 -0.2251  0.4235 -0.2149
   98SAPS  H14Y 9861   4.304   1.820   8.359  1.5639 -1.0690 -0.4898
   98SAPS  C315 9862   4.327   1.608   8.395  0.4250  0.2152  0.1497
   98SAPS  H15X 9863   4.431   1.595   8.357  0.2239  0.8610 -0.6513
   98SAPS  H15Y 9864   4.268   1.516   8.376  0.3705 -0.6160  3.6120
   98SAPS  C316 9865   4.348   1.633   8.546  0.0971 -0.8228 -0.0171
   98SAPS  H16X 9866   4.251   1.663   8.589  0.9780  2.4915 -0.0315
   98SAPS  H16Y 9867   4.421   1.717   8.552 -0.9260  0.5194 -3.5408
   98SAPS  C317 9868   4.392   1.513   8.619 -1.0728 -0.1800  0.0977
   98SAPS  H17X 9869   4.489   1.479   8.577 -1.1963  0.4730 -0.7591
   98SAPS  H17Y 9870   4.316   1.433   8.605 -3.2008  2.0061 -1.8126
   98SAPS  C318 9871   4.413   1.542   8.767  0.0078  0.0379 -0.1776
   98SAPS  H18X 9872   4.469   1.633   8.797  0.6734 -0.6616  0.7629
   98SAPS  H18Y 9873   4.463   1.452   8.810  1.9387 -0.2629 -2.7863
   98SAPS  H18Z 9874   4.315   1.551   8.818  0.0473 -0.0574 -0.0833
   99SAPS     N 9875   4.547   5.334   6.441  0.2669 -0.1262 -0.2924
   99SAPS   HN1 9876   4.451   5.331   6.480 -0.4115  0.9617 -1.7763
   99SAPS   HN2 9877   4.602   5.258   6.486 -0.3880 -0.1636  0.4622
   99SAPS   HN3 9878   4.588   5.424   6.471  0.5507 -1.0048  2.1438
   99SAPS   C12 9879   4.546   5.321   6.283  0.2258 -1.1672 -0.4281
   99SAPS  H12A 9880   4.646   5.351   6.255 -0.5926  2.4779  0.0605
   99SAPS   C13 9881   4.507   5.189   6.215  0.1571 -0.1653 -0.0994
   99SAPS  O13A 9882   4.442   5.106   6.289 -0.5393 -0.1471  0.5183
   99SAPS  O13B 9883   4.519   5.177   6.092 -0.2503 -0.5193  0.3111
   99SAPS   C11 9884   4.463   5.435   6.223 -0.1760  0.0820 -0.6214
   99SAPS  H11A 9885   4.359   5.410   6.250  0.1066 -1.6458 -1.0092
   99SAPS  H11B 9886   4.472   5.442   6.113  3.0885 -0.7682 -0.5193
   99SAPS     P 9887   4.418   5.692   6.225 -0.1563 -0.1504 -0.2441
   99SAPS   O13 9888   4.519   5.763   6.145 -0.7705  0.5748  0.2880
   99SAPS   O14 9889   4.292   5.659   6.154  0.2007  0.3977  0.1234
   99SAPS   O12 9890   4.493   5.562   6.291 -0.4648  0.6365 -0.1630
   99SAPS   O11 9891   4.369   5.772   6.357  0.2209 -0.9077  0.0046
   99SAPS    C1 9892   4.471   5.848   6.434 -0.0941 -0.0982 -0.4820
   99SAPS    HA 9893   4.537   5.898   6.360  0.1565  0.5550  0.1745
   99SAPS    HB 9894   4.410   5.930   6.478  0.6578  0.9894 -1.4046
   99SAPS    C2 9895   4.548   5.764   6.545  0.7717  0.0000  0.1543
   99SAPS    HS 9896   4.583   5.673   6.493  0.1540 -0.6411  0.8318
   99SAPS   O21 9897   4.450   5.734   6.649  0.1551 -0.2444 -0.0507
   99SAPS   C21 9898   4.459   5.610   6.696 -0.4953  0.4384  0.6743
   99SAPS   O22 9899   4.549   5.531   6.668 -0.2074  0.6850  0.2086
   99SAPS   C22 9900   4.331   5.598   6.792  0.6225 -0.4643  0.0900
   99SAPS   H2R 9901   4.267   5.687   6.777  0.6971 -0.8301 -3.3579
   99SAPS   H2S 9902   4.279   5.506   6.754 -2.4936 -0.0902  2.9733
   99SAPS    C3 9903   4.673   5.831   6.602  0.3793 -0.2618  0.0776
   99SAPS    HX 9904   4.658   5.930   6.650  0.3542 -0.4914  0.5482
   99SAPS    HY 9905   4.732   5.850   6.510  0.2396 -1.4722 -0.2755
   99SAPS   O31 9906   4.737   5.736   6.694 -0.5661  0.5255 -0.0511
   99SAPS   C31 9907   4.821   5.645   6.654  0.2120 -0.3993  0.3664
   99SAPS   O32 9908   4.866   5.630   6.538  0.3526  0.7471 -0.5077
   99SAPS   C32 9909   4.846   5.556   6.774  0.0106  0.0213 -0.6445
   99SAPS   H2X 9910   4.826   5.452   6.742 -2.3026 -0.3356  1.6296
   99SAPS   H2Y 9911   4.758   5.566   6.841  0.4725  0.3238 -0.0683
   99SAPS   C23 9912   4.363   5.587   6.942 -0.2752  0.7042  0.9993
   99SAPS   H3R 9913   4.432   5.671   6.967  3.5763 -1.5720 -1.1442
   99SAPS   H3S 9914   4.427   5.499   6.961 -0.2856 -0.0938 -2.1438
   99SAPS   C24 9915   4.231   5.594   7.016  0.0999 -0.1841  0.8572
   99SAPS   H4R 9916   4.159   5.522   6.970  1.0826 -0.9910  0.5352
   99SAPS   H4S 9917   4.200   5.700   7.006 -0.2038 -0.3948 -0.7924
   99SAPS   C25 9918   4.264   5.559   7.160  0.0899 -0.1427  0.5364
   99SAPS   H5R 9919   4.327   5.469   7.165  0.2928 -0.0759 -0.5150
   99SAPS   C26 9920   4.227   5.621   7.271  0.0644 -0.8659  0.7585
   99SAPS   H6R 9921   4.271   5.588   7.367 -0.1234 -0.8786  0.8397
   99SAPS   C27 9922   4.145   5.745   7.280 -0.1046 -0.5949  0.8629
   99SAPS   H7R 9923   4.110   5.751   7.385 -0.0548 -1.1445  0.9121
   99SAPS   H7S 9924   4.052   5.743   7.219 -0.0232  2.2039  0.5199
   99SAPS   C28 9925   4.216   5.867   7.232 -0.1217 -0.8038  0.1497
   99SAPS   H8R 9926   4.302   5.844   7.167 -0.0360  1.3207 -0.5402
   99SAPS   C29 9927   4.198   5.999   7.265 -0.4139 -0.4855  0.6101
   99SAPS   H9R 9928   4.268   6.070   7.218 -2.4681  2.1581  1.2721
   99SAPS  C210 9929   4.087   6.055   7.354 -0.3126 -0.1012  0.2841
   99SAPS  H10R 9930   4.017   5.973   7.380  0.2544 -0.5035  0.5709
   99SAPS  H10S 9931   4.021   6.121   7.294 -0.2266 -0.9620 -0.7805
   99SAPS  C211 9932   4.146   6.114   7.482 -0.3263  0.4138  0.3477
   99SAPS  H11R 9933   4.253   6.133   7.492  0.2585 -2.7325  1.0387
   99SAPS  C212 9934   4.074   6.151   7.586  0.1775 -0.4983 -0.6495
   99SAPS  H12R 9935   4.117   6.211   7.667 -1.8045  0.3446 -0.1632
   99SAPS  C213 9936   3.924   6.126   7.602 -0.1043  0.8115 -0.4094
   99SAPS  H13R 9937   3.904   6.019   7.627  0.2836  0.7917 -0.1722
   99SAPS  H13S 9938   3.875   6.145   7.504  0.8722 -0.9340 -1.2984
   99SAPS  C214 9939   3.855   6.208   7.706 -0.8469  0.6620  0.2881
   99SAPS  H14R 9940   3.847   6.315   7.682  1.4770  0.9179  0.3731
   99SAPS  C215 9941   3.838   6.171   7.837  0.1598 -0.1313 -0.1462
   99SAPS  H15R 9942   3.791   6.244   7.904  2.6472  2.6139 -1.1622
   99SAPS  C216 9943   3.870   6.035   7.900 -0.0905 -0.3086  0.0815
   99SAPS  H16R 9944   3.938   5.979   7.833  3.8568 -0.3329  3.6569
   99SAPS  H16S 9945   3.783   5.972   7.926  0.5416 -0.8650  0.8898
   99SAPS  C217 9946   3.950   6.055   8.029  0.1700  0.2454 -1.0008
   99SAPS  H17R 9947   3.879   6.111   8.094  0.5021  1.6690 -1.8093
   99SAPS  H17S 9948   4.040   6.120   8.020  0.4656 -0.0603 -0.2973
   99SAPS  C218 9949   4.012   5.934   8.101  0.4756 -0.2869 -0.4301
   99SAPS  H18R 9950   4.060   5.983   8.189  4.8741 -2.1235 -1.5185
   99SAPS  H18S 9951   4.100   5.885   8.054  0.4517 -0.3816 -0.3758
   99SAPS  C219 9952   3.922   5.825   8.145  0.2797 -0.0966 -0.0887
   99SAPS  H19R 9953   3.865   5.792   8.055  0.7190  2.0197 -1.2244
   99SAPS  H19S 9954   3.850   5.861   8.222 -0.0855 -1.2198  0.1130
   99SAPS  C220 9955   3.996   5.705   8.207  0.1925  0.3634  0.2601
   99SAPS  H20R 9956   4.093   5.683   8.159  0.3133  0.9265  0.2319
   99SAPS  H20S 9957   3.929   5.620   8.182  0.7454  0.4960 -1.9054
   99SAPS  H20T 9958   4.000   5.718   8.317 -1.7480  0.2321  0.3853
   99SAPS   C33 9959   4.978   5.594   6.850  0.6606 -0.0764  1.0047
   99SAPS   H3X 9960   4.955   5.676   6.921 -0.1958 -0.1509  0.8218
   99SAPS   H3Y 9961   5.055   5.622   6.775 -0.2642 -0.2955 -0.0437
   99SAPS   C34 9962   5.032   5.470   6.928  0.1185 -0.1184  0.0060
   99SAPS   H4X 9963   5.111   5.500   7.001 -0.7784  0.6429  0.6947
   99SAPS   H4Y 9964   5.083   5.393   6.866 -0.2197 -1.5799  1.4651
   99SAPS   C35 9965   4.915   5.416   7.012  0.0451 -0.1256  0.3601
   99SAPS   H5X 9966   4.846   5.363   6.943  0.1322  0.5502 -0.2625
   99SAPS   H5Y 9967   4.864   5.509   7.046  1.4526 -0.1391  2.6551
   99SAPS   C36 9968   4.956   5.333   7.132 -0.0061  0.3920 -0.0238
   99SAPS   H6X 9969   5.034   5.261   7.098  1.5022  1.6319  0.7016
   99SAPS   H6Y 9970   4.865   5.278   7.165 -1.6769  1.7531 -2.0656
   99SAPS   C37 9971   5.011   5.409   7.254  0.2253  0.9499  0.5817
   99SAPS   H7X 9972   4.926   5.465   7.298 -1.2701 -1.6819  1.2020
   99SAPS   H7Y 9973   5.091   5.478   7.221  0.4619  0.2166 -0.4096
   99SAPS   C38 9974   5.081   5.320   7.359 -0.5939 -0.1055  0.0466
   99SAPS   H8X 9975   5.153   5.255   7.306 -0.4208 -0.9589  1.2798
   99SAPS   H8Y 9976   5.003   5.255   7.404 -1.0212  0.5684  0.3003
   99SAPS   C39 9977   5.145   5.395   7.470 -0.4102  0.2515 -0.3710
   99SAPS   H9X 9978   5.085   5.487   7.488  0.4926  0.3689  2.3881
   99SAPS   H9Y 9979   5.246   5.428   7.437 -0.5854  1.2827  0.0846
   99SAPS  C310 9980   5.145   5.306   7.592  0.7330 -0.3059 -0.1660
   99SAPS  H10X 9981   5.195   5.207   7.585  1.9562  0.2821 -0.1170
   99SAPS  H10Y 9982   5.041   5.287   7.625  0.8226 -1.0629 -0.2957
   99SAPS  C311 9983   5.214   5.373   7.712 -0.2322 -0.4170 -0.1173
   99SAPS  H11X 9984   5.171   5.475   7.724 -2.2540 -1.3571  1.2870
   99SAPS  H11Y 9985   5.320   5.375   7.681  0.4150  2.4833  1.8871
   99SAPS  C312 9986   5.209   5.286   7.834 -0.5932  0.1978  0.1003
   99SAPS  H12X 9987   5.226   5.180   7.807  1.2532  0.5593 -0.2654
   99SAPS  H12Y 9988   5.106   5.282   7.877 -1.6247 -1.7499 -2.2710
   99SAPS  C313 9989   5.301   5.339   7.947  0.3245  0.3034  0.5864
   99SAPS  H13X 9990   5.257   5.432   7.989  0.7367  0.6571  0.2513
   99SAPS  H13Y 9991   5.395   5.370   7.896  0.2381  0.2051  0.3666
   99SAPS  C314 9992   5.313   5.235   8.046  0.2395  0.9177  0.1933
   99SAPS  H14X 9993   5.338   5.135   8.004 -1.4900  1.5106 -2.4889
   99SAPS  H14Y 9994   5.215   5.216   8.094 -0.2995 -0.2764 -1.3086
   99SAPS  C315 9995   5.414   5.277   8.156 -0.4184 -0.4289 -0.3245
   99SAPS  H15X 9996   5.376   5.373   8.195  0.1348 -0.4949  0.3932
   99SAPS  H15Y 9997   5.518   5.270   8.115  0.2744 -1.8474  1.5164
   99SAPS  C316 9998   5.421   5.186   8.282  1.1903  0.8055  0.2117
   99SAPS  H16X 9999   5.522   5.194   8.327  1.1070 -2.0133  1.0733
   99SAPS  H16Y10000   5.416   5.077   8.260 -2.4171  0.6088  1.3071
   99SAPS  C31710001   5.310   5.222   8.385  0.3859  0.3775 -0.1055
   99SAPS  H17X10002   5.214   5.183   8.344  0.0103  0.2449  0.8751
   99SAPS  H17Y10003   5.305   5.333   8.397  1.7566  0.3621  0.7504
   99SAPS  C31810004   5.317   5.157   8.523 -0.5368  0.6012 -0.2361
   99SAPS  H18X10005   5.348   5.051   8.517 -2.1293  0.0247  0.8240
   99SAPS  H18Y10006   5.218   5.159   8.575 -0.3842 -0.9335  0.1684
   99SAPS  H18Z10007   5.382   5.219   8.588 -1.4591  1.8052 -0.4294
  100SAPS     N10008   6.532   6.270   6.022 -0.6801  0.1856 -0.1685
  100SAPS   HN110009   6.508   6.224   6.112 -2.6030 -0.5364 -0.9917
  100SAPS   HN210010   6.604   6.215   5.971 -1.6040 -0.6870 -0.5653
  100SAPS   HN310011   6.576   6.361   6.043  0.1695  0.4995 -2.8947
  100SAPS   C1210012   6.409   6.276   5.936 -0.2341  0.2966  0.8469
  100SAPS  H12A10013   6.433   6.333   5.847  1.5182 -2.7196 -0.8106
  100SAPS   C1310014   6.368   6.138   5.887  0.1183  0.1729  0.3135
  100SAPS  O13A10015   6.435   6.039   5.929 -0.0278 -0.2086  0.2146
  100SAPS  O13B10016   6.280   6.122   5.804  0.3406 -0.0502  0.0713
  100SAPS   C1110017   6.288   6.346   6.007 -1.1524 -0.0111 -0.3469
  100SAPS  H11A10018   6.195   6.308   5.960 -2.4579  0.1867  1.9267
  100SAPS  H11B10019   6.281   6.452   5.976 -1.4512  0.3738  0.9409
  100SAPS     P10020   6.173   6.374   6.237 -0.2982  0.2297 -0.2743
  100SAPS   O1310021   6.124   6.496   6.177 -0.3266  0.4588  0.5040
  100SAPS   O1410022   6.066   6.267   6.252  0.4264 -0.1887 -0.4702
  100SAPS   O1210023   6.292   6.316   6.146  0.0931 -0.3514 -0.2186
  100SAPS   O1110024   6.241   6.402   6.376 -0.1302  0.4627 -0.6419
  100SAPS    C110025   6.377   6.355   6.398 -0.8377  0.9407  0.0964
  100SAPS    HA10026   6.395   6.250   6.366 -0.0180  1.1381 -0.1125
  100SAPS    HB10027   6.447   6.412   6.333  1.7179  1.6382  3.1746
  100SAPS    C210028   6.416   6.374   6.549  0.2369 -0.0975  0.2404
  100SAPS    HS10029   6.487   6.291   6.569  2.2396  0.9633 -1.9903
  100SAPS   O2110030   6.296   6.369   6.633 -0.3712 -0.5621 -0.5276
  100SAPS   C2110031   6.244   6.242   6.653  0.2263  0.7250  0.4152
  100SAPS   O2210032   6.288   6.140   6.598  0.0876 -0.3689  0.0603
  100SAPS   C2210033   6.138   6.233   6.756  0.2517 -0.6033 -0.9222
  100SAPS   H2R10034   6.064   6.161   6.716 -0.0958  0.1388 -1.6546
  100SAPS   H2S10035   6.187   6.214   6.854  1.0493  0.3248 -1.1217
  100SAPS    C310036   6.500   6.502   6.577  0.0753 -0.2581 -0.6702
  100SAPS    HX10037   6.460   6.595   6.531  0.1220 -1.1200 -2.5147
  100SAPS    HY10038   6.598   6.486   6.528 -0.1549  1.4886 -1.8010
  100SAPS   O3110039   6.530   6.517   6.714  0.1032  0.1899 -0.0436
  100SAPS   C3110040   6.437   6.578   6.785  0.7798 -1.0954  0.1203
  100SAPS   O3210041   6.328   6.619   6.738 -0.6297 -0.0594  0.3994
  100SAPS   C3210042   6.466   6.580   6.929  0.4845 -0.0898 -0.5049
  100SAPS   H2X10043   6.505   6.683   6.947  0.3926 -0.1971  0.3507
  100SAPS   H2Y10044   6.547   6.511   6.959  1.2164  2.0922  3.1938
  100SAPS   C2310045   6.059   6.363   6.783  0.2622  0.1284  0.0713
  100SAPS   H3R10046   6.032   6.414   6.688 -0.4672 -1.8137 -0.8066
  100SAPS   H3S10047   6.125   6.435   6.837  0.6945 -0.2592  0.0681
  100SAPS   C2410048   5.935   6.331   6.863 -0.6571 -0.2029  0.1143
  100SAPS   H4R10049   5.973   6.299   6.963 -0.4808  0.4591  0.2633
  100SAPS   H4S10050   5.871   6.246   6.829  1.6774 -2.3762  0.8133
  100SAPS   C2510051   5.852   6.453   6.881 -0.7079 -0.4178 -0.2421
  100SAPS   H5R10052   5.810   6.490   6.787  0.6347  0.3489 -0.5770
  100SAPS   C2610053   5.834   6.525   6.995 -0.2173 -0.5821  0.5933
  100SAPS   H6R10054   5.766   6.611   6.991  0.9947  0.3517 -2.7716
  100SAPS   C2710055   5.872   6.487   7.134  0.1367 -0.2858  0.4964
  100SAPS   H7R10056   5.902   6.381   7.140 -0.1247 -0.3147  1.4454
  100SAPS   H7S10057   5.779   6.499   7.195 -0.6252  0.6543 -0.7950
  100SAPS   C2810058   5.978   6.579   7.195  0.3190 -0.0030  0.5459
  100SAPS   H8R10059   6.041   6.632   7.121  0.5743 -0.9714  0.0463
  100SAPS   C2910060   5.999   6.595   7.328 -0.1605 -0.0802  0.0231
  100SAPS   H9R10061   6.082   6.659   7.360 -0.4801  0.4357 -0.1599
  100SAPS  C21010062   5.934   6.526   7.438 -0.0702 -0.0955 -1.2330
  100SAPS  H10R10063   6.007   6.457   7.487 -0.2116 -0.9947 -2.2565
  100SAPS  H10S10064   5.855   6.453   7.412 -0.3779 -0.7111  1.1762
  100SAPS  C21110065   5.875   6.616   7.537  0.4223 -0.2260  0.0206
  100SAPS  H11R10066   5.850   6.717   7.500  1.5258  0.6686  1.6104
  100SAPS  C21210067   5.865   6.589   7.671 -0.3548  0.6898 -0.0259
  100SAPS  H12R10068   5.811   6.660   7.735 -1.5544 -1.0615  0.9873
  100SAPS  C21310069   5.901   6.458   7.739 -0.2352 -0.4506 -0.3636
  100SAPS  H13R10070   5.967   6.494   7.821 -2.1639  0.5606  0.8283
  100SAPS  H13S10071   5.940   6.384   7.666 -0.8974 -2.5180  1.2958
  100SAPS  C21410072   5.778   6.394   7.796  0.7842 -0.2658  0.7172
  100SAPS  H14R10073   5.689   6.403   7.732  2.0384  1.6068 -0.8904
  100SAPS  C21510074   5.765   6.332   7.916 -0.4187 -0.3958  0.3185
  100SAPS  H15R10075   5.665   6.290   7.936 -1.1473  0.9634 -0.3295
  100SAPS  C21610076   5.874   6.311   8.021 -0.7104  0.6225  0.2534
  100SAPS  H16R10077   5.974   6.314   7.972 -0.4966  0.8325  0.6968
  100SAPS  H16S10078   5.876   6.209   8.066 -0.7885 -0.0972 -1.3008
  100SAPS  C21710079   5.877   6.410   8.132  0.2138  0.4696 -0.5285
  100SAPS  H17R10080   5.783   6.403   8.192  1.3895  2.1701  1.6687
  100SAPS  H17S10081   5.886   6.517   8.105 -3.8952  1.5112  1.3130
  100SAPS  C21810082   5.982   6.389   8.236 -0.1225 -0.3781 -0.6848
  100SAPS  H18R10083   6.076   6.434   8.199  0.4508 -1.1933 -0.2764
  100SAPS  H18S10084   6.001   6.280   8.246 -0.5798 -0.3600  0.5587
  100SAPS  C21910085   5.961   6.457   8.372 -0.7217 -0.9460  0.0531
  100SAPS  H19R10086   5.856   6.442   8.403 -1.2800  3.5381  0.9655
  100SAPS  H19S10087   5.982   6.565   8.359  2.4629 -1.5824 -1.0459
  100SAPS  C22010088   6.064   6.426   8.478  0.4770 -0.2914  0.5946
  100SAPS  H20R10089   6.030   6.462   8.577  2.1634 -1.1760  1.5499
  100SAPS  H20S10090   6.157   6.477   8.443 -0.6138  0.1055 -1.9913
  100SAPS  H20T10091   6.082   6.317   8.488  1.3013 -0.1239  1.0410
  100SAPS   C3310092   6.339   6.561   7.007 -0.4671 -0.4889 -0.3745
  100SAPS   H3X10093   6.296   6.464   6.972 -0.9152 -0.3015 -0.3448
  100SAPS   H3Y10094   6.274   6.643   6.971  0.0765 -0.7880 -2.1909
  100SAPS   C3410095   6.357   6.558   7.163  0.6966 -0.1841 -0.1374
  100SAPS   H4X10096   6.254   6.580   7.198  0.4703 -2.6602  0.9677
  100SAPS   H4Y10097   6.415   6.645   7.202 -1.0136  1.1864 -0.5410
  100SAPS   C3510098   6.407   6.429   7.222 -0.0758 -0.4221  0.5770
  100SAPS   H5X10099   6.461   6.366   7.148  1.2912  2.1426 -0.7317
  100SAPS   H5Y10100   6.325   6.374   7.272 -0.2237  1.1850  2.1681
  100SAPS   C3610101   6.510   6.453   7.340  0.2871 -0.6161 -0.4210
  100SAPS   H6X10102   6.587   6.525   7.305 -2.1672  0.5881 -3.9547
  100SAPS   H6Y10103   6.573   6.362   7.349  1.3056  0.2662  2.1910
  100SAPS   C3710104   6.465   6.491   7.484 -0.0187 -0.3642  0.9065
  100SAPS   H7X10105   6.403   6.582   7.469  0.3982 -0.1188  0.6639
  100SAPS   H7Y10106   6.549   6.527   7.547 -0.7354  1.5117  0.8449
  100SAPS   C3810107   6.393   6.378   7.551 -0.7546 -0.0929  0.2851
  100SAPS   H8X10108   6.452   6.286   7.531  0.2888  0.9323 -1.5697
  100SAPS   H8Y10109   6.288   6.380   7.515 -0.4717 -0.1256 -0.5658
  100SAPS   C3910110   6.385   6.392   7.707 -0.1632  0.1266  0.2419
  100SAPS   H9X10111   6.471   6.458   7.728 -0.5751  0.5506  0.6236
  100SAPS   H9Y10112   6.413   6.292   7.746 -2.2324 -0.5210  0.2233
  100SAPS  C31010113   6.254   6.429   7.770  0.1126 -0.0679  0.0903
  100SAPS  H10X10114   6.175   6.360   7.734  0.0889 -1.4777  2.6251
  100SAPS  H10Y10115   6.237   6.534   7.737  2.9709  0.4141 -0.0926
  100SAPS  C31110116   6.259   6.433   7.923  0.4623 -0.4302  0.5081
  100SAPS  H11X10117   6.285   6.331   7.959 -1.5244 -1.9409 -2.0043
  100SAPS  H11Y10118   6.155   6.442   7.960  0.5115 -0.3586  0.6285
  100SAPS  C31210119   6.361   6.524   7.990 -0.2429 -0.2942  0.2707
  100SAPS  H12X10120   6.362   6.618   7.930 -0.7766  0.8073  1.9205
  100SAPS  H12Y10121   6.463   6.481   7.983 -0.4131 -1.1040  2.0468
  100SAPS  C31310122   6.340   6.558   8.138  0.7108 -0.5104  0.2577
  100SAPS  H13X10123   6.236   6.588   8.163  0.5238 -2.4088  1.9954
  100SAPS  H13Y10124   6.404   6.647   8.157 -0.1271  0.0742  0.4252
  100SAPS  C31410125   6.378   6.452   8.245 -0.0223  0.3832 -0.2745
  100SAPS  H14X10126   6.327   6.356   8.223 -0.2623  0.4353  0.0332
  100SAPS  H14Y10127   6.337   6.480   8.345  0.9540 -1.3928  0.6868
  100SAPS  C31510128   6.537   6.436   8.254  0.4000 -0.6342  0.4711
  100SAPS  H15X10129   6.581   6.537   8.263 -2.9517  0.9794  0.4239
  100SAPS  H15Y10130   6.555   6.401   8.150 -0.2386 -0.8882  0.4349
  100SAPS  C31610131   6.587   6.346   8.353 -0.6222 -0.1845  0.1604
  100SAPS  H16X10132   6.571   6.237   8.334 -0.9634 -0.3320  1.1986
  100SAPS  H16Y10133   6.530   6.355   8.448 -3.0688 -0.4094 -1.2011
  100SAPS  C31710134   6.741   6.358   8.371  0.7828 -0.4139  0.5478
  100SAPS  H17X10135   6.766   6.462   8.402  0.0575 -0.8968  2.9051
  100SAPS  H17Y10136   6.794   6.341   8.275  0.0951  3.4245 -0.7025
  100SAPS  C31810137   6.800   6.255   8.457 -0.7001  0.6020  0.2064
  100SAPS  H18X10138   6.767   6.154   8.425  0.2374  0.9985 -2.2484
  100SAPS  H18Y10139   6.786   6.278   8.565  0.0999 -0.6268  0.5909
  100SAPS  H18Z10140   6.909   6.247   8.439 -0.6009 -2.2562  1.6012
  101OSM      N10141   5.512   0.469  10.793 -0.5619 -0.3248  0.7416
  101OSM    C1510142   5.403   0.538  10.871 -0.3295 -0.1985  0.8676
  101OSM   H15A10143   5.414   0.521  10.977  0.2395  1.0752  1.0350
  101OSM   H15B10144   5.305   0.501  10.844  0.3155 -1.1728 -0.2119
  101OSM   H15C10145   5.399   0.641  10.839  0.7024 -0.8757 -1.7616
  101OSM    C1410146   5.640   0.512  10.851 -0.3903 -0.1221 -0.7425
  101OSM   H14A10147   5.657   0.484  10.954 -0.9476  2.4091  0.1166
  101OSM   H14B10148   5.645   0.620  10.857  0.3290 -0.2157  3.1425
  101OSM   H14C10149   5.731   0.477  10.805  0.9066  0.5877  1.1516
  101OSM    C1310150   5.498   0.321  10.796  0.1292  0.2394 -0.0036
  101OSM   H13A10151   5.510   0.279  10.894  1.5608 -2.4043 -1.2035
  101OSM   H13B10152   5.582   0.281  10.742 -0.4331 -2.0704  0.7478
  101OSM   H13C10153   5.399   0.292  10.765 -0.2113 -0.3042  1.5352
  101OSM    C1210154   5.506   0.515  10.649 -0.2753 -0.8118 -0.5162
  101OSM   H12A10155   5.400   0.508  10.628 -0.7981  0.5951  1.4141
  101OSM   H12B10156   5.556   0.441  10.588  0.1930 -1.7618  0.9619
  101OSM    C1110157   5.554   0.664  10.620 -0.4468  0.1368 -0.2765
  101OSM   H11A10158   5.543   0.693  10.513  0.2579 -0.1559 -0.4307
  101OSM   H11B10159   5.663   0.666  10.640 -0.4114  0.4488 -0.4958
  101OSM      P10160   5.551   0.870  10.788 -0.1182  0.2890 -0.4393
  101OSM    O1310161   5.454   0.941  10.866 -0.1287 -0.3054  0.0466
  101OSM    O1410162   5.668   0.817  10.860 -0.4519 -0.6355 -0.1784
  101OSM    O1110163   5.604   0.956  10.663  0.3606 -0.0743 -0.2598
  101OSM    O1210164   5.484   0.754  10.709 -0.5966  0.0343  0.4069
  101OSM    C1S10165   5.520   1.020  10.564 -0.1412  0.3877  0.9040
  101OSM    H1S10166   5.435   1.063  10.622  0.4861  0.4495  1.8135
  101OSM    H1T10167   5.480   0.949  10.489  1.7504 -0.9146  1.0724
  101OSM     NF10168   5.492   1.238  10.450  0.4541 -0.0182 -0.5596
  101OSM    HNF10169   5.518   1.274  10.361  0.9541 -2.5092 -1.5121
  101OSM    C2S10170   5.583   1.150  10.521  0.6404 -0.8390  0.6932
  101OSM    H2S10171   5.609   1.198  10.618 -0.3963  0.1713  0.4857
  101OSM    C3S10172   5.713   1.106  10.445  0.5508 -0.0180 -0.1880
  101OSM    H3S10173   5.679   1.052  10.354  0.0020 -1.5740  0.8804
  101OSM     O310174   5.793   1.010  10.513  0.0350  0.3892 -0.6533
  101OSM    HO310175   5.736   0.993  10.588 -1.4169 -0.0505 -1.7946
  101OSM    C4S10176   5.801   1.219  10.399  0.1165  0.2261 -0.1022
  101OSM    H4S10177   5.819   1.221  10.291 -0.8036  2.5780 -0.2610
  101OSM    C5S10178   5.879   1.295  10.477 -0.3347 -0.1040 -0.0374
  101OSM    H5S10179   5.880   1.269  10.584  1.9957  0.3151  0.0954
  101OSM    C6S10180   5.970   1.410  10.426  0.5155 -0.1425 -0.1350
  101OSM    H6S10181   6.076   1.395  10.457  1.0707  0.1879 -1.7488
  101OSM    H6T10182   5.966   1.501  10.491  1.2424 -0.4401  0.3411
  101OSM    C7S10183   5.965   1.439  10.274  0.1806  0.0560 -0.1335
  101OSM    H7S10184   5.860   1.462  10.243 -0.8592 -3.1145  0.6919
  101OSM    H7T10185   5.987   1.346  10.219 -1.1165  0.1969 -0.9248
  101OSM    C8S10186   6.072   1.538  10.231 -0.0146  0.6224 -0.4445
  101OSM    H8S10187   6.173   1.499  10.256  0.1458  2.2462  1.7996
  101OSM    H8T10188   6.065   1.623  10.303 -0.4985 -0.9301  1.4232
  101OSM    C9S10189   6.085   1.574  10.084 -0.2534 -0.3793 -0.1138
  101OSM    H9S10190   6.173   1.640  10.063  0.4575 -1.6969 -1.4608
  101OSM    H9T10191   6.005   1.643  10.051  0.1135  1.6175  2.7680
  101OSM   C10S10192   6.085   1.448   9.991 -0.2113  0.4058  0.1202
  101OSM   H10S10193   5.982   1.410   9.978  0.3276 -1.0165 -0.1310
  101OSM   H10T10194   6.148   1.364  10.027 -0.7502 -0.3760 -0.7313
  101OSM   C11S10195   6.127   1.497   9.853 -0.3761 -0.8295 -0.1751
  101OSM   H11S10196   6.225   1.550   9.858 -1.5827  1.3925  1.6816
  101OSM   H11T10197   6.067   1.585   9.825  0.0346 -0.7055 -0.6842
  101OSM   C12S10198   6.118   1.397   9.739 -0.1832 -0.3916 -0.5296
  101OSM   H12S10199   6.013   1.364   9.754 -0.2505  0.2579  0.4951
  101OSM   H12T10200   6.181   1.306   9.755 -2.6021 -1.9429  0.7662
  101OSM   C13S10201   6.141   1.467   9.598 -0.1633  0.4954 -0.7130
  101OSM   H13S10202   6.248   1.491   9.584 -0.5825  1.7752 -1.8984
  101OSM   H13T10203   6.086   1.564   9.603 -0.8695  0.0693  2.6560
  101OSM   C14S10204   6.100   1.374   9.487  0.2070 -0.3420  0.6728
  101OSM   H14S10205   5.989   1.364   9.495  0.0128 -0.4405 -1.4898
  101OSM   H14T10206   6.140   1.272   9.508  2.8454  0.3955 -0.3984
  101OSM   C15S10207   6.147   1.429   9.349  0.6674 -0.3677  0.5946
  101OSM   H15S10208   6.249   1.467   9.371  1.2858 -1.9513  0.6560
  101OSM   H15T10209   6.073   1.505   9.315 -0.0007 -0.7690  1.1130
  101OSM   C16S10210   6.174   1.316   9.249  0.1550  0.2548  0.2334
  101OSM   H16S10211   6.079   1.281   9.204 -1.4177  1.3239  2.5277
  101OSM   H16T10212   6.219   1.225   9.293 -2.2053 -0.7087  0.8155
  101OSM   C17S10213   6.251   1.362   9.123 -0.8992 -0.5916 -0.4716
  101OSM   H17S10214   6.352   1.404   9.145 -0.1004 -2.0455 -1.2123
  101OSM   H17T10215   6.196   1.446   9.074 -1.4745 -1.4629 -1.3640
  101OSM   C18S10216   6.263   1.263   9.010 -0.1921  0.8122  0.0289
  101OSM   H18S10217   6.273   1.317   8.913 -0.7408 -1.7371 -1.5527
  101OSM   H18T10218   6.164   1.215   8.995 -1.9005  4.2464 -0.5689
  101OSM   H18U10219   6.353   1.203   9.034 -1.0312  0.4045  2.4323
  101OSM    C1F10220   5.381   1.290  10.508  0.5995  0.0973  0.4914
  101OSM     OF10221   5.363   1.291  10.632 -0.5834  0.1476 -0.1769
  101OSM    C2F10222   5.283   1.335  10.404  0.2827 -0.3672  0.4686
  101OSM    H2F10223   5.229   1.247  10.363  1.8558 -0.0075 -2.6371
  101OSM    H2G10224   5.341   1.362  10.314  1.1832 -0.9850  0.8480
  101OSM    C3F10225   5.200   1.450  10.461  0.4365  0.5626  0.4220
  101OSM    H3F10226   5.262   1.537  10.490  0.4698  1.6504 -2.5170
  101OSM    H3G10227   5.146   1.415  10.552  0.7617  2.7932  1.5499
  101OSM    C4F10228   5.085   1.507  10.374  0.2285 -0.9377 -0.4701
  101OSM    H4F10229   5.131   1.580  10.304 -0.0776  1.7972  1.9978
  101OSM    H4G10230   5.028   1.565  10.449 -0.9123 -0.6857 -1.4968
  101OSM    C5F10231   4.985   1.411  10.310  0.4884 -0.4457 -0.1018
  101OSM    H5F10232   4.952   1.331  10.381  1.7863 -1.1285 -0.2510
  101OSM    H5G10233   5.032   1.353  10.229 -1.3504 -1.2111 -0.6861
  101OSM    C6F10234   4.861   1.487  10.245 -0.3996  0.5541 -0.0375
  101OSM    H6F10235   4.903   1.556  10.169  3.4087 -0.7077  0.6818
  101OSM    H6G10236   4.813   1.550  10.322  0.0963 -1.6657  2.2243
  101OSM    C7F10237   4.773   1.381  10.179 -0.1854  0.4699 -0.0413
  101OSM    H7F10238   4.744   1.301  10.252 -0.6483  0.8224  0.1660
  101OSM    H7G10239   4.832   1.334  10.098 -0.8239  0.6374 -0.6127
  101OSM    C8F10240   4.638   1.432  10.118 -0.5775  0.6598  0.2532
  101OSM    H8F10241   4.666   1.475  10.019  0.1857 -0.7261 -0.1717
  101OSM    H8G10242   4.589   1.504  10.186 -2.5922  0.5854 -1.0433
  101OSM    C9F10243   4.546   1.317  10.091  0.4227  1.7312  0.5218
  101OSM    H9F10244   4.536   1.247  10.175 -0.2599  1.6498  0.3817
  101OSM   C10F10245   4.464   1.300   9.990  0.8227  0.5073  0.7024
  101OSM   H10F10246   4.407   1.206   9.987  0.2157  0.6148  4.4519
  101OSM   C11F10247   4.438   1.386   9.870  0.0909 -0.5317 -0.3171
  101OSM   H11F10248   4.487   1.486   9.867 -1.1292  0.1034  0.3995
  101OSM   H11G10249   4.327   1.393   9.869  0.0637 -0.8690 -1.2290
  101OSM   C12F10250   4.471   1.311   9.740  0.5355  0.3219  0.1316
  101OSM   H12F10251   4.410   1.219   9.732  1.5441 -0.4801  1.2373
  101OSM   H12G10252   4.572   1.263   9.744  0.3507 -0.0568  0.3240
  101OSM   C13F10253   4.461   1.396   9.613 -0.2161  0.5406  0.1591
  101OSM   H13F10254   4.510   1.495   9.627 -1.4776  1.2178 -0.0756
  101OSM   H13G10255   4.352   1.417   9.602 -0.5754 -1.7736 -1.2233
  101OSM   C14F10256   4.516   1.337   9.484  0.8415  0.0894  0.8322
  101OSM   H14F10257   4.479   1.233   9.470  0.4850  0.2613  0.4515
  101OSM   H14G10258   4.627   1.332   9.477  0.8631  1.2100  0.1704
  101OSM   C15F10259   4.469   1.416   9.365 -0.1813 -0.3179 -0.0143
  101OSM   H15F10260   4.365   1.442   9.395 -0.1932 -1.4678  1.0326
  101OSM   H15G10261   4.463   1.344   9.281 -0.4051  1.0993 -1.2689
  101OSM   C16F10262   4.563   1.536   9.324  0.0362  0.2549 -0.4829
  101OSM   H16F10263   4.663   1.491   9.303 -0.0059  0.4266 -1.0713
  101OSM   H16G10264   4.564   1.602   9.414  1.3885 -0.5623  0.1321
  101OSM   C17F10265   4.518   1.608   9.197  0.0112 -0.3176  0.0999
  101OSM   H17F10266   4.413   1.642   9.213  0.0792 -0.2683  0.4569
  101OSM   H17G10267   4.513   1.551   9.102  1.4442  2.0504 -1.4957
  101OSM   C18F10268   4.608   1.735   9.176  0.0106 -0.3366 -0.0989
  101OSM   H18F10269   4.585   1.810   9.255 -3.8739 -0.3953 -0.9689
  101OSM   H18G10270   4.565   1.789   9.089  0.7227  1.5670  0.6936
  101OSM   H18H10271   4.713   1.701   9.166 -0.9640 -2.8951 -4.4488
  102OSM      N10272   6.735   0.340  10.726 -0.1124  0.4566  0.2305
  102OSM    C1510273   6.843   0.307  10.623  0.0295 -0.0344  0.2856
  102OSM   H15A10274   6.868   0.202  10.622  0.9051  0.1476  1.2634
  102OSM   H15B10275   6.929   0.361  10.661 -0.9549  0.6931  1.5225
  102OSM   H15C10276   6.823   0.341  10.522  2.1769  0.7093  0.0434
  102OSM    C1410277   6.767   0.274  10.859  0.3775 -0.0246  0.7741
  102OSM   H14A10278   6.866   0.301  10.892  0.0160  0.5761  1.3879
  102OSM   H14B10279   6.760   0.166  10.854  1.6174 -0.1604  1.5079
  102OSM   H14C10280   6.697   0.315  10.930  0.9836  3.2065 -0.3179
  102OSM    C1310281   6.734   0.484  10.757 -0.4156 -0.0889 -0.6784
  102OSM   H13A10282   6.831   0.525  10.780  1.4199 -4.2822 -0.0533
  102OSM   H13B10283   6.668   0.506  10.839  0.4839 -0.0239  0.0433
  102OSM   H13C10284   6.698   0.534  10.668  1.4842 -0.5822 -1.7856
  102OSM    C1210285   6.604   0.288  10.668 -0.0186  0.1143  0.3116
  102OSM   H12A10286   6.602   0.324  10.566 -0.7167 -0.2743  0.1833
  102OSM   H12B10287   6.517   0.317  10.725 -0.0380 -0.5124  0.6158
  102OSM    C1110288   6.597   0.137  10.658 -0.1604  0.0854  0.4278
  102OSM   H11A10289   6.697   0.091  10.641 -0.0726  0.2516  0.4956
  102OSM   H11B10290   6.541   0.096  10.571  0.5094 -1.3188  0.6332
  102OSM      P10291   6.390   0.097  10.798 -0.2207  0.0724 -0.0482
  102OSM    O1310292   6.346  -0.006  10.892  0.3575  0.4675  0.3146
  102OSM    O1410293   6.365   0.240  10.843  0.4304  0.1480  0.1829
  102OSM    O1110294   6.318   0.076  10.662  0.0427 -0.1641  0.0289
  102OSM    O1210295   6.546   0.079  10.780  0.2929 -0.1801  0.1941
  102OSM    C1S10296   6.283   0.184  10.571 -0.2253  0.2205 -0.4353
  102OSM    H1S10297   6.357   0.267  10.577  1.9623 -1.6955  0.7289
  102OSM    H1T10298   6.178   0.214  10.591 -0.2920 -0.3208  0.0452
  102OSM     NF10299   6.295   0.240  10.318  0.2160  0.1198  0.0794
  102OSM    HNF10300   6.215   0.275  10.269 -0.4054  0.4968  1.3322
  102OSM    C2S10301   6.277   0.133  10.420  0.7377 -0.3674  0.3254
  102OSM    H2S10302   6.363   0.062  10.417 -0.5523 -2.1666  2.8785
  102OSM    C3S10303   6.147   0.050  10.402  0.5716  0.5109 -0.6794
  102OSM    H3S10304   6.064   0.120  10.380  0.5150  0.2580 -1.2960
  102OSM     O310305   6.118  -0.023  10.520  0.6458  0.3303 -0.0856
  102OSM    HO310306   6.161   0.029  10.588 -0.5579  0.2437  0.7806
  102OSM    C4S10307   6.161  -0.041  10.289  0.1214 -0.3427  0.4708
  102OSM    H4S10308   6.232  -0.124  10.304 -0.0427 -0.0988  3.1393
  102OSM    C5S10309   6.096  -0.014  10.176 -0.2540 -0.4351 -0.6671
  102OSM    H5S10310   6.030   0.073  10.184 -0.7678 -0.9568  1.2978
  102OSM    C6S10311   6.106  -0.089  10.045 -0.6422 -0.4215  0.6966
  102OSM    H6S10312   6.005  -0.098  10.000 -0.2948 -1.4742  0.0714
  102OSM    H6T10313   6.147  -0.191  10.065 -2.3849 -1.8784 -2.4171
  102OSM    C7S10314   6.192  -0.010   9.942 -0.2186 -0.8666 -0.2540
  102OSM    H7S10315   6.291   0.017   9.984 -1.8371  1.5261  2.3434
  102OSM    H7T10316   6.145   0.090   9.929  0.4081 -0.5201  0.0621
  102OSM    C8S10317   6.198  -0.069   9.805  0.2133  0.4189 -0.3738
  102OSM    H8S10318   6.213  -0.177   9.822  0.6372  0.4607 -0.4763
  102OSM    H8T10319   6.284  -0.025   9.750 -1.4480  0.2229 -3.2966
  102OSM    C9S10320   6.073  -0.063   9.718  0.2031  0.2527 -0.6955
  102OSM    H9S10321   6.033   0.040   9.710 -0.1664  0.1185 -0.6078
  102OSM    H9T10322   5.997  -0.130   9.765  0.0694 -0.4078 -1.8178
  102OSM   C10S10323   6.103  -0.120   9.580 -0.4048  0.1214 -0.6715
  102OSM   H10S10324   6.149  -0.220   9.590 -1.0288 -0.0947  0.1395
  102OSM   H10T10325   6.188  -0.053   9.555  0.5717 -0.4382  0.9810
  102OSM   C11S10326   5.995  -0.117   9.477 -0.9586  0.1674  1.0199
  102OSM   H11S10327   5.971  -0.009   9.460  1.7103  1.0269  2.2137
  102OSM   H11T10328   5.899  -0.164   9.507 -0.5743 -1.0747  0.3542
  102OSM   C12S10329   6.047  -0.177   9.337  0.3373 -0.1851 -0.0863
  102OSM   H12S10330   6.077  -0.282   9.354  2.5397  0.6471  1.5932
  102OSM   H12T10331   6.139  -0.119   9.314  0.0237  1.1767  1.8891
  102OSM   C13S10332   5.951  -0.154   9.225  0.0349  0.0783 -0.1518
  102OSM   H13S10333   5.958  -0.046   9.196  0.1437 -0.1974 -1.2150
  102OSM   H13T10334   5.851  -0.173   9.269  0.9452 -0.9294  1.5658
  102OSM   C14S10335   5.987  -0.240   9.108  0.0323  0.2472  0.4957
  102OSM   H14S10336   5.918  -0.211   9.026  1.0229 -0.8510 -0.7766
  102OSM   H14T10337   5.974  -0.350   9.117 -2.0410  0.5490  1.6653
  102OSM   C15S10338   6.135  -0.216   9.073  0.8537  0.4941  1.0317
  102OSM   H15S10339   6.204  -0.276   9.137 -0.2297 -0.3649  1.4075
  102OSM   H15T10340   6.162  -0.109   9.087  1.1437  0.2882  2.2557
  102OSM   C16S10341   6.160  -0.252   8.923  0.1423  0.1888  0.0350
  102OSM   H16S10342   6.096  -0.187   8.860  0.8623 -1.5545 -2.6808
  102OSM   H16T10343   6.134  -0.359   8.910 -0.9640  0.3679  0.6619
  102OSM   C17S10344   6.309  -0.231   8.888  0.1204  0.1834 -0.2219
  102OSM   H17S10345   6.360  -0.306   8.951 -0.1397  0.1118 -0.0922
  102OSM   H17T10346   6.340  -0.127   8.911 -0.2969  0.6390 -1.6195
  102OSM   C18S10347   6.323  -0.244   8.733 -0.6822 -1.2005  0.6582
  102OSM   H18S10348   6.260  -0.174   8.674 -0.5047 -0.9122  0.8027
  102OSM   H18T10349   6.295  -0.348   8.708 -0.3866 -1.3360  0.8838
  102OSM   H18U10350   6.429  -0.234   8.701 -1.2357  0.1686 -0.8690
  102OSM    C1F10351   6.410   0.295  10.308  0.1611  0.0933  0.4721
  102OSM     OF10352   6.507   0.253  10.375 -0.4237 -0.4494  0.5766
  102OSM    C2F10353   6.397   0.427  10.245 -0.7057  0.1050 -0.0728
  102OSM    H2F10354   6.474   0.500  10.275 -1.5681  0.6654  0.8425
  102OSM    H2G10355   6.297   0.463  10.279  0.2840  1.4643  1.5083
  102OSM    C3F10356   6.395   0.415  10.093 -0.7565 -0.4712  0.4523
  102OSM    H3F10357   6.377   0.514  10.046 -1.1607 -1.1423 -0.8556
  102OSM    H3G10358   6.311   0.351  10.058 -3.2508  2.8455 -0.1228
  102OSM    C4F10359   6.535   0.367  10.030 -0.2916 -0.2120 -0.8757
  102OSM    H4F10360   6.567   0.280  10.090  0.6787 -0.3553 -1.5678
  102OSM    H4G10361   6.619   0.439  10.042 -1.3160  0.9048 -0.1543
  102OSM    C5F10362   6.528   0.309   9.889  0.6964  0.4532 -0.4424
  102OSM    H5F10363   6.437   0.246   9.886 -0.0556  1.4053  1.1747
  102OSM    H5G10364   6.612   0.241   9.862 -1.0839 -1.9076 -0.3651
  102OSM    C6F10365   6.507   0.415   9.778  0.3550  0.1475  0.0083
  102OSM    H6F10366   6.598   0.479   9.788  1.1208 -1.0185  0.7422
  102OSM    H6G10367   6.410   0.462   9.803  0.3569 -0.6375  1.6172
  102OSM    C7F10368   6.519   0.358   9.634 -0.2628 -0.4853 -0.1558
  102OSM    H7F10369   6.447   0.274   9.645 -0.7216 -0.0048  0.5997
  102OSM    H7G10370   6.621   0.319   9.614  0.0508 -0.3764  1.1478
  102OSM    C8F10371   6.469   0.448   9.524  0.4146  0.1750 -0.8087
  102OSM    H8F10372   6.556   0.516   9.512 -0.3325  1.4806  0.8444
  102OSM    H8G10373   6.387   0.507   9.570 -0.9901 -0.9394 -1.8209
  102OSM    C9F10374   6.426   0.371   9.406  0.1177 -0.9622  0.2712
  102OSM    H9F10375   6.356   0.287   9.418  0.6164 -1.3147  0.8086
  102OSM   C10F10376   6.468   0.393   9.284 -0.5111 -0.0627  0.4170
  102OSM   H10F10377   6.446   0.303   9.225  0.1741  0.9887 -1.5322
  102OSM   C11F10378   6.573   0.486   9.233  0.5762 -0.5456 -0.8866
  102OSM   H11F10379   6.616   0.553   9.310 -0.4018  0.3278 -1.0805
  102OSM   H11G10380   6.525   0.551   9.156  0.6049 -0.9887 -1.2863
  102OSM   C12F10381   6.693   0.422   9.165  0.3304  0.2020  0.4939
  102OSM   H12F10382   6.755   0.376   9.245  1.8977  0.8893 -0.2711
  102OSM   H12G10383   6.754   0.503   9.120  1.5160 -0.3545  1.0428
  102OSM   C13F10384   6.652   0.332   9.043 -0.3854  0.4350  0.1927
  102OSM   H13F10385   6.597   0.387   8.964  1.2957  0.5995 -0.9014
  102OSM   H13G10386   6.592   0.246   9.080  1.1273 -1.0731 -0.7332
  102OSM   C14F10387   6.777   0.277   8.969 -0.6865 -0.4577 -0.3890
  102OSM   H14F10388   6.739   0.186   8.919  0.4607 -0.6202 -0.9969
  102OSM   H14G10389   6.845   0.246   9.051  0.1266  0.7158 -0.5912
  102OSM   C15F10390   6.842   0.369   8.866 -0.2170 -0.1580  0.9596
  102OSM   H15F10391   6.894   0.450   8.920  1.8012  0.4883 -1.7696
  102OSM   H15G10392   6.758   0.399   8.799 -0.1677 -0.9389  0.5291
  102OSM   C16F10393   6.946   0.293   8.775 -0.1638 -0.6086 -0.9502
  102OSM   H16F10394   6.900   0.240   8.688  1.3615 -1.0363 -1.5179
  102OSM   H16G10395   6.997   0.216   8.836 -0.2882 -0.3212 -0.4818
  102OSM   C17F10396   7.057   0.383   8.727 -0.2914 -0.5565 -0.6622
  102OSM   H17F10397   7.089   0.456   8.805  1.8432 -1.0784 -0.9855
  102OSM   H17G10398   7.028   0.446   8.641 -3.0505 -0.3825  0.3011
  102OSM   C18F10399   7.189   0.314   8.695  1.0887 -0.4282  0.1537
  102OSM   H18F10400   7.233   0.260   8.782  1.3120 -1.5921 -0.6593
  102OSM   H18G10401   7.265   0.394   8.680  0.5875 -0.1808 -1.1691
  102OSM   H18H10402   7.172   0.262   8.598 -0.3784 -0.4600  0.4058
  103OSM      N10403   0.196   1.471  11.032 -0.2163 -0.0513  0.7601
  103OSM    C1510404   0.089   1.396  11.112 -0.0007  0.3725 -0.0327
  103OSM   H15A10405   0.059   1.466  11.189  1.5050  0.7601  0.2249
  103OSM   H15B10406   0.146   1.314  11.150 -0.8903 -0.7903 -1.1038
  103OSM   H15C10407   0.015   1.360  11.042 -0.4821  0.9195  0.1853
  103OSM    C1410408   0.303   1.512  11.129 -0.8444  0.2765  0.0734
  103OSM   H14A10409   0.388   1.544  11.069 -1.8931 -0.0319 -1.6500
  103OSM   H14B10410   0.332   1.428  11.190  1.7533  1.0443  0.0108
  103OSM   H14C10411   0.271   1.595  11.189  0.5297  1.2077 -0.4266
  103OSM    C1310412   0.252   1.368  10.938 -0.3920 -0.2514  0.4822
  103OSM   H13A10413   0.289   1.283  10.994  0.3971 -1.5656 -1.8808
  103OSM   H13B10414   0.339   1.390  10.878 -0.1680 -2.2351  0.0165
  103OSM   H13C10415   0.179   1.337  10.864 -1.1393  1.5165  0.4371
  103OSM    C1210416   0.144   1.581  10.940 -0.0699  0.2283 -0.0449
  103OSM   H12A10417   0.055   1.547  10.888  0.7804 -0.9025 -0.8114
  103OSM   H12B10418   0.221   1.594  10.865  1.3615  0.5441  1.4362
  103OSM    C1110419   0.112   1.717  11.004 -0.2073  0.6404  0.4144
  103OSM   H11A10420   0.041   1.693  11.087 -0.3013 -1.3011 -0.1802
  103OSM   H11B10421   0.065   1.777  10.923  0.0174  0.4584  0.1490
  103OSM      P10422   0.343   1.847  10.965  0.5132  0.6941  0.3773
  103OSM    O1310423   0.418   1.952  11.033 -0.0902 -0.6190  0.1834
  103OSM    O1410424   0.428   1.742  10.908  0.1202  0.9051  0.5465
  103OSM    O1110425   0.269   1.908  10.843 -0.0179 -0.0379 -0.4037
  103OSM    O1210426   0.225   1.792  11.052 -0.5100 -0.3703  0.4180
  103OSM    C1S10427   0.321   2.002  10.755 -0.3409  0.1243  0.0472
  103OSM    H1S10428   0.413   2.046  10.800  2.0933 -2.3944 -2.0769
  103OSM    H1T10429   0.247   2.079  10.726 -1.1103 -1.2151 -1.7757
  103OSM     NF10430   0.471   2.041  10.565  0.5618  0.6771 -0.4557
  103OSM    HNF10431   0.424   2.109  10.510 -1.1008  0.1503  0.2399
  103OSM    C2S10432   0.375   1.942  10.624  0.3698  0.0298 -0.0681
  103OSM    H2S10433   0.437   1.853  10.645  0.7912  0.3910  0.2338
  103OSM    C3S10434   0.255   1.899  10.525 -0.5759  0.1781 -0.6756
  103OSM    H3S10435   0.191   1.984  10.493 -1.3084  0.5723  1.6499
  103OSM     O310436   0.169   1.809  10.594 -0.1940 -0.0674 -0.5357
  103OSM    HO310437   0.188   1.820  10.687 -0.2524 -0.9788 -0.4067
  103OSM    C4S10438   0.315   1.826  10.415 -0.2991 -0.3584  0.6478
  103OSM    H4S10439   0.360   1.730  10.443 -2.2308 -2.0536 -1.6981
  103OSM    C5S10440   0.310   1.850  10.282  0.8002  0.6661 -0.1735
  103OSM    H5S10441   0.237   1.927  10.251  0.6864  0.8356  0.5169
  103OSM    C6S10442   0.375   1.765  10.178 -0.5567 -0.1006 -0.6634
  103OSM    H6S10443   0.485   1.773  10.194 -0.7855  0.0580  1.0434
  103OSM    H6T10444   0.345   1.807  10.080  1.8147  0.1483 -1.3497
  103OSM    C7S10445   0.333   1.617  10.192 -0.1103 -0.1518  0.0376
  103OSM    H7S10446   0.236   1.606  10.139  0.0881  1.5367 -0.7407
  103OSM    H7T10447   0.324   1.587  10.299 -2.2925 -0.1695 -0.1136
  103OSM    C8S10448   0.433   1.527  10.124  0.0587 -0.2362 -0.5109
  103OSM    H8S10449   0.409   1.421  10.146 -0.8160  0.1746  0.5786
  103OSM    H8T10450   0.534   1.541  10.168 -1.1873  0.3917  2.3603
  103OSM    C9S10451   0.442   1.534   9.970 -0.2646 -0.1579  0.0616
  103OSM    H9S10452   0.480   1.634   9.942  0.5453 -0.3699  0.3710
  103OSM    H9T10453   0.338   1.534   9.930 -0.7680  1.3880  1.2765
  103OSM   C10S10454   0.522   1.418   9.908 -0.1411  0.3268  0.5650
  103OSM   H10S10455   0.472   1.321   9.929 -1.9085  0.4187 -2.5449
  103OSM   H10T10456   0.619   1.426   9.962 -1.7960  0.2451  3.7186
  103OSM   C11S10457   0.537   1.429   9.759 -0.1568  0.0405  0.1990
  103OSM   H11S10458   0.624   1.364   9.736  1.1883  0.5349  3.3585
  103OSM   H11T10459   0.563   1.535   9.742 -0.8463  0.1074 -0.4804
  103OSM   C12S10460   0.411   1.404   9.665 -0.2133  0.5551  0.0416
  103OSM   H12S10461   0.349   1.496   9.665  0.4838  1.0393  0.7335
  103OSM   H12T10462   0.345   1.324   9.705 -1.1804 -0.9123 -4.0020
  103OSM   C13S10463   0.453   1.369   9.520 -0.2962  0.5685  0.6474
  103OSM   H13S10464   0.537   1.296   9.514  0.3650  1.2223  1.7042
  103OSM   H13T10465   0.489   1.462   9.472 -0.4812  0.8699  1.0839
  103OSM   C14S10466   0.332   1.314   9.445 -0.0172 -1.6554  0.1451
  103OSM   H14S10467   0.245   1.370   9.485  0.8097  0.3511 -0.6732
  103OSM   H14T10468   0.319   1.207   9.471 -1.6953 -1.5610 -0.2284
  103OSM   C15S10469   0.339   1.339   9.295 -0.2028 -0.1439 -0.5612
  103OSM   H15S10470   0.387   1.437   9.272  0.0357 -0.0041  0.4611
  103OSM   H15T10471   0.233   1.339   9.262 -0.2560 -1.3476 -0.4274
  103OSM   C16S10472   0.405   1.219   9.227 -0.1405  0.2505 -0.4962
  103OSM   H16S10473   0.365   1.128   9.276 -0.8060  0.7445 -0.0938
  103OSM   H16T10474   0.514   1.222   9.246 -0.5334 -0.5669  2.3566
  103OSM   C17S10475   0.366   1.197   9.078  0.2508 -0.2999 -0.3897
  103OSM   H17S10476   0.255   1.207   9.074  0.4155  2.3996  0.1573
  103OSM   H17T10477   0.396   1.095   9.045 -0.6167 -0.1383 -1.8073
  103OSM   C18S10478   0.421   1.306   8.982 -1.0514  0.1515 -0.4732
  103OSM   H18S10479   0.531   1.303   8.972 -0.9666 -0.5746  0.5399
  103OSM   H18T10480   0.390   1.395   9.041  0.8983  0.4520  0.1545
  103OSM   H18U10481   0.372   1.307   8.882  0.5594  2.0434 -1.3071
  103OSM    C1F10482   0.594   2.056  10.605 -0.8358 -0.0243 -0.1871
  103OSM     OF10483   0.638   1.983  10.697 -0.3014 -0.1991  0.2684
  103OSM    C2F10484   0.668   2.176  10.545  0.2525 -0.4572 -0.0195
  103OSM    H2F10485   0.742   2.207  10.621  0.7448 -2.3525  0.3114
  103OSM    H2G10486   0.595   2.258  10.528 -0.2550 -0.2903  2.5599
  103OSM    C3F10487   0.739   2.155  10.405 -0.0143 -0.0639 -0.0003
  103OSM    H3F10488   0.793   2.058  10.410  0.2714  0.0057 -1.3353
  103OSM    H3G10489   0.801   2.245  10.384 -0.8588  1.0938  2.1938
  103OSM    C4F10490   0.639   2.139  10.290  0.3046  0.6300  0.3316
  103OSM    H4F10491   0.588   2.236  10.274 -1.6521 -0.0227  2.1962
  103OSM    H4G10492   0.574   2.052  10.315 -0.5441  1.1759  0.0707
  103OSM    C5F10493   0.695   2.087  10.157 -0.1174 -0.1255  0.1700
  103OSM    H5F10494   0.761   1.999  10.172  2.8531  1.9757  0.3433
  103OSM    H5G10495   0.763   2.168  10.122  0.1450 -0.5846 -0.4101
  103OSM    C6F10496   0.600   2.043  10.044  0.4090 -0.3406 -0.0674
  103OSM    H6F10497   0.558   2.135   9.999  1.1343  0.0887  0.1156
  103OSM    H6G10498   0.521   1.981  10.091 -1.9305  0.6310 -2.5335
  103OSM    C7F10499   0.673   1.978   9.924 -0.3893  0.4454  0.1796
  103OSM    H7F10500   0.718   1.879   9.949 -0.4950 -0.2374 -2.1127
  103OSM    H7G10501   0.757   2.041   9.889  0.7343 -1.2642 -0.3528
  103OSM    C8F10502   0.581   1.957   9.802 -0.2034 -1.3534  0.0036
  103OSM    H8F10503   0.542   2.057   9.774  1.6564 -0.3492  0.7975
  103OSM    H8G10504   0.495   1.893   9.830 -1.2443  0.1108  0.2712
  103OSM    C9F10505   0.654   1.907   9.679  0.3557  0.7284  0.3601
  103OSM    H9F10506   0.697   1.808   9.700  2.4877  1.7869  1.3740
  103OSM   C10F10507   0.661   1.954   9.554  0.1651  1.0058  0.2210
  103OSM   H10F10508   0.729   1.899   9.487 -1.3798  1.3511 -1.7276
  103OSM   C11F10509   0.599   2.074   9.501  0.5944 -0.6204 -0.4368
  103OSM   H11F10510   0.575   2.150   9.579 -4.0641 -2.1340 -0.1224
  103OSM   H11G10511   0.502   2.036   9.463  0.6472 -2.7892  1.3732
  103OSM   C12F10512   0.682   2.145   9.395  0.1276 -0.5034  0.2538
  103OSM   H12F10513   0.783   2.172   9.429 -0.3083 -0.8373  1.8743
  103OSM   H12G10514   0.641   2.242   9.362  1.9446  0.0323 -0.5424
  103OSM   C13F10515   0.704   2.068   9.262 -0.8408 -0.0244 -0.5062
  103OSM   H13F10516   0.753   1.971   9.285 -0.7725  0.6373  2.7057
  103OSM   H13G10517   0.606   2.046   9.214 -0.4616 -1.9428 -0.4768
  103OSM   C14F10518   0.798   2.147   9.165  0.3341 -0.3520  0.1322
  103OSM   H14F10519   0.902   2.140   9.203  0.2047 -0.2899  0.4952
  103OSM   H14G10520   0.753   2.249   9.169 -0.0821 -0.5208 -0.2342
  103OSM   C15F10521   0.795   2.095   9.022 -0.1778  0.3516 -0.3027
  103OSM   H15F10522   0.689   2.080   8.994 -0.6285  2.8257 -0.0736
  103OSM   H15G10523   0.840   1.993   9.033 -0.6271  0.3536  2.5065
  103OSM   C16F10524   0.882   2.179   8.921 -0.4196  0.0758  0.1592
  103OSM   H16F10525   0.959   2.234   8.981 -0.1227 -0.3800  0.2039
  103OSM   H16G10526   0.825   2.254   8.861 -2.3103  2.2135  4.2071
  103OSM   C17F10527   0.955   2.087   8.819  0.2201  0.6512 -0.2190
  103OSM   H17F10528   0.990   2.001   8.879  0.2077 -1.3296 -2.8966
  103OSM   H17G10529   1.036   2.150   8.777 -0.6811  1.8784 -0.1682
  103OSM   C18F10530   0.866   2.035   8.704 -0.4175 -0.1960 -0.9845
  103OSM   H18F10531   0.922   1.979   8.625 -2.3798  0.1661 -2.7027
  103OSM   H18G10532   0.813   2.116   8.649 -0.8257 -0.6360 -1.2520
  103OSM   H18H10533   0.787   1.973   8.751  0.2628 -0.0431  0.4022
  104OSM      N10534   4.290   3.482  11.012 -0.4418  0.2750 -0.1874
  104OSM    C1510535   4.274   3.512  11.160 -0.6448 -0.6426 -0.9409
  104OSM   H15A10536   4.258   3.418  11.211 -0.4398 -1.0869 -1.6802
  104OSM   H15B10537   4.182   3.568  11.173 -0.9512 -1.7467  2.6743
  104OSM   H15C10538   4.361   3.560  11.200 -1.1904  0.6074 -1.2176
  104OSM    C1410539   4.174   3.400  10.972 -0.5930 -0.1917  0.3601
  104OSM   H14A10540   4.195   3.361  10.873  1.2167  0.8086  0.3081
  104OSM   H14B10541   4.086   3.460  10.956 -1.4930 -1.7646 -0.8867
  104OSM   H14C10542   4.153   3.318  11.039  1.0431 -1.6988 -0.8685
  104OSM    C1310543   4.302   3.606  10.932  0.5829 -0.3303 -0.1604
  104OSM   H13A10544   4.319   3.592  10.826  3.2915  0.6471  0.0762
  104OSM   H13B10545   4.379   3.674  10.964  0.3967  0.0820 -0.5804
  104OSM   H13C10546   4.213   3.664  10.949  1.0785  0.8567 -1.4544
  104OSM    C1210547   4.413   3.399  11.001 -0.4788  0.4960  0.9047
  104OSM   H12A10548   4.391   3.311  11.060 -1.9554  0.6288  0.6121
  104OSM   H12B10549   4.502   3.441  11.046  0.0879  3.2532 -2.3397
  104OSM    C1110550   4.462   3.367  10.856  0.4754 -0.2360  0.5149
  104OSM   H11A10551   4.566   3.328  10.864  1.5825  1.7742 -2.4665
  104OSM   H11B10552   4.476   3.470  10.815  0.6595 -1.0315 -1.5435
  104OSM      P10553   4.418   3.131  10.768 -0.3851 -0.1902  0.2455
  104OSM    O1310554   4.552   3.110  10.708  0.1379  0.5038  0.2952
  104OSM    O1410555   4.393   3.064  10.896  0.0773  0.2392 -0.1941
  104OSM    O1110556   4.301   3.091  10.669  0.7005  0.2034 -0.3083
  104OSM    O1210557   4.382   3.282  10.778 -0.1569 -0.0479  0.5169
  104OSM    C1S10558   4.286   3.161  10.546  0.2287 -0.1398  0.1350
  104OSM    H1S10559   4.354   3.118  10.469 -2.3154 -0.1147 -2.2954
  104OSM    H1T10560   4.313   3.268  10.547 -0.3127  0.0058 -0.1825
  104OSM     NF10561   4.131   3.193  10.360  0.6106  0.1484 -0.1497
  104OSM    HNF10562   4.087   3.281  10.340  1.1154  0.4509  0.0683
  104OSM    C2S10563   4.141   3.138  10.495 -0.3533  0.3462  0.0221
  104OSM    H2S10564   4.123   3.028  10.503 -1.1387  0.6063  2.6787
  104OSM    C3S10565   4.029   3.195  10.585  0.4931 -0.1612  0.1455
  104OSM    H3S10566   4.024   3.303  10.560 -0.4445 -0.8431 -3.1180
  104OSM     O310567   4.055   3.187  10.723 -0.2117 -0.0513 -0.6459
  104OSM    HO310568   4.142   3.147  10.731  0.5884  1.7748  0.2094
  104OSM    C4S10569   3.898   3.139  10.539  0.2011 -0.0985 -0.4179
  104OSM    H4S10570   3.865   3.036  10.560 -1.1945  0.4264  0.0974
  104OSM    C5S10571   3.787   3.209  10.497  0.1268 -0.2848  0.7755
  104OSM    H5S10572   3.790   3.318  10.512 -0.0103 -0.3344  1.1681
  104OSM    C6S10573   3.654   3.145  10.450  0.2651 -0.6098  0.0835
  104OSM    H6S10574   3.590   3.227  10.409 -0.3163 -1.5399 -0.9216
  104OSM    H6T10575   3.602   3.100  10.537  2.2517 -0.7331  1.2640
  104OSM    C7S10576   3.667   3.030  10.341 -0.3999  0.1529  1.0625
  104OSM    H7S10577   3.564   2.998  10.314 -0.2476  1.6175 -1.5826
  104OSM    H7T10578   3.717   2.939  10.379  1.5575 -0.3491 -2.3095
  104OSM    C8S10579   3.733   3.096  10.229  0.0798 -0.0049 -0.2845
  104OSM    H8S10580   3.838   3.129  10.241 -0.1855  0.4269  1.0181
  104OSM    H8T10581   3.675   3.186  10.199 -0.1605 -0.4260 -1.1107
  104OSM    C9S10582   3.734   3.008  10.101  0.0390  0.6445  0.2473
  104OSM    H9S10583   3.628   3.019  10.070  0.4085  0.5858 -1.0810
  104OSM    H9T10584   3.747   2.901  10.124  0.7939 -0.0919 -3.1378
  104OSM   C10S10585   3.825   3.056   9.989 -0.0421 -0.2023  0.9856
  104OSM   H10S10586   3.931   3.062  10.021  0.3617 -0.0233 -0.3559
  104OSM   H10T10587   3.793   3.160   9.965 -1.1599 -0.7319  0.1476
  104OSM   C11S10588   3.820   2.964   9.859  0.0509  0.4514  0.6490
  104OSM   H11S10589   3.714   2.960   9.828 -0.1731  3.0676  0.7869
  104OSM   H11T10590   3.846   2.858   9.879  0.1506  0.1263 -1.0932
  104OSM   C12S10591   3.896   3.030   9.746  0.2843  0.0572  0.4735
  104OSM   H12S10592   4.006   3.028   9.763 -0.0254 -0.6165  2.7340
  104OSM   H12T10593   3.856   3.133   9.734 -1.4946 -0.7894 -1.6940
  104OSM   C13S10594   3.860   2.964   9.607  0.4568  0.1180 -0.2494
  104OSM   H13S10595   3.750   2.949   9.601  0.2270  0.2459  2.4534
  104OSM   H13T10596   3.912   2.866   9.608  1.0874  0.3948 -1.8723
  104OSM   C14S10597   3.898   3.043   9.487 -0.8292 -0.1121  0.3279
  104OSM   H14S10598   4.007   3.064   9.498 -0.5154 -1.6905  0.4388
  104OSM   H14T10599   3.851   3.144   9.492  1.7062  1.1974 -0.4842
  104OSM   C15S10600   3.873   2.979   9.348  1.0265 -0.6520 -0.5459
  104OSM   H15S10601   3.767   2.966   9.316  1.1252 -0.1772 -1.0711
  104OSM   H15T10602   3.909   2.875   9.362  1.3622 -0.5446 -0.6120
  104OSM   C16S10603   3.955   3.047   9.235 -0.1917 -0.0805  0.0636
  104OSM   H16S10604   4.055   3.058   9.281 -0.3718 -0.9722  0.7151
  104OSM   H16T10605   3.922   3.147   9.199  3.0302  0.1711 -2.6112
  104OSM   C17S10606   3.952   2.955   9.111  0.1736 -0.1597 -0.1604
  104OSM   H17S10607   3.848   2.968   9.076 -0.8243  1.7802  3.1264
  104OSM   H17T10608   3.966   2.847   9.136 -1.4335 -0.6500 -1.2140
  104OSM   C18S10609   4.056   2.983   9.002  0.2546 -0.4441 -0.5054
  104OSM   H18S10610   4.061   2.904   8.924 -1.0101 -1.4410  0.3864
  104OSM   H18T10611   4.152   3.007   9.052  0.5992  1.7880 -2.0638
  104OSM   H18U10612   4.028   3.078   8.951  0.7897 -0.0232 -0.0327
  104OSM    C1F10613   4.187   3.134  10.256  0.1920 -0.1862  0.0868
  104OSM     OF10614   4.220   3.016  10.255  0.4988  0.1597 -0.8201
  104OSM    C2F10615   4.176   3.206  10.127 -0.4135 -0.0954  0.7502
  104OSM    H2F10616   4.250   3.289  10.123 -0.2517 -0.2140  1.2299
  104OSM    H2G10617   4.071   3.241  10.111 -0.4603 -0.4007  0.3658
  104OSM    C3F10618   4.208   3.106  10.005 -0.6576 -0.0207  0.5321
  104OSM    H3F10619   4.136   3.022  10.015  0.9548 -1.1951  4.4859
  104OSM    H3G10620   4.314   3.072  10.003 -0.7398 -0.3359 -1.9901
  104OSM    C4F10621   4.207   3.187   9.880 -0.0620  0.2535  0.9011
  104OSM    H4F10622   4.269   3.279   9.886 -1.2458  1.2734 -1.3441
  104OSM    H4G10623   4.101   3.214   9.867  0.2825  1.6390  0.7995
  104OSM    C5F10624   4.260   3.114   9.749  0.3483 -0.6652  0.7173
  104OSM    H5F10625   4.200   3.020   9.741  0.6561 -0.7271 -1.3576
  104OSM    H5G10626   4.360   3.079   9.782 -0.4278 -2.3769  1.4216
  104OSM    C6F10627   4.273   3.187   9.616  0.1869  0.1491  0.1688
  104OSM    H6F10628   4.340   3.274   9.634 -0.2892  0.3503  1.0567
  104OSM    H6G10629   4.174   3.222   9.578 -0.2688 -0.8053  0.4361
  104OSM    C7F10630   4.325   3.099   9.505 -0.5867  0.3643 -0.0266
  104OSM    H7F10631   4.248   3.032   9.461  1.0520 -1.4155 -0.3198
  104OSM    H7G10632   4.388   3.024   9.557 -1.1563 -1.0311 -1.2556
  104OSM    C8F10633   4.416   3.156   9.392  0.1110 -0.3443  0.2043
  104OSM    H8F10634   4.500   3.085   9.377 -0.8580 -1.9154  1.9047
  104OSM    H8G10635   4.463   3.250   9.428  1.1242 -0.4138 -0.8683
  104OSM    C9F10636   4.331   3.185   9.265  0.1905 -0.8966 -0.3781
  104OSM    H9F10637   4.235   3.235   9.283  0.5386 -0.8520  1.5777
  104OSM   C10F10638   4.374   3.149   9.144 -0.2662 -0.4413 -0.0032
  104OSM   H10F10639   4.312   3.173   9.056  0.9678 -1.1910 -1.1153
  104OSM   C11F10640   4.503   3.081   9.108  0.2263  0.0935 -0.6489
  104OSM   H11F10641   4.595   3.122   9.155  0.8612 -2.2530  0.3173
  104OSM   H11G10642   4.515   3.100   8.999 -1.0725 -3.3564 -1.5413
  104OSM   C12F10643   4.501   2.934   9.127 -0.4739 -0.5075  0.4878
  104OSM   H12F10644   4.413   2.886   9.079 -2.4321  2.9302  0.3439
  104OSM   H12G10645   4.485   2.912   9.235  1.8162  0.9863  1.2063
  104OSM   C13F10646   4.641   2.860   9.092 -0.1026  0.2175 -0.0015
  104OSM   H13F10647   4.715   2.904   9.162  0.2679  0.7713 -0.7291
  104OSM   H13G10648   4.674   2.880   8.988 -2.2941  1.4956 -0.5080
  104OSM   C14F10649   4.634   2.705   9.114 -0.0303  0.6874  0.2163
  104OSM   H14F10650   4.534   2.678   9.074  0.4054 -1.1761  0.2996
  104OSM   H14G10651   4.627   2.680   9.222 -3.5104  1.8055  0.3714
  104OSM   C15F10652   4.742   2.629   9.032  0.0632  0.9175 -0.6918
  104OSM   H15F10653   4.842   2.666   9.063 -0.5754  2.3701 -0.2502
  104OSM   H15G10654   4.719   2.661   8.928  1.4788 -0.7823 -1.5714
  104OSM   C16F10655   4.709   2.479   9.052 -0.2957  0.0624  0.2148
  104OSM   H16F10656   4.614   2.442   9.008  0.3345 -1.5084  0.0800
  104OSM   H16G10657   4.703   2.459   9.161 -0.0717 -0.6410  0.1045
  104OSM   C17F10658   4.804   2.376   8.981 -0.0978 -0.0216  0.5135
  104OSM   H17F10659   4.903   2.386   9.031 -0.7142  3.5702  1.2985
  104OSM   H17G10660   4.817   2.407   8.875 -3.5038  2.7459  0.7517
  104OSM   C18F10661   4.751   2.234   8.981 -0.2285 -0.5167  0.0270
  104OSM   H18F10662   4.800   2.174   8.902  2.0529  0.3822  0.6481
  104OSM   H18G10663   4.642   2.234   8.964 -0.4573 -0.0576  1.3566
  104OSM   H18H10664   4.767   2.179   9.077  1.3404  0.0978  0.1506
  105OSM      N10665   3.685   2.933  11.047 -0.1127 -0.5083  0.2846
  105OSM    C1510666   3.544   2.940  11.104 -0.2053 -0.1142 -0.2983
  105OSM   H15A10667   3.486   3.020  11.061  1.2590  0.0525 -2.1096
  105OSM   H15B10668   3.550   2.943  11.212 -0.4808  3.0585 -0.2676
  105OSM   H15C10669   3.489   2.850  11.081  1.7741 -0.7043 -3.2422
  105OSM    C1410670   3.738   3.077  11.055  0.3136 -0.3402 -0.6234
  105OSM   H14A10671   3.737   3.111  11.157 -0.4682 -1.5623 -0.2021
  105OSM   H14B10672   3.690   3.147  10.988 -0.3734  0.9577  1.1740
  105OSM   H14C10673   3.842   3.077  11.024  0.9967  0.8233  1.4855
  105OSM    C1310674   3.777   2.843  11.121 -0.1201  0.0784  0.1813
  105OSM   H13A10675   3.722   2.750  11.133 -0.1320  0.2545  1.6563
  105OSM   H13B10676   3.792   2.883  11.220 -3.2021 -3.3054  2.3091
  105OSM   H13C10677   3.871   2.829  11.070  0.8945 -0.2781  2.0672
  105OSM    C1210678   3.675   2.897  10.902  0.4689 -0.4686 -0.1669
  105OSM   H12A10679   3.607   2.969  10.859 -1.8664 -1.5671  1.5107
  105OSM   H12B10680   3.632   2.798  10.894  0.9140 -0.6937  0.1764
  105OSM    C1110681   3.795   2.908  10.804  0.8580  0.1986  1.0620
  105OSM   H11A10682   3.834   3.012  10.806  0.5378  0.4908 -2.2234
  105OSM   H11B10683   3.756   2.894  10.701  0.1989  2.1612  1.0069
  105OSM      P10684   3.876   2.663  10.794 -0.3099  0.1581  0.2265
  105OSM    O1310685   3.948   2.587  10.896  0.1482  0.4260 -0.0263
  105OSM    O1410686   3.731   2.633  10.777 -0.2839 -0.4088 -0.3197
  105OSM    O1110687   3.954   2.642  10.653  0.2535  0.0728 -0.1096
  105OSM    O1210688   3.896   2.816  10.832  0.2155 -0.1001  0.7873
  105OSM    C1S10689   4.080   2.698  10.615 -0.5018  0.0395 -0.1395
  105OSM    H1S10690   4.167   2.647  10.661  0.3106  1.2274 -0.3077
  105OSM    H1T10691   4.089   2.799  10.660  1.4304  0.6703 -1.7713
  105OSM     NF10692   4.227   2.773  10.434  0.2762  0.0182  0.5208
  105OSM    HNF10693   4.222   2.853  10.375 -1.5964 -0.3734  0.0543
  105OSM    C2S10694   4.097   2.714  10.460  0.3991  0.0847 -0.1180
  105OSM    H2S10695   4.111   2.608  10.430 -0.4671 -0.1386  0.2499
  105OSM    C3S10696   3.981   2.780  10.384 -0.9572 -0.0477  0.2900
  105OSM    H3S10697   3.971   2.889  10.399 -0.4997 -0.0061  0.2944
  105OSM     O310698   3.854   2.732  10.428 -0.2144 -0.8734 -0.0089
  105OSM    HO310699   3.882   2.682  10.505  0.1375 -1.4553 -0.4997
  105OSM    C4S10700   3.994   2.742  10.234 -0.0795  0.2345 -0.1837
  105OSM    H4S10701   4.016   2.835  10.179  1.2519  0.5252  0.7702
  105OSM    C5S10702   3.971   2.628  10.168 -0.2219  0.1294 -0.6799
  105OSM    H5S10703   3.949   2.533  10.220 -0.2460  0.4243 -0.1513
  105OSM    C6S10704   3.993   2.623  10.014  0.0910 -0.1797 -0.4112
  105OSM    H6S10705   3.926   2.701   9.972  0.4120 -1.7675 -4.2567
  105OSM    H6T10706   3.971   2.527   9.963  0.3535 -0.3094 -0.2834
  105OSM    C7S10707   4.140   2.676   9.987 -0.2270  0.0763  0.2768
  105OSM    H7S10708   4.207   2.599  10.030 -1.3826 -1.2329 -0.1903
  105OSM    H7T10709   4.163   2.775  10.030 -0.1573 -0.1562  0.7831
  105OSM    C8S10710   4.167   2.699   9.834  0.7576  0.2911  0.2459
  105OSM    H8S10711   4.267   2.740   9.810 -0.6259  3.0953 -1.2652
  105OSM    H8T10712   4.091   2.771   9.796 -0.2452 -0.8909 -0.0530
  105OSM    C9S10713   4.150   2.576   9.747  0.4633  0.5969  0.2646
  105OSM    H9S10714   4.053   2.522   9.760 -0.2322  1.0960 -2.2407
  105OSM    H9T10715   4.235   2.506   9.758 -0.8419 -0.9117  1.1904
  105OSM   C10S10716   4.128   2.618   9.599  0.8833 -0.5209  0.1087
  105OSM   H10S10717   4.214   2.684   9.575  0.1370  1.4538  2.5838
  105OSM   H10T10718   4.030   2.669   9.588  1.3036  0.1716 -0.5452
  105OSM   C11S10719   4.130   2.500   9.502  0.4993  0.3139 -0.1022
  105OSM   H11S10720   4.033   2.446   9.507  0.9109 -0.3196  1.4551
  105OSM   H11T10721   4.213   2.433   9.532  0.8671  0.2931 -1.1185
  105OSM   C12S10722   4.154   2.549   9.356 -0.4095 -0.4311  0.3778
  105OSM   H12S10723   4.259   2.586   9.349 -1.4775  2.4531 -2.9878
  105OSM   H12T10724   4.104   2.644   9.328  2.3209  0.5447 -1.6400
  105OSM   C13S10725   4.125   2.448   9.245 -0.0369  0.4016 -0.4932
  105OSM   H13S10726   4.023   2.411   9.270  0.1266 -0.0042 -0.4202
  105OSM   H13T10727   4.183   2.357   9.268 -0.6481 -0.0038 -0.5407
  105OSM   C14S10728   4.143   2.507   9.102 -1.0145  0.5668  0.1145
  105OSM   H14S10729   4.075   2.595   9.090  0.5535  1.6470 -1.1665
  105OSM   H14T10730   4.114   2.421   9.038  1.3914 -0.1147 -0.1484
  105OSM   C15S10731   4.291   2.541   9.084 -0.6314  0.5082  0.3251
  105OSM   H15S10732   4.362   2.461   9.116  0.4975  0.6306 -1.7137
  105OSM   H15T10733   4.323   2.640   9.123  0.0679  0.8801 -1.1258
  105OSM   C16S10734   4.322   2.564   8.936 -0.2300 -0.2470  0.4178
  105OSM   H16S10735   4.273   2.479   8.885 -1.6197 -0.5559  2.1487
  105OSM   H16T10736   4.433   2.556   8.936  0.0111  1.8574  2.2274
  105OSM   C17S10737   4.272   2.700   8.879  0.7154  0.3753  0.0320
  105OSM   H17S10738   4.350   2.776   8.899  1.6413 -1.2395  3.2072
  105OSM   H17T10739   4.174   2.727   8.924  0.4308  0.9980 -0.9183
  105OSM   C18S10740   4.238   2.695   8.732 -0.2484 -0.2976 -0.0149
  105OSM   H18S10741   4.160   2.618   8.710  0.1025 -0.5162 -0.5278
  105OSM   H18T10742   4.328   2.655   8.679 -1.0741 -0.3437 -1.4447
  105OSM   H18U10743   4.220   2.799   8.697  0.4093 -0.1457  0.0791
  105OSM    C1F10744   4.348   2.730  10.482 -0.2497 -0.2461 -0.2667
  105OSM     OF10745   4.375   2.616  10.515  1.3651  0.3026  0.0652
  105OSM    C2F10746   4.456   2.838  10.477 -0.1541 -0.2138  0.0327
  105OSM    H2F10747   4.478   2.871  10.581 -0.8157 -1.3913  0.5647
  105OSM    H2G10748   4.414   2.923  10.418  1.8279  0.1159 -1.0031
  105OSM    C3F10749   4.584   2.783  10.410 -0.7269 -0.3789  0.3553
  105OSM    H3F10750   4.624   2.704  10.476  2.1752  0.7446  0.1154
  105OSM    H3G10751   4.651   2.871  10.398  1.5470 -2.3757 -3.7950
  105OSM    C4F10752   4.563   2.722  10.270 -0.1298 -0.0489 -0.2437
  105OSM    H4F10753   4.494   2.636  10.280 -3.7213  2.6510  0.2475
  105OSM    H4G10754   4.657   2.685  10.224  0.3782 -0.9799  1.4644
  105OSM    C5F10755   4.506   2.817  10.159  0.0787 -0.1251  0.6120
  105OSM    H5F10756   4.560   2.913  10.148  0.2225 -0.3833 -1.1766
  105OSM    H5G10757   4.401   2.823  10.196 -0.0594  1.3121  0.0690
  105OSM    C6F10758   4.513   2.753  10.022 -0.1779 -0.4134 -0.4680
  105OSM    H6F10759   4.429   2.808   9.975 -0.3296  0.2288  0.5133
  105OSM    H6G10760   4.489   2.645  10.030 -1.2070 -0.0446  3.4710
  105OSM    C7F10761   4.638   2.777   9.941  0.3763  0.3203 -0.2295
  105OSM    H7F10762   4.725   2.741   9.999  1.1226 -0.4180 -1.7445
  105OSM    H7G10763   4.662   2.883   9.920 -0.5966  0.9531  1.6042
  105OSM    C8F10764   4.650   2.697   9.813  0.6546  0.0820 -0.4457
  105OSM    H8F10765   4.635   2.590   9.836 -1.5748  0.6126  0.8518
  105OSM    H8G10766   4.752   2.712   9.772  0.2728 -0.5170 -1.6647
  105OSM    C9F10767   4.563   2.734   9.693  0.7382  1.2886 -0.0771
  105OSM    H9F10768   4.472   2.675   9.675  0.6456  1.1669  0.7654
  105OSM   C10F10769   4.598   2.822   9.600 -0.1757  0.1376 -0.1128
  105OSM   H10F10770   4.522   2.831   9.520 -0.8213  1.8416  0.6389
  105OSM   C11F10771   4.717   2.920   9.595 -0.1452  0.1730 -0.4295
  105OSM   H11F10772   4.771   2.921   9.692  0.2780 -0.5055 -0.6492
  105OSM   H11G10773   4.672   3.020   9.584 -0.3202 -0.0384 -1.7808
  105OSM   C12F10774   4.813   2.906   9.473 -0.6255 -0.7755  0.2834
  105OSM   H12F10775   4.770   2.917   9.371  1.2403  0.9115 -0.3854
  105OSM   H12G10776   4.861   2.808   9.495 -0.2513 -0.2051  2.1840
  105OSM   C13F10777   4.926   3.012   9.486  0.2918 -0.0498 -0.2335
  105OSM   H13F10778   4.961   3.007   9.591  0.5128  3.8810  0.0098
  105OSM   H13G10779   4.897   3.117   9.469  2.0173  0.4347 -0.3528
  105OSM   C14F10780   5.039   2.989   9.389 -0.2666 -0.1453 -0.5561
  105OSM   H14F10781   5.073   2.884   9.393 -0.0111 -0.0350  3.1708
  105OSM   H14G10782   5.127   3.047   9.425  0.4862 -0.1660 -2.2579
  105OSM   C15F10783   5.019   3.031   9.242  0.2262  0.5412  0.3461
  105OSM   H15F10784   5.010   3.140   9.223 -0.4294  0.1386 -2.0117
  105OSM   H15G10785   4.922   2.980   9.225 -0.5926  1.3981  2.1716
  105OSM   C16F10786   5.137   2.984   9.154  0.2663  0.2987 -0.2462
  105OSM   H16F10787   5.154   2.876   9.174  0.9856  0.6196  0.9729
  105OSM   H16G10788   5.230   3.041   9.180  0.0849  0.6742 -0.4085
  105OSM   C17F10789   5.115   2.997   9.003  0.7302  0.2339 -0.0244
  105OSM   H17F10790   5.211   3.015   8.950  0.4022 -0.3138 -0.8176
  105OSM   H17G10791   5.062   3.091   8.976  0.9431  0.1132 -0.9055
  105OSM   C18F10792   5.036   2.881   8.917 -0.3042  0.1450 -0.4087
  105OSM   H18F10793   5.087   2.783   8.917 -1.5254 -0.5113  0.5203
  105OSM   H18G10794   5.034   2.901   8.808  1.9665 -0.0092 -0.5290
  105OSM   H18H10795   4.930   2.873   8.949 -0.3602  0.0577 -0.6163
  106OSM      N10796   6.062   0.900  10.829 -0.4935  0.3361 -0.6529
  106OSM    C1510797   6.044   0.998  10.950 -0.3299  0.5023  0.2098
  106OSM   H15A10798   5.945   1.038  10.941 -0.3495  0.6403  0.9952
  106OSM   H15B10799   6.105   1.086  10.937  0.4426  0.4745  2.9987
  106OSM   H15C10800   6.060   0.952  11.047 -0.2713  1.9920  0.9306
  106OSM    C1410801   6.052   0.979  10.703 -0.4429  0.6784 -0.0273
  106OSM   H14A10802   5.953   1.019  10.690 -0.3812  0.9774  0.4055
  106OSM   H14B10803   6.079   0.915  10.620 -0.1355  0.3239  0.3488
  106OSM   H14C10804   6.119   1.063  10.714 -0.6130  0.6843  1.0576
  106OSM    C1310805   6.200   0.842  10.848 -0.0013 -0.2743  0.0636
  106OSM   H13A10806   6.196   0.778  10.935  0.6669  0.4751  0.6588
  106OSM   H13B10807   6.277   0.915  10.868 -2.0956  1.1521  3.9037
  106OSM   H13C10808   6.226   0.781  10.762 -2.8698  1.2172 -2.0355
  106OSM    C1210809   5.964   0.793  10.832  0.3929  0.1258  0.1342
  106OSM   H12A10810   5.866   0.831  10.853  0.4772  0.7054 -0.4923
  106OSM   H12B10811   5.987   0.729  10.916 -2.4627  1.0866  1.7857
  106OSM    C1110812   5.955   0.695  10.714 -0.5169  0.0613 -0.0280
  106OSM   H11A10813   5.911   0.734  10.620 -1.5370  0.0213  0.4109
  106OSM   H11B10814   5.883   0.614  10.742 -0.9358  0.4120 -0.0761
  106OSM      P10815   6.150   0.513  10.690 -0.1937 -0.0709  0.4861
  106OSM    O1310816   6.295   0.522  10.666 -0.3836  0.1033  0.9159
  106OSM    O1410817   6.100   0.452  10.820  0.2010  0.0908  0.1252
  106OSM    O1110818   6.094   0.431  10.571  0.0504 -0.1181 -0.2474
  106OSM    O1210819   6.082   0.650  10.673  0.2629  0.1533  0.4255
  106OSM    C1S10820   6.037   0.483  10.455  0.5969 -0.1170  1.2004
  106OSM    H1S10821   6.119   0.482  10.381 -0.1459 -1.3734  0.3418
  106OSM    H1T10822   5.999   0.587  10.463 -0.8196 -0.4697 -0.4008
  106OSM     NF10823   5.890   0.434  10.261  0.2838 -0.3024  0.1291
  106OSM    HNF10824   5.803   0.482  10.260 -0.9301 -2.3974 -0.5161
  106OSM    C2S10825   5.919   0.396  10.396 -0.4324  0.6517  0.2306
  106OSM    H2S10826   5.956   0.291  10.391 -0.1137  0.8357 -2.6265
  106OSM    C3S10827   5.798   0.389  10.497  0.4147 -0.1102 -0.2617
  106OSM    H3S10828   5.749   0.488  10.490  0.4912 -0.1699 -2.2204
  106OSM     O310829   5.847   0.367  10.631  0.1488  0.1206  0.0638
  106OSM    HO310830   5.943   0.378  10.631  0.3087 -1.0822  0.5862
  106OSM    C4S10831   5.700   0.285  10.440  0.4703  1.0142 -0.5396
  106OSM    H4S10832   5.641   0.321  10.355  0.6318  2.4116 -0.0929
  106OSM    C5S10833   5.682   0.160  10.485 -0.4475 -0.3401  0.4378
  106OSM    H5S10834   5.754   0.120  10.558  0.8143  1.5178  0.2996
  106OSM    C6S10835   5.594   0.054  10.433  0.4042 -0.1252 -0.5335
  106OSM    H6S10836   5.508   0.096  10.377 -1.6700  1.0985  3.1842
  106OSM    H6T10837   5.543   0.002  10.518 -1.0317  0.2512 -1.1271
  106OSM    C7S10838   5.676  -0.050  10.346  0.9240 -0.4311  0.3542
  106OSM    H7S10839   5.618  -0.138  10.310  1.2799 -0.1126 -1.0500
  106OSM    H7T10840   5.760  -0.089  10.407 -0.0463 -2.0455  0.7292
  106OSM    C8S10841   5.730   0.011  10.215  0.0472 -0.5925  0.2040
  106OSM    H8S10842   5.809  -0.062  10.188  2.3852  1.6235  0.7299
  106OSM    H8T10843   5.783   0.106  10.234  0.4890 -0.4991 -1.3555
  106OSM    C9S10844   5.625   0.028  10.108 -0.6861 -0.3254 -0.1035
  106OSM    H9S10845   5.568   0.121  10.133  1.4658  0.8962  0.5558
  106OSM    H9T10846   5.558  -0.060  10.100 -0.7515 -0.3557  0.7076
  106OSM   C10S10847   5.698   0.052   9.974  0.6726  0.0665 -0.0585
  106OSM   H10S10848   5.764  -0.037   9.969  0.3760 -0.3301  1.9638
  106OSM   H10T10849   5.770   0.136   9.970  0.5676  0.1723  0.2646
  106OSM   C11S10850   5.599   0.041   9.848 -0.3053  0.2320 -0.6055
  106OSM   H11S10851   5.534   0.132   9.845 -1.5493 -0.6414 -0.7126
  106OSM   H11T10852   5.537  -0.047   9.876 -1.7309  0.9397 -1.4142
  106OSM   C12S10853   5.666   0.041   9.708  0.5344  0.6435 -0.3374
  106OSM   H12S10854   5.753  -0.028   9.708 -0.8200 -1.1454  0.6095
  106OSM   H12T10855   5.708   0.142   9.691 -0.3374  1.5791  2.5834
  106OSM   C13S10856   5.559   0.017   9.589  0.6928  0.4800  0.3384
  106OSM   H13S10857   5.473   0.086   9.599  1.7138  2.2481 -2.2380
  106OSM   H13T10858   5.519  -0.087   9.599 -0.2441  0.9097  1.3010
  106OSM   C14S10859   5.604   0.045   9.446 -0.4204 -0.4630 -0.6001
  106OSM   H14S10860   5.703  -0.001   9.429  0.1226  0.8036 -0.9403
  106OSM   H14T10861   5.630   0.153   9.444 -0.2030 -0.5060 -0.1975
  106OSM   C15S10862   5.513   0.010   9.330 -0.7007  0.4480  0.9300
  106OSM   H15S10863   5.422   0.072   9.342 -0.4756  0.3784  3.7453
  106OSM   H15T10864   5.492  -0.099   9.330 -0.5378  0.4145  1.1698
  106OSM   C16S10865   5.590   0.055   9.202 -0.3311  0.1427  0.3677
  106OSM   H16S10866   5.666  -0.024   9.186 -0.9415 -0.3933  0.0807
  106OSM   H16T10867   5.661   0.138   9.221 -0.9161  0.9016 -0.7086
  106OSM   C17S10868   5.502   0.075   9.076 -0.0804 -0.5051  0.3895
  106OSM   H17S10869   5.557   0.090   8.981  0.2649 -1.9569  0.3327
  106OSM   H17T10870   5.441   0.168   9.083  1.8122  0.7357  0.8706
  106OSM   C18S10871   5.400  -0.039   9.036  0.1629 -0.1927  0.4018
  106OSM   H18S10872   5.452  -0.137   9.038 -1.2144 -1.0622 -1.8109
  106OSM   H18T10873   5.362  -0.014   8.934  2.0550  0.7143 -0.1286
  106OSM   H18U10874   5.315  -0.052   9.107 -0.8850 -0.4887 -0.8690
  106OSM    C1F10875   5.958   0.399  10.154 -0.0111  0.0900 -0.1814
  106OSM     OF10876   6.069   0.340  10.162  0.4415 -0.2355 -0.0490
  106OSM    C2F10877   5.894   0.424  10.022  0.2076  0.2110  0.0036
  106OSM    H2F10878   5.855   0.528  10.009 -2.7467 -1.0595 -2.7973
  106OSM    H2G10879   5.808   0.355  10.015  0.4414 -0.1949  0.9870
  106OSM    C3F10880   5.983   0.401   9.888  0.3860  0.6094 -0.0036
  106OSM    H3F10881   6.032   0.302   9.896 -3.6865 -1.7621 -1.5351
  106OSM    H3G10882   6.057   0.484   9.897  0.5637  0.6776 -1.7032
  106OSM    C4F10883   5.895   0.405   9.755 -0.6200 -0.1161  0.0058
  106OSM    H4F10884   5.839   0.501   9.757  1.5624  1.2232  1.9464
  106OSM    H4G10885   5.820   0.324   9.769  0.0453 -1.1975 -2.2072
  106OSM    C5F10886   5.976   0.384   9.622  0.2013  0.1408 -0.8214
  106OSM    H5F10887   6.048   0.302   9.645 -1.0719 -0.6301  0.6156
  106OSM    H5G10888   6.033   0.478   9.608 -0.6506  0.6503 -0.8975
  106OSM    C6F10889   5.883   0.360   9.507  0.8389 -0.3335  0.7371
  106OSM    H6F10890   5.819   0.451   9.505 -0.2896 -1.1207 -0.1591
  106OSM    H6G10891   5.809   0.278   9.503 -0.2497  0.6146 -2.9193
  106OSM    C7F10892   5.971   0.346   9.383 -0.0800 -0.5845 -0.6763
  106OSM    H7F10893   6.035   0.258   9.404  3.0105  1.5902 -0.2839
  106OSM    H7G10894   6.040   0.433   9.374 -1.9990  1.0434 -0.4025
  106OSM    C8F10895   5.897   0.345   9.247 -0.3431 -0.7987  0.0412
  106OSM    H8F10896   5.854   0.443   9.217  0.7689  0.0718  1.2010
  106OSM    H8G10897   5.806   0.285   9.270  0.6675 -2.3156  0.1914
  106OSM    C9F10898   5.982   0.276   9.146  0.0341  0.5505 -0.1887
  106OSM    H9F10899   6.000   0.169   9.165  0.4866  0.5648 -0.5095
  106OSM   C10F10900   6.028   0.316   9.027 -0.0767  1.0104 -0.0186
  106OSM   H10F10901   6.097   0.253   8.968 -0.5985 -0.9448  1.3566
  106OSM   C11F10902   5.990   0.441   8.955 -0.0399 -0.1691  0.1902
  106OSM   H11F10903   6.081   0.478   8.902  0.0770 -1.0690 -0.2608
  106OSM   H11G10904   5.964   0.521   9.028 -1.9228  0.9008 -1.5323
  106OSM   C12F10905   5.873   0.417   8.850 -0.1757 -0.0615  0.1433
  106OSM   H12F10906   5.896   0.328   8.788 -1.0084 -0.9393  1.0532
  106OSM   H12G10907   5.881   0.504   8.781  3.4217  1.9660  2.8015
  106OSM   C13F10908   5.732   0.419   8.910 -0.0056  0.2692 -0.0545
  106OSM   H13F10909   5.735   0.511   8.972  2.1657 -0.3183  0.8207
  106OSM   H13G10910   5.721   0.334   8.980  1.5894 -0.2860 -0.4393
  106OSM   C14F10911   5.620   0.413   8.806  0.4851 -0.4233 -0.2312
  106OSM   H14F10912   5.531   0.420   8.873 -0.1223 -1.7277 -0.8670
  106OSM   H14G10913   5.610   0.321   8.745  5.3720 -1.8712  0.7440
  106OSM   C15F10914   5.628   0.525   8.701  0.6893 -0.1029  0.3509
  106OSM   H15F10915   5.717   0.506   8.637 -0.2911  0.7206 -1.3305
  106OSM   H15G10916   5.649   0.623   8.749 -2.6248  0.5389  0.6896
  106OSM   C16F10917   5.503   0.538   8.618 -0.2807  0.1237  0.3357
  106OSM   H16F10918   5.484   0.445   8.561 -1.1780  0.4648  0.0576
  106OSM   H16G10919   5.516   0.613   8.536 -0.4671  0.0037  0.1969
  106OSM   C17F10920   5.384   0.594   8.693  0.6009 -0.1238  0.0928
  106OSM   H17F10921   5.394   0.694   8.740 -1.9941 -0.6407  1.9915
  106OSM   H17G10922   5.362   0.533   8.784  1.1482  0.9648  0.9753
  106OSM   C18F10923   5.253   0.592   8.602  0.2315  0.2717 -0.2905
  106OSM   H18F10924   5.168   0.632   8.661  0.5764  1.2363 -0.4392
  106OSM   H18G10925   5.231   0.488   8.570 -0.1431  0.7785 -1.7921
  106OSM   H18H10926   5.279   0.650   8.510  0.5491  0.6606  0.0431
  107OSM      N10927   0.053   3.863  11.223  0.0500  0.0145 -0.2640
  107OSM    C1510928   0.076   4.006  11.247  0.1817 -0.3481 -0.3295
  107OSM   H15A10929  -0.002   4.070  11.209 -1.2972 -1.3867  0.8284
  107OSM   H15B10930   0.164   4.036  11.193 -0.0326  0.5310 -0.2136
  107OSM   H15C10931   0.085   4.017  11.354 -0.0161  1.2625 -0.4465
  107OSM    C1410932   0.014   3.833  11.077  0.0891 -0.5128  0.0905
  107OSM   H14A10933   0.008   3.726  11.062  1.5930 -0.4281 -1.3785
  107OSM   H14B10934   0.079   3.885  11.008 -0.5153 -4.3958 -3.9219
  107OSM   H14C10935  -0.081   3.882  11.062  1.3574  1.5363 -1.9311
  107OSM    C1310936   0.171   3.783  11.257 -0.9091 -1.0209  0.7810
  107OSM   H13A10937   0.258   3.804  11.197 -0.6416 -0.9977  1.1717
  107OSM   H13B10938   0.145   3.678  11.262 -0.0717 -1.2986 -0.3703
  107OSM   H13C10939   0.200   3.818  11.356  2.1228  1.5616 -0.8266
  107OSM    C1210940  -0.059   3.825  11.320  0.4462  0.0640 -0.9038
  107OSM   H12A10941  -0.027   3.820  11.422 -0.0884 -0.0471 -0.7364
  107OSM   H12B10942  -0.083   3.720  11.305  1.1043 -0.5391  1.7440
  107OSM    C1110943  -0.199   3.897  11.306 -0.1285  0.1263 -0.0307
  107OSM   H11A10944  -0.193   4.006  11.324 -2.6178  0.9890 -3.3882
  107OSM   H11B10945  -0.274   3.855  11.377 -0.8948 -2.1792 -2.0728
  107OSM      P10946  -0.355   3.768  11.148  0.1183 -0.0020 -0.4614
  107OSM    O1310947  -0.301   3.631  11.161  0.0645 -0.2269  0.5512
  107OSM    O1410948  -0.477   3.799  11.226 -0.4350  0.3274  0.1492
  107OSM    O1110949  -0.398   3.787  10.999 -0.5734  0.6375 -0.1643
  107OSM    O1210950  -0.250   3.877  11.170 -0.9980  0.4084 -0.6104
  107OSM    C1S10951  -0.519   3.730  10.939 -0.4767  0.0310 -0.1139
  107OSM    H1S10952  -0.599   3.797  10.976  1.1896  1.5186  0.9738
  107OSM    H1T10953  -0.537   3.631  10.986 -1.9556  0.3240 -0.0227
  107OSM     NF10954  -0.633   3.669  10.725 -0.2168  0.5752  0.2450
  107OSM    HNF10955  -0.636   3.570  10.716 -0.4061  0.6595 -0.7046
  107OSM    C2S10956  -0.504   3.712  10.781  0.0484  0.6080 -0.6948
  107OSM    H2S10957  -0.473   3.810  10.741  1.6830 -0.3441 -1.8642
  107OSM    C3S10958  -0.383   3.627  10.750 -0.4417  0.4740  0.6514
  107OSM    H3S10959  -0.407   3.526  10.790 -1.1341  1.1313  1.9356
  107OSM     O310960  -0.262   3.666  10.818 -0.0615  0.6137  0.3647
  107OSM    HO310961  -0.292   3.727  10.886  2.5501  1.2161  1.0869
  107OSM    C4S10962  -0.366   3.631  10.598  0.3651  0.0631  0.0376
  107OSM    H4S10963  -0.325   3.723  10.554  0.0214 -0.8740 -2.4224
  107OSM    C5S10964  -0.386   3.526  10.515 -0.6543  0.1395  0.0504
  107OSM    H5S10965  -0.422   3.430  10.554  0.8185 -0.6527 -0.4694
  107OSM    C6S10966  -0.390   3.534  10.358  0.2309 -0.4923 -1.0144
  107OSM    H6S10967  -0.453   3.449  10.322 -1.6625  0.5365 -0.2793
  107OSM    H6T10968  -0.296   3.514  10.303  0.9943  0.7748 -0.2124
  107OSM    C7S10969  -0.460   3.664  10.299  0.4957 -0.5951 -0.2735
  107OSM    H7S10970  -0.393   3.749  10.323 -0.7938  0.5864 -0.7595
  107OSM    H7T10971  -0.549   3.694  10.358 -0.6573 -2.4047 -0.9710
  107OSM    C8S10972  -0.506   3.657  10.151 -0.1389 -0.1856  0.2500
  107OSM    H8S10973  -0.598   3.596  10.138 -2.3552  3.0347 -0.4115
  107OSM    H8T10974  -0.429   3.603  10.091 -1.8942 -0.9178 -1.4585
  107OSM    C9S10975  -0.556   3.787  10.104 -0.3548  0.0183  0.2534
  107OSM    H9S10976  -0.479   3.867  10.098  0.3721 -0.7166 -0.4972
  107OSM    H9T10977  -0.632   3.821  10.176 -0.0378 -0.1854  0.6886
  107OSM   C10S10978  -0.625   3.774   9.964 -0.4226 -1.4909 -0.0561
  107OSM   H10S10979  -0.704   3.851   9.962 -0.2558 -1.2696  1.3250
  107OSM   H10T10980  -0.671   3.674   9.948  0.9342 -2.1107 -0.2708
  107OSM   C11S10981  -0.529   3.798   9.850 -0.0238  0.1482 -0.5468
  107OSM   H11S10982  -0.454   3.716   9.855 -1.0812 -0.9310 -1.5605
  107OSM   H11T10983  -0.476   3.895   9.866 -1.3974  0.4223  3.2566
  107OSM   C12S10984  -0.596   3.787   9.715  0.6231  0.0947  0.1022
  107OSM   H12S10985  -0.677   3.863   9.703 -0.7282 -1.4597 -1.1315
  107OSM   H12T10986  -0.643   3.687   9.704  0.2992  0.1329  1.0265
  107OSM   C13S10987  -0.508   3.793   9.590 -0.7412  0.5180 -0.4812
  107OSM   H13S10988  -0.450   3.702   9.566  1.5171  1.4549  1.0260
  107OSM   H13T10989  -0.425   3.862   9.614  0.0639 -1.1207  1.7468
  107OSM   C14S10990  -0.592   3.848   9.467  0.1898 -0.4354 -0.0982
  107OSM   H14S10991  -0.646   3.938   9.505 -0.1359  0.6881 -2.9759
  107OSM   H14T10992  -0.667   3.775   9.431 -0.3851  0.1520 -0.1239
  107OSM   C15S10993  -0.508   3.891   9.348  0.3557  0.0981  0.3640
  107OSM   H15S10994  -0.440   3.808   9.320 -0.2473 -0.1455 -0.3844
  107OSM   H15T10995  -0.445   3.977   9.381 -2.0064  2.5304 -1.0107
  107OSM   C16S10996  -0.594   3.938   9.223 -0.7637 -0.5151  0.1743
  107OSM   H16S10997  -0.649   4.031   9.251 -2.4681 -2.1227  2.5745
  107OSM   H16T10998  -0.675   3.863   9.219  0.0285 -1.3933  0.4435
  107OSM   C17S10999  -0.504   3.940   9.101  0.6589 -0.1632 -0.0395
  107OSM   H17S11000  -0.432   3.856   9.091  0.8538  0.0033 -0.0286
  107OSM   H17T11001  -0.442   4.031   9.091  1.0300 -0.5224 -1.2329
  107OSM   C18S11002  -0.595   3.948   8.975  0.0741 -0.2384  0.0636
  107OSM   H18S11003  -0.645   4.047   8.969  1.8200  1.0482  3.7855
  107OSM   H18T11004  -0.671   3.868   8.988 -0.6555  0.5079  0.4457
  107OSM   H18U11005  -0.536   3.939   8.881  2.4457  1.3193  1.2941
  107OSM    C1F11006  -0.740   3.748  10.720 -0.0132 -0.2204 -0.3699
  107OSM     OF11007  -0.728   3.868  10.742  0.0643  0.0831 -0.2507
  107OSM    C2F11008  -0.877   3.683  10.690  0.7761 -0.2337  0.1227
  107OSM    H2F11009  -0.939   3.685  10.782 -0.0458 -2.4865 -0.3147
  107OSM    H2G11010  -0.863   3.573  10.681 -0.6054 -0.3698 -0.5240
  107OSM    C3F11011  -0.950   3.738  10.568  0.0775 -0.1531 -0.1852
  107OSM    H3F11012  -0.972   3.843  10.595  1.3045 -0.0864  0.6003
  107OSM    H3G11013  -1.047   3.683  10.568 -0.2791  0.2049  3.7175
  107OSM    C4F11014  -0.882   3.752  10.430 -0.0350 -0.3543 -0.0440
  107OSM    H4F11015  -0.847   3.655  10.388 -0.7842  0.1771 -2.0360
  107OSM    H4G11016  -0.797   3.821  10.442 -0.8569  0.4520  1.3869
  107OSM    C5F11017  -0.987   3.814  10.331 -0.4611  0.0019 -0.2771
  107OSM    H5F11018  -1.016   3.908  10.383 -2.0650 -1.1215  0.9552
  107OSM    H5G11019  -1.075   3.747  10.317  0.0335 -0.1949 -2.7825
  107OSM    C6F11020  -0.937   3.864  10.189  0.2405 -0.1907 -0.1234
  107OSM    H6F11021  -0.890   3.773  10.147  0.6349 -1.1087  2.1277
  107OSM    H6G11022  -0.861   3.944  10.199 -0.2610  1.0959 -4.6662
  107OSM    C7F11023  -1.043   3.923  10.092 -0.3106  0.0262 -0.5866
  107OSM    H7F11024  -1.119   3.966  10.161  0.4913  0.9147 -0.2353
  107OSM    H7G11025  -1.098   3.840  10.041 -0.4468 -1.4929  1.8904
  107OSM    C8F11026  -0.984   4.026   9.993  0.3469  0.1783  0.6463
  107OSM    H8F11027  -0.898   3.973   9.947  1.5894  2.0335  0.7258
  107OSM    H8G11028  -0.934   4.116  10.035 -0.8365  1.8095 -1.2381
  107OSM    C9F11029  -1.083   4.076   9.880 -0.1859  0.0407 -0.2215
  107OSM    H9F11030  -1.183   4.117   9.905 -0.5588  0.8605 -2.7737
  107OSM   C10F11031  -1.054   4.070   9.754 -0.4417  0.1167 -0.7231
  107OSM   H10F11032  -1.134   4.092   9.683 -1.9964  1.7296  1.3899
  107OSM   C11F11033  -0.918   4.027   9.692  0.6685  0.0854 -0.0807
  107OSM   H11F11034  -0.880   3.933   9.737  3.5321  1.7205  1.2286
  107OSM   H11G11035  -0.842   4.108   9.700  0.3645  0.3497  0.1673
  107OSM   C12F11036  -0.941   3.985   9.540  0.3562  0.0674  0.3305
  107OSM   H12F11037  -1.024   3.913   9.526  0.2450  0.4099 -0.9208
  107OSM   H12G11038  -0.849   3.933   9.504  0.3091  0.5510 -0.5262
  107OSM   C13F11039  -0.989   4.093   9.442  0.0359 -0.4048 -0.3316
  107OSM   H13F11040  -0.909   4.171   9.443  1.4688 -1.8212 -0.5167
  107OSM   H13G11041  -1.083   4.143   9.474  0.5364  0.9946 -0.9471
  107OSM   C14F11042  -1.005   4.041   9.304  0.1808  0.5900  0.7833
  107OSM   H14F11043  -1.036   3.934   9.301 -0.4544  0.7694  0.8329
  107OSM   H14G11044  -0.905   4.034   9.256 -1.5249 -3.5246 -2.9006
  107OSM   C15F11045  -1.088   4.130   9.209 -0.0401 -0.4202 -0.4395
  107OSM   H15F11046  -1.031   4.225   9.207  0.1022 -0.5176 -1.3829
  107OSM   H15G11047  -1.179   4.142   9.271  1.0847 -2.0328  1.6789
  107OSM   C16F11048  -1.138   4.072   9.078  0.0679 -0.3874  0.0694
  107OSM   H16F11049  -1.221   4.139   9.045  3.0217  2.7033 -1.7115
  107OSM   H16G11050  -1.177   3.969   9.093  1.1710 -0.7772  0.2971
  107OSM   C17F11051  -1.018   4.074   8.975  0.3658  0.0592  0.1900
  107OSM   H17F11052  -1.068   4.035   8.883  1.2168 -2.0406  0.5632
  107OSM   H17G11053  -0.934   4.008   9.004  2.4483  2.1143 -0.8685
  107OSM   C18F11054  -0.965   4.210   8.939 -0.1568 -0.1729 -0.2397
  107OSM   H18F11055  -1.035   4.272   8.879 -0.5090 -0.1054  0.2459
  107OSM   H18G11056  -0.877   4.191   8.872  0.9358  0.4855  0.9631
  107OSM   H18H11057  -0.924   4.264   9.027 -0.0265 -0.0533 -0.3720
  108OSM      N11058   3.536   1.978  11.182  0.2652 -0.6038  0.2539
  108OSM    C1511059   3.666   2.032  11.226 -0.4822 -0.1491  0.0210
  108OSM   H15A11060   3.693   2.121  11.171 -0.6960  0.7159  1.2890
  108OSM   H15B11061   3.752   1.968  11.210  0.3260  1.1684 -1.2212
  108OSM   H15C11062   3.667   2.061  11.330  0.3647 -4.2074  1.3035
  108OSM    C1411063   3.484   1.893  11.291  0.4811 -0.4264  0.3510
  108OSM   H14A11064   3.562   1.835  11.337  2.5402  1.0893 -1.0368
  108OSM   H14B11065   3.411   1.824  11.251  0.9319 -1.0368  0.5639
  108OSM   H14C11066   3.438   1.956  11.365 -0.7595 -1.9332  0.9061
  108OSM    C1311067   3.447   2.098  11.159  0.3730 -0.0214  0.1251
  108OSM   H13A11068   3.346   2.068  11.133  0.7787  0.1024 -1.7204
  108OSM   H13B11069   3.493   2.152  11.078 -0.8497  2.9744  1.2879
  108OSM   H13C11070   3.445   2.168  11.240 -1.5249  1.5099 -1.1444
  108OSM    C1211071   3.548   1.896  11.055 -0.2065 -0.0175  0.2237
  108OSM   H12A11072   3.625   1.825  11.079 -1.4104 -1.1667  0.8501
  108OSM   H12B11073   3.586   1.948  10.968  0.2090 -1.0704 -0.2397
  108OSM    C1111074   3.422   1.817  11.002 -0.4438  0.1860 -0.6080
  108OSM   H11A11075   3.438   1.775  10.900  1.0288  3.8696 -2.0590
  108OSM   H11B11076   3.344   1.896  11.003 -2.2443 -1.4584 -1.8019
  108OSM      P11077   3.444   1.566  11.085  0.0933  0.2442  0.3036
  108OSM    O1311078   3.580   1.568  11.135  0.3402  0.4229  0.5289
  108OSM    O1411079   3.353   1.469  11.152  0.3441  0.2892 -0.0727
  108OSM    O1111080   3.447   1.534  10.930  0.0001  0.1826  0.0886
  108OSM    O1211081   3.377   1.715  11.085 -0.0179 -0.3419 -0.0331
  108OSM    C1S11082   3.324   1.510  10.853 -0.4140  0.1907 -0.4061
  108OSM    H1S11083   3.239   1.562  10.901 -0.5169 -1.3101  1.1037
  108OSM    H1T11084   3.304   1.401  10.852  3.6166 -0.8679  3.5773
  108OSM     NF11085   3.230   1.519  10.629 -0.5820 -0.3546 -0.3294
  108OSM    HNF11086   3.249   1.443  10.568 -2.3867 -0.4789 -0.7893
  108OSM    C2S11087   3.353   1.555  10.706  0.2504 -0.0522  0.1618
  108OSM    H2S11088   3.359   1.666  10.715 -0.4184 -0.1158  1.6676
  108OSM    C3S11089   3.489   1.522  10.643 -0.3371  0.4757  0.8748
  108OSM    H3S11090   3.492   1.412  10.627  1.4481  0.4811  0.9502
  108OSM     O311091   3.599   1.527  10.730 -0.3922 -0.1337 -0.4286
  108OSM    HO311092   3.556   1.533  10.815  0.1021  2.1082 -0.2853
  108OSM    C4S11093   3.505   1.594  10.509  0.2566  0.3062  0.4379
  108OSM    H4S11094   3.470   1.529  10.427  0.6749 -0.1582  0.6220
  108OSM    C5S11095   3.560   1.716  10.492  0.7560  0.0037 -0.0141
  108OSM    H5S11096   3.609   1.753  10.583  0.6597 -0.3163  0.1663
  108OSM    C6S11097   3.578   1.787  10.363  0.2980  0.8555 -0.2297
  108OSM    H6S11098   3.675   1.840  10.378  0.4578  0.3690  0.5065
  108OSM    H6T11099   3.512   1.876  10.357  0.4155  0.9680  0.1195
  108OSM    C7S11100   3.588   1.714  10.231  0.0639  1.0545  0.6572
  108OSM    H7S11101   3.495   1.698  10.173 -0.0824 -0.3588  1.2524
  108OSM    H7T11102   3.636   1.614  10.227  0.4129  1.2673 -1.2868
  108OSM    C8S11103   3.654   1.804  10.124 -0.0030 -0.3046  0.5378
  108OSM    H8S11104   3.744   1.847  10.174  0.7251 -0.0787 -0.9022
  108OSM    H8T11105   3.588   1.890  10.098 -1.1862 -0.9406  1.3969
  108OSM    C9S11106   3.680   1.710  10.003  0.5737 -0.5828  0.4476
  108OSM    H9S11107   3.607   1.632   9.974  0.7962 -0.8950  0.7184
  108OSM    H9T11108   3.769   1.655  10.039  2.2924  1.8546  0.1445
  108OSM   C10S11109   3.714   1.787   9.877  0.1296  0.7460 -0.3581
  108OSM   H10S11110   3.794   1.863   9.887 -0.3312  1.3868 -1.3592
  108OSM   H10T11111   3.628   1.855   9.863  0.6779  2.0423  2.0447
  108OSM   C11S11112   3.740   1.682   9.765 -0.3150  0.2315  0.5963
  108OSM   H11S11113   3.679   1.590   9.777  1.5038 -1.4288 -1.8380
  108OSM   H11T11114   3.847   1.651   9.769 -0.1142  0.7066  5.2906
  108OSM   C12S11115   3.714   1.750   9.631  0.2770 -0.0898  0.5126
  108OSM   H12S11116   3.782   1.836   9.612  0.6671 -0.6314 -0.6744
  108OSM   H12T11117   3.610   1.787   9.631  0.5818  0.8857 -1.3961
  108OSM   C13S11118   3.733   1.647   9.515 -0.2953  0.5479  0.7846
  108OSM   H13S11119   3.680   1.553   9.542  0.1234  0.5618  1.7029
  108OSM   H13T11120   3.839   1.617   9.506  0.1291  1.8464  1.2273
  108OSM   C14S11121   3.676   1.691   9.377 -0.0981 -0.1891  0.0286
  108OSM   H14S11122   3.721   1.784   9.336  0.2618  0.0471  0.9262
  108OSM   H14T11123   3.567   1.710   9.390  0.0110  2.5595 -2.0824
  108OSM   C15S11124   3.690   1.584   9.265 -0.3561 -0.2570 -0.0817
  108OSM   H15S11125   3.620   1.501   9.284  1.3875 -2.0033 -0.9276
  108OSM   H15T11126   3.794   1.545   9.268  0.2779  1.3500  0.3264
  108OSM   C16S11127   3.669   1.639   9.119  0.2269  0.2834 -0.0889
  108OSM   H16S11128   3.719   1.736   9.097  0.8443  0.2072  0.9615
  108OSM   H16T11129   3.558   1.644   9.111  0.1454  0.6140  1.0373
  108OSM   C17S11130   3.699   1.534   9.000  0.0248 -0.7336  0.2758
  108OSM   H17S11131   3.702   1.437   9.054 -0.7368 -0.5693  0.6224
  108OSM   H17T11132   3.799   1.549   8.953 -1.3645  3.1317 -1.9061
  108OSM   C18S11133   3.597   1.541   8.880  0.2144  0.3504 -0.1238
  108OSM   H18S11134   3.496   1.498   8.900 -0.1817  0.6249 -1.4155
  108OSM   H18T11135   3.623   1.492   8.784  0.5781 -0.3366  0.3178
  108OSM   H18U11136   3.573   1.648   8.861  0.6056  0.3741 -0.4837
  108OSM    C1F11137   3.112   1.579  10.642 -0.1405  0.0409 -0.7370
  108OSM     OF11138   3.078   1.655  10.731  0.5114 -0.1630 -0.2628
  108OSM    C2F11139   3.001   1.543  10.547 -0.0182 -0.2061  0.2001
  108OSM    H2F11140   2.909   1.527  10.607  0.4446  1.7444  1.5409
  108OSM    H2G11141   3.018   1.442  10.504  2.1185 -0.3946  1.3737
  108OSM    C3F11142   2.977   1.652  10.435 -0.6568  0.0571 -1.0366
  108OSM    H3F11143   3.079   1.675  10.397  0.4454 -0.3017  1.4997
  108OSM    H3G11144   2.951   1.750  10.480  3.4302  0.2955  1.3212
  108OSM    C4F11145   2.897   1.599  10.312  0.4032 -0.0310 -0.1519
  108OSM    H4F11146   2.794   1.561  10.331 -0.6142  2.1261 -1.0612
  108OSM    H4G11147   2.944   1.505  10.277 -1.1506 -0.8104 -0.2285
  108OSM    C5F11148   2.879   1.700  10.189  0.5171  1.0166  0.0055
  108OSM    H5F11149   2.974   1.741  10.148 -0.3081  0.6379 -2.4171
  108OSM    H5G11150   2.811   1.781  10.222  1.0844  1.3241  0.4410
  108OSM    C6F11151   2.814   1.623  10.068  0.2358 -0.1512 -0.6254
  108OSM    H6F11152   2.786   1.710  10.005  1.3689  0.9688  0.3548
  108OSM    H6G11153   2.725   1.569  10.109 -0.8304 -0.6355 -3.3372
  108OSM    C7F11154   2.897   1.527   9.998  0.5712 -0.4714  0.0543
  108OSM    H7F11155   2.952   1.449  10.056  0.6453  0.0587  0.7060
  108OSM    H7G11156   2.978   1.574   9.938 -1.0308 -0.3421 -2.1045
  108OSM    C8F11157   2.800   1.449   9.903  0.8401 -0.2880  1.3170
  108OSM    H8F11158   2.742   1.520   9.840 -1.6305 -2.9957  0.2845
  108OSM    H8G11159   2.725   1.399   9.968 -1.1578  2.5047  1.3462
  108OSM    C9F11160   2.876   1.360   9.813 -0.5486  0.2054  0.0123
  108OSM    H9F11161   2.898   1.260   9.854  1.1286  0.0014 -1.2929
  108OSM   C10F11162   2.922   1.390   9.693  0.5662 -0.1558  0.8607
  108OSM   H10F11163   2.962   1.307   9.633  1.7177 -0.1642  1.6084
  108OSM   C11F11164   2.904   1.521   9.614  0.0703  0.0658  0.1032
  108OSM   H11F11165   2.997   1.546   9.560 -0.3016  0.3172 -0.4347
  108OSM   H11G11166   2.893   1.610   9.679  0.0530 -0.7641  1.2518
  108OSM   C12F11167   2.794   1.517   9.506 -0.2481 -0.7238  0.4045
  108OSM   H12F11168   2.699   1.559   9.546 -0.2389  1.9838 -2.0926
  108OSM   H12G11169   2.771   1.412   9.477 -2.3017  0.0539 -1.0604
  108OSM   C13F11170   2.832   1.600   9.386 -0.5273 -0.0463 -0.1065
  108OSM   H13F11171   2.891   1.687   9.422  2.7575 -1.2361 -2.1361
  108OSM   H13G11172   2.738   1.621   9.330  0.5933 -2.2167 -3.0414
  108OSM   C14F11173   2.926   1.519   9.293  0.0154 -0.2935  0.5049
  108OSM   H14F11174   2.981   1.446   9.355  1.9164 -1.5062 -2.4211
  108OSM   H14G11175   2.994   1.587   9.238  0.4536 -0.6094  0.6541
  108OSM   C15F11176   2.843   1.432   9.206  0.1897  0.3616 -0.3459
  108OSM   H15F11177   2.736   1.444   9.233  0.9078  1.7321  2.3009
  108OSM   H15G11178   2.878   1.327   9.218  0.5588  0.4181 -0.8793
  108OSM   C16F11179   2.868   1.481   9.069 -0.0253  0.1727  0.3290
  108OSM   H16F11180   2.978   1.489   9.052  0.0998 -0.0963  0.9818
  108OSM   H16G11181   2.828   1.585   9.062 -1.5561 -0.2992  1.5431
  108OSM   C17F11182   2.814   1.381   8.960  0.0484  0.2173  0.4585
  108OSM   H17F11183   2.704   1.387   8.973 -0.3067 -2.2342 -0.9436
  108OSM   H17G11184   2.829   1.272   8.978 -0.4299  0.1658  0.5700
  108OSM   C18F11185   2.860   1.421   8.821  0.3028  0.6134  0.9435
  108OSM   H18F11186   2.819   1.353   8.743  0.7631  2.1953 -0.7773
  108OSM   H18G11187   2.971   1.413   8.813  0.2996  1.1618  0.1769
  108OSM   H18H11188   2.823   1.522   8.791 -0.3499  0.3628  0.8842
  109OSM      N11189   3.011   3.527  10.877  0.9219 -0.0015  0.1566
  109OSM    C1511190   3.128   3.520  10.963  0.3506 -0.2286 -0.7545
  109OSM   H15A11191   3.102   3.499  11.066  0.1389  0.6897 -0.6126
  109OSM   H15B11192   3.181   3.614  10.958  1.3494 -0.6637  0.8807
  109OSM   H15C11193   3.185   3.430  10.942 -1.2953 -1.8315  1.2061
  109OSM    C1411194   2.921   3.415  10.918 -0.0698 -0.1530 -0.2176
  109OSM   H14A11195   2.969   3.320  10.903  3.5329  1.6350 -1.5002
  109OSM   H14B11196   2.826   3.405  10.869  0.2561 -3.1081 -0.4272
  109OSM   H14C11197   2.889   3.422  11.021 -0.0671 -0.0128 -0.2247
  109OSM    C1311198   2.945   3.660  10.896 -0.6811 -0.0196  0.3817
  109OSM   H13A11199   2.914   3.684  10.997 -0.3588  1.5536  0.1301
  109OSM   H13B11200   2.856   3.669  10.835  0.2389 -0.5639 -1.1080
  109OSM   H13C11201   3.018   3.737  10.876 -1.4618  0.7250  0.3245
  109OSM    C1211202   3.048   3.505  10.732 -0.5161 -0.5950  0.5976
  109OSM   H12A11203   2.957   3.526  10.679  0.7361  1.8519 -0.7822
  109OSM   H12B11204   3.072   3.401  10.715  0.9044 -0.0196 -1.3165
  109OSM    C1111205   3.147   3.603  10.662 -0.2274 -0.1540 -0.0957
  109OSM   H11A11206   3.102   3.704  10.671 -0.0465 -0.0976  0.1943
  109OSM   H11B11207   3.154   3.576  10.555  0.2615 -0.6906  0.0657
  109OSM      P11208   3.411   3.566  10.666 -0.1240 -0.3459 -0.0403
  109OSM    O1311209   3.509   3.671  10.715 -0.4727  0.2302  0.2835
  109OSM    O1411210   3.437   3.424  10.693  0.9081 -0.1286 -0.1082
  109OSM    O1111211   3.391   3.582  10.513  0.0626  0.4484 -0.3465
  109OSM    O1211212   3.273   3.597  10.729 -0.3573 -0.1463 -0.8894
  109OSM    C1S11213   3.411   3.711  10.447 -0.1009  0.8798 -0.4838
  109OSM    H1S11214   3.503   3.765  10.478  0.4857  2.1998 -4.1141
  109OSM    H1T11215   3.326   3.777  10.472  0.1679  0.8805  0.4892
  109OSM     NF11216   3.509   3.786  10.226  0.4075  0.3438 -0.8013
  109OSM    HNF11217   3.462   3.859  10.178  2.2516  1.3548 -1.1467
  109OSM    C2S11218   3.429   3.683  10.292  0.2847  0.3655  0.6694
  109OSM    H2S11219   3.481   3.585  10.279 -0.0353  0.4683 -1.8252
  109OSM    C3S11220   3.280   3.657  10.231 -0.2672  0.2715  0.2666
  109OSM    H3S11221   3.226   3.754  10.240 -1.6354 -0.4381 -0.0401
  109OSM     O311222   3.215   3.555  10.300  0.2232 -0.4502 -0.8092
  109OSM    HO311223   3.277   3.527  10.367 -1.0271 -1.4670 -0.0231
  109OSM    C4S11224   3.288   3.614  10.086  0.3917  0.0215  0.5629
  109OSM    H4S11225   3.378   3.552  10.071  0.7687  0.5648  0.5550
  109OSM    C5S11226   3.221   3.678   9.987  0.7167  0.3636  0.1703
  109OSM    H5S11227   3.169   3.772  10.012  2.3938  0.9460  1.6348
  109OSM    C6S11228   3.243   3.643   9.839 -0.2400  0.1682 -0.2529
  109OSM    H6S11229   3.175   3.689   9.764  1.3887  2.2916 -0.5276
  109OSM    H6T11230   3.218   3.535   9.833 -2.4628  0.6155  0.3817
  109OSM    C7S11231   3.394   3.644   9.782  0.0964 -0.3653 -0.1472
  109OSM    H7S11232   3.470   3.585   9.837  0.1116 -0.1916  0.0179
  109OSM    H7T11233   3.425   3.751   9.783 -2.0621  0.3016 -0.1933
  109OSM    C8S11234   3.410   3.599   9.636  0.9021  0.2703  0.5149
  109OSM    H8S11235   3.397   3.489   9.634 -2.5440  0.5380  2.0676
  109OSM    H8T11236   3.504   3.628   9.584  0.7793  1.0904  0.7296
  109OSM    C9S11237   3.291   3.642   9.547 -0.1485 -0.2435 -0.1680
  109OSM    H9S11238   3.283   3.752   9.554  0.0438 -0.1880 -0.7379
  109OSM    H9T11239   3.196   3.591   9.573 -0.5095  0.4181 -0.1781
  109OSM   C10S11240   3.325   3.621   9.396  0.2492 -0.5057 -0.8330
  109OSM   H10S11241   3.228   3.656   9.353 -0.2020  0.0038  0.5029
  109OSM   H10T11242   3.342   3.515   9.370 -1.8052 -1.0630 -0.1739
  109OSM   C11S11243   3.444   3.692   9.345  0.8924  0.0455  0.5202
  109OSM   H11S11244   3.538   3.641   9.374  0.3610 -1.4924 -0.3469
  109OSM   H11T11245   3.446   3.796   9.384  0.2525  0.0869  0.4494
  109OSM   C12S11246   3.434   3.700   9.194 -0.5750 -0.1436 -0.2630
  109OSM   H12S11247   3.342   3.757   9.171 -0.0758 -0.4504 -3.4629
  109OSM   H12T11248   3.427   3.609   9.130 -0.4284 -0.8190  0.6599
  109OSM   C13S11249   3.538   3.802   9.127 -0.3437  0.3532 -0.8095
  109OSM   H13S11250   3.623   3.811   9.198  0.3377 -1.5910 -1.3299
  109OSM   H13T11251   3.485   3.898   9.104 -0.9328 -0.3568 -2.5515
  109OSM   C14S11252   3.600   3.744   9.000 -0.5160 -0.3528  0.5403
  109OSM   H14S11253   3.516   3.718   8.932 -0.8393  1.9148 -0.0163
  109OSM   H14T11254   3.654   3.653   9.032  2.3524  0.8907 -0.3953
  109OSM   C15S11255   3.688   3.850   8.930 -0.2660  0.3083  1.0004
  109OSM   H15S11256   3.772   3.884   8.995  1.3020 -1.4047 -0.0154
  109OSM   H15T11257   3.626   3.939   8.908  0.7937  0.2400 -3.0530
  109OSM   C16S11258   3.747   3.791   8.801 -0.2954  0.0714  0.5834
  109OSM   H16S11259   3.671   3.778   8.721  0.8170  3.1669 -1.1406
  109OSM   H16T11260   3.784   3.690   8.828  0.6678 -0.0809 -1.2025
  109OSM   C17S11261   3.864   3.879   8.749 -0.8024  0.1712  0.2448
  109OSM   H17S11262   3.924   3.822   8.675 -2.8894 -1.9366  0.0365
  109OSM   H17T11263   3.932   3.906   8.833 -0.0284 -0.5555 -0.1287
  109OSM   C18S11264   3.822   4.005   8.682 -0.9013 -0.1673 -0.1136
  109OSM   H18S11265   3.914   4.065   8.667 -1.1245  0.0845 -0.4674
  109OSM   H18T11266   3.749   4.060   8.745 -1.4837  0.5210 -1.3669
  109OSM   H18U11267   3.765   3.979   8.591 -2.9060 -1.4777  1.4225
  109OSM    C1F11268   3.640   3.801  10.248  1.0479  0.2305 -0.3426
  109OSM     OF11269   3.692   3.709  10.315 -0.0966 -0.3311 -0.2062
  109OSM    C2F11270   3.704   3.925  10.197 -0.3911 -0.0419 -0.1836
  109OSM    H2F11271   3.655   4.014  10.242 -2.3446 -0.4043 -1.4859
  109OSM    H2G11272   3.685   3.933  10.088 -0.5618  2.2277 -0.0507
  109OSM    C3F11273   3.854   3.934  10.230  0.2766 -0.9614  0.5423
  109OSM    H3F11274   3.905   3.841  10.196  0.3899 -0.2513 -1.3423
  109OSM    H3G11275   3.869   3.934  10.340  0.2941  1.3331  0.5849
  109OSM    C4F11276   3.917   4.059  10.165  0.4374  0.1293  0.6938
  109OSM    H4F11277   4.021   4.063  10.204  0.5249 -1.1986  0.6592
  109OSM    H4G11278   3.856   4.147  10.194  0.4669 -0.1961  1.8067
  109OSM    C5F11279   3.926   4.053  10.014 -0.8040  0.3051  0.2404
  109OSM    H5F11280   3.827   4.056   9.963 -0.4348 -1.1330 -0.6359
  109OSM    H5G11281   3.982   3.963   9.981 -3.4377 -0.9601 -1.1510
  109OSM    C6F11282   4.006   4.178   9.948 -0.1289 -0.0456 -0.2965
  109OSM    H6F11283   4.089   4.198  10.019 -0.0397  0.9295 -0.6526
  109OSM    H6G11284   3.933   4.263   9.951  1.2977  1.2559 -0.8775
  109OSM    C7F11285   4.063   4.169   9.802  0.6618 -0.9016  0.6706
  109OSM    H7F11286   4.142   4.091   9.805 -0.4818 -2.2094 -1.3129
  109OSM    H7G11287   4.100   4.271   9.781 -0.1481 -1.0204 -1.6538
  109OSM    C8F11288   3.970   4.131   9.690 -0.1999 -0.3515 -0.5198
  109OSM    H8F11289   3.918   4.036   9.715 -2.0518 -0.1945 -3.3070
  109OSM    H8G11290   4.040   4.098   9.610  0.7684  0.4790 -0.0402
  109OSM    C9F11291   3.869   4.235   9.655 -0.6217  0.0047  0.5487
  109OSM    H9F11292   3.827   4.283   9.745  3.3684  0.5392  2.3485
  109OSM   C10F11293   3.823   4.280   9.534 -0.7234  1.1164 -1.3721
  109OSM   H10F11294   3.745   4.357   9.528  0.0911  1.9784 -1.2064
  109OSM   C11F11295   3.876   4.226   9.404 -0.0110  0.7459 -0.3630
  109OSM   H11F11296   3.811   4.139   9.382  1.2211 -0.6433  1.1774
  109OSM   H11G11297   3.979   4.186   9.409 -1.1343 -2.3714 -0.2883
  109OSM   C12F11298   3.869   4.324   9.292  0.2573 -0.5687  0.7388
  109OSM   H12F11299   3.943   4.403   9.317 -0.2984 -0.3236  1.6669
  109OSM   H12G11300   3.767   4.367   9.295  0.1055 -0.9248  0.7223
  109OSM   C13F11301   3.881   4.267   9.149  0.3754 -0.5767 -0.2401
  109OSM   H13F11302   3.790   4.209   9.123 -1.4700  2.0389  0.0816
  109OSM   H13G11303   3.973   4.205   9.141  1.5741  1.2246 -1.1341
  109OSM   C14F11304   3.868   4.379   9.047 -0.0894  0.4852 -0.0807
  109OSM   H14F11305   3.943   4.459   9.063  0.2088  0.1542  0.1673
  109OSM   H14G11306   3.767   4.418   9.071  1.2503  3.5193  1.0974
  109OSM   C15F11307   3.885   4.333   8.895 -0.4017 -0.4919 -0.9697
  109OSM   H15F11308   3.874   4.223   8.894  1.9507 -0.7678 -0.6580
  109OSM   H15G11309   3.989   4.340   8.857 -0.9058 -0.3057 -2.4105
  109OSM   C16F11310   3.802   4.422   8.800  0.9821  0.0810  0.4282
  109OSM   H16F11311   3.813   4.530   8.825  2.5331 -0.3018  1.5126
  109OSM   H16G11312   3.700   4.389   8.829  0.5900  1.6170  0.9174
  109OSM   C17F11313   3.831   4.417   8.651  0.1294  0.1446  0.0724
  109OSM   H17F11314   3.844   4.310   8.624  1.3610  0.5282 -0.9583
  109OSM   H17G11315   3.932   4.457   8.629  0.0562  0.5535  0.4717
  109OSM   C18F11316   3.729   4.500   8.569  0.1648 -0.0968 -0.7685
  109OSM   H18F11317   3.624   4.469   8.589  0.6029 -1.3009 -0.3024
  109OSM   H18G11318   3.744   4.492   8.459 -1.6817  4.3815 -1.5706
  109OSM   H18H11319   3.739   4.608   8.594  1.1628 -0.0629 -1.2766
  110OSM      N11320   5.644   2.577  11.109 -0.0708 -0.5799  0.0722
  110OSM    C1511321   5.744   2.518  11.021  0.2623 -0.5471 -0.1432
  110OSM   H15A11322   5.841   2.553  11.054 -0.7809  2.6697 -0.1235
  110OSM   H15B11323   5.738   2.563  10.923  1.7892 -1.4801 -0.7150
  110OSM   H15C11324   5.727   2.412  11.005 -0.5044 -0.4038 -0.3059
  110OSM    C1411325   5.655   2.497  11.238 -0.1692  0.3215 -0.3697
  110OSM   H14A11326   5.627   2.394  11.217  0.1001  0.6124 -2.3700
  110OSM   H14B11327   5.574   2.533  11.300 -1.0315  1.2777 -1.9820
  110OSM   H14C11328   5.752   2.502  11.286  0.7103  0.1452 -2.0588
  110OSM    C1311329   5.680   2.717  11.146  0.2672 -0.2931 -0.1494
  110OSM   H13A11330   5.604   2.740  11.218  1.4407 -0.5959  1.2297
  110OSM   H13B11331   5.666   2.783  11.062 -1.2928  2.4248  2.0811
  110OSM   H13C11332   5.774   2.728  11.197 -0.8782 -0.0520  2.0073
  110OSM    C1211333   5.502   2.572  11.046 -0.7075  0.0759 -0.0549
  110OSM   H12A11334   5.491   2.471  11.010  3.0361 -1.1300  1.6458
  110OSM   H12B11335   5.503   2.631  10.956  4.2161 -1.4022 -1.3196
  110OSM    C1111336   5.393   2.618  11.134  0.2554 -0.3334 -0.6798
  110OSM   H11A11337   5.395   2.592  11.243 -0.5015  0.1462 -0.5433
  110OSM   H11B11338   5.300   2.567  11.101  0.0869 -0.7338  0.3726
  110OSM      P11339   5.306   2.823  11.000 -0.1404 -0.8052  0.5341
  110OSM    O1311340   5.164   2.797  11.005 -0.3784 -0.4990  0.1163
  110OSM    O1411341   5.354   2.963  10.996 -0.2154 -0.0658 -0.0325
  110OSM    O1111342   5.364   2.743  10.876  0.5228  0.0388  0.4426
  110OSM    O1211343   5.379   2.760  11.124  0.1100 -0.0842  0.0392
  110OSM    C1S11344   5.465   2.812  10.802  0.2300 -0.3810  0.4053
  110OSM    H1S11345   5.564   2.809  10.853  0.3443  0.4978  0.2567
  110OSM    H1T11346   5.431   2.917  10.786  1.1683 -0.1223  0.0169
  110OSM     NF11347   5.631   2.797  10.614 -0.3652  0.1509  0.0301
  110OSM    HNF11348   5.648   2.882  10.565  0.1640  0.1366  0.1735
  110OSM    C2S11349   5.494   2.759  10.653 -0.6277 -0.0663 -0.0897
  110OSM    H2S11350   5.497   2.648  10.658 -0.4552 -0.2191 -2.3885
  110OSM    C3S11351   5.376   2.817  10.570 -0.6912  0.0071  0.5043
  110OSM    H3S11352   5.399   2.926  10.562  0.3829 -0.1678  1.0251
  110OSM     O311353   5.247   2.800  10.633  0.4695  0.5622 -0.4619
  110OSM    HO311354   5.271   2.789  10.725 -0.2865 -0.0618 -0.3299
  110OSM    C4S11355   5.385   2.768  10.431 -0.2277 -0.2003  1.4468
  110OSM    H4S11356   5.395   2.659  10.426 -2.1928 -0.3974  1.1281
  110OSM    C5S11357   5.386   2.848  10.324  0.6098 -0.4042 -0.1476
  110OSM    H5S11358   5.387   2.952  10.360 -0.5423 -1.2442  2.5576
  110OSM    C6S11359   5.399   2.820  10.182  0.1161  0.1804 -0.6183
  110OSM    H6S11360   5.353   2.893  10.112 -2.1611  0.8820  1.4711
  110OSM    H6T11361   5.356   2.722  10.152 -0.2691  0.7192 -1.8998
  110OSM    C7S11362   5.548   2.803  10.163  0.4249 -0.1549 -0.8978
  110OSM    H7S11363   5.588   2.737  10.242 -2.1970  1.2589  1.8112
  110OSM    H7T11364   5.600   2.899  10.187 -2.4772  0.6257  3.3437
  110OSM    C8S11365   5.586   2.750  10.020  0.3024  0.4673  0.7344
  110OSM    H8S11366   5.572   2.829   9.943  1.5302 -0.0523 -0.0652
  110OSM    H8T11367   5.528   2.660   9.991  2.6643 -0.5833 -1.0955
  110OSM    C9S11368   5.733   2.697  10.014  0.6732  0.0153  0.1613
  110OSM    H9S11369   5.738   2.614   9.940 -1.0779 -1.0489  1.1697
  110OSM    H9T11370   5.753   2.637  10.106 -0.0670  0.1694  0.4242
  110OSM   C10S11371   5.832   2.818  10.001 -0.2829  0.0161  0.8267
  110OSM   H10S11372   5.932   2.795  10.045  0.3277  2.4226  0.8294
  110OSM   H10T11373   5.802   2.910  10.057 -0.0736 -0.2321  1.3578
  110OSM   C11S11374   5.851   2.846   9.850 -0.3166  0.2586  0.2396
  110OSM   H11S11375   5.816   2.950   9.831 -0.0534  0.3575  0.2947
  110OSM   H11T11376   5.791   2.779   9.785  1.2815 -0.1086 -0.8998
  110OSM   C12S11377   5.996   2.828   9.810  0.4038 -1.0559 -0.6103
  110OSM   H12S11378   6.038   2.738   9.862 -0.1772  0.5323  2.9054
  110OSM   H12T11379   6.043   2.918   9.856 -0.9610  0.0936 -1.3925
  110OSM   C13S11380   6.018   2.819   9.658  0.4251 -0.2888  0.0405
  110OSM   H13S11381   5.922   2.819   9.602  1.5115  1.4355 -1.9613
  110OSM   H13T11382   6.064   2.721   9.630  1.2714 -0.1323  0.8269
  110OSM   C14S11383   6.100   2.933   9.611  0.9219 -0.2878  0.4193
  110OSM   H14S11384   6.179   2.948   9.687  0.9927  0.5033  0.1960
  110OSM   H14T11385   6.044   3.029   9.618  0.3638 -0.6138  0.5356
  110OSM   C15S11386   6.147   2.914   9.465 -0.4362  0.2409  0.6694
  110OSM   H15S11387   6.052   2.908   9.406 -1.2354  2.7678  1.5683
  110OSM   H15T11388   6.195   2.814   9.468  1.4621  1.1208  4.0180
  110OSM   C16S11389   6.244   3.023   9.414  0.3047  0.6856 -0.4506
  110OSM   H16S11390   6.328   3.040   9.485  0.3772 -2.2207  0.3190
  110OSM   H16T11391   6.175   3.110   9.408 -0.4798  0.2226  1.1756
  110OSM   C17S11392   6.302   2.982   9.276  0.5705  0.8691 -0.5533
  110OSM   H17S11393   6.231   2.980   9.191  1.0017  0.0397 -0.8940
  110OSM   H17T11394   6.321   2.873   9.287  0.0733  0.8723  0.5739
  110OSM   C18S11395   6.424   3.069   9.248 -0.1376 -0.1482  0.0739
  110OSM   H18S11396   6.399   3.175   9.266 -2.5886 -1.0805  3.2095
  110OSM   H18T11397   6.456   3.045   9.144  1.9685 -2.0067  1.0663
  110OSM   H18U11398   6.503   3.034   9.318 -0.3584 -2.5111 -0.7431
  110OSM    C1F11399   5.752   2.736  10.648  1.0446 -0.3920 -0.3429
  110OSM     OF11400   5.749   2.640  10.722  0.1596 -0.9435 -0.0979
  110OSM    C2F11401   5.880   2.800  10.602 -0.3108 -0.7654  0.9531
  110OSM    H2F11402   5.914   2.869  10.682 -2.6637 -0.1889  1.5509
  110OSM    H2G11403   5.861   2.860  10.510  0.4602  2.5291  2.7735
  110OSM    C3F11404   5.995   2.705  10.569  0.0546  0.8266  0.3158
  110OSM    H3F11405   6.014   2.637  10.654 -0.6161 -0.8064 -0.7971
  110OSM    H3G11406   6.084   2.771  10.557  0.5539  0.4982  2.0561
  110OSM    C4F11407   5.972   2.623  10.437  0.1711 -0.7578 -0.1834
  110OSM    H4F11408   5.966   2.691  10.350 -0.8097  0.6760  0.9533
  110OSM    H4G11409   5.873   2.573  10.436  0.1349 -0.6827 -0.4033
  110OSM    C5F11410   6.084   2.522  10.429  0.2187  0.0429 -0.3816
  110OSM    H5F11411   6.058   2.454  10.513 -1.3439  0.9098 -0.1323
  110OSM    H5G11412   6.177   2.580  10.442 -0.5632  1.1406  0.5639
  110OSM    C6F11413   6.065   2.443  10.294 -0.4776 -0.4294 -0.5775
  110OSM    H6F11414   5.967   2.392  10.303 -0.9911  0.7175  0.7167
  110OSM    H6G11415   6.149   2.371  10.293 -0.9296 -1.0009  0.6506
  110OSM    C7F11416   6.072   2.519  10.157 -0.4268  0.4961  0.2234
  110OSM    H7F11417   6.170   2.571  10.150  0.4163 -1.2750 -3.0186
  110OSM    H7G11418   5.993   2.595  10.141 -0.6352  0.3576  0.5995
  110OSM    C8F11419   6.085   2.427  10.029  0.2247  0.8094  0.6487
  110OSM    H8F11420   6.166   2.353  10.047  0.1925  0.7916  0.7228
  110OSM    H8G11421   6.121   2.491   9.946 -1.7780 -0.1175 -1.0258
  110OSM    C9F11422   5.949   2.374   9.992  0.3358  0.4452 -0.1797
  110OSM    H9F11423   5.871   2.373  10.069 -0.1873 -2.4336 -0.6682
  110OSM   C10F11424   5.915   2.333   9.873 -0.0083  0.7589 -0.0095
  110OSM   H10F11425   5.811   2.303   9.850  0.7745 -0.7404 -1.7900
  110OSM   C11F11426   6.010   2.317   9.754  0.3894  0.1901 -0.3192
  110OSM   H11F11427   5.998   2.214   9.715  1.2734  0.0225 -0.1588
  110OSM   H11G11428   6.116   2.334   9.783 -0.0757 -0.1318  1.7538
  110OSM   C12F11429   5.965   2.417   9.647 -0.0403 -0.3936  0.3183
  110OSM   H12F11430   5.968   2.519   9.691 -0.2142  0.0399 -0.6417
  110OSM   H12G11431   5.861   2.406   9.610  0.3295 -2.4102 -0.2434
  110OSM   C13F11432   6.050   2.420   9.519  0.0670 -0.2464  0.6212
  110OSM   H13F11433   6.085   2.318   9.495 -1.3277 -0.4956 -0.4304
  110OSM   H13G11434   6.146   2.471   9.543 -0.7843  1.2511  0.9466
  110OSM   C14F11435   5.982   2.485   9.398 -0.0756 -0.2620 -0.1281
  110OSM   H14F11436   5.958   2.589   9.430  1.4765  1.0205 -2.7588
  110OSM   H14G11437   5.897   2.419   9.369  0.6806 -1.1963 -0.2696
  110OSM   C15F11438   6.084   2.496   9.283  0.0216 -0.3391  0.3402
  110OSM   H15F11439   6.160   2.574   9.306 -1.7820  1.5626  0.1253
  110OSM   H15G11440   6.033   2.520   9.187 -1.9124 -2.4369  0.7566
  110OSM   C16F11441   6.166   2.372   9.242  0.6847  0.1960 -0.6459
  110OSM   H16F11442   6.213   2.331   9.333 -0.5765 -0.4523 -0.2647
  110OSM   H16G11443   6.238   2.418   9.170  0.3547  0.6514 -0.6887
  110OSM   C17F11444   6.076   2.267   9.180 -0.2362  0.1091  0.1970
  110OSM   H17F11445   6.060   2.286   9.072  1.1678  1.1634  0.1525
  110OSM   H17G11446   5.978   2.280   9.232  0.2343  2.1493  0.6454
  110OSM   C18F11447   6.133   2.125   9.186  0.2948  0.8999 -0.0438
  110OSM   H18F11448   6.160   2.100   9.291 -1.7114  0.8586  0.5123
  110OSM   H18G11449   6.226   2.105   9.129  0.1956 -0.1116  0.1409
  110OSM   H18H11450   6.060   2.048   9.151 -0.1941  0.6616  1.4291
  111OSM      N11451   5.595   6.062  10.961 -0.0350 -0.1323  0.0075
  111OSM    C1511452   5.492   6.156  11.023  0.2615 -0.5065 -0.3979
  111OSM   H15A11453   5.552   6.242  11.047  1.0341 -0.3029 -2.7996
  111OSM   H15B11454   5.446   6.116  11.112  0.2683 -2.2487 -1.1137
  111OSM   H15C11455   5.414   6.196  10.960  0.8682  3.4628  1.0970
  111OSM    C1411456   5.660   6.134  10.848 -0.0346  0.0493  0.0684
  111OSM   H14A11457   5.582   6.179  10.788  0.4399  2.6103  1.1972
  111OSM   H14B11458   5.720   6.062  10.795  0.7215 -0.7256  1.9167
  111OSM   H14C11459   5.716   6.219  10.884  0.0025  0.0610 -0.0147
  111OSM    C1311460   5.694   6.016  11.070  0.2964  0.2394  0.3597
  111OSM   H13A11461   5.642   5.952  11.139 -3.0582  0.4661 -1.7125
  111OSM   H13B11462   5.713   6.108  11.123  0.5690  1.0580 -1.0999
  111OSM   H13C11463   5.779   5.963  11.028 -0.5679  0.5121 -1.8884
  111OSM    C1211464   5.524   5.944  10.907 -0.2764  0.1082 -0.0101
  111OSM   H12A11465   5.439   5.988  10.857  0.2184  2.0983  0.8095
  111OSM   H12B11466   5.465   5.895  10.983 -2.2981  1.9916 -0.2748
  111OSM    C1111467   5.602   5.848  10.809  0.3146  0.0533 -0.3595
  111OSM   H11A11468   5.617   5.902  10.713 -4.0739 -0.0043 -1.2636
  111OSM   H11B11469   5.545   5.756  10.785  3.2178 -2.4497  1.5564
  111OSM      P11470   5.872   5.834  10.799  0.2257 -0.4901 -0.0354
  111OSM    O1311471   5.956   5.890  10.909 -0.3258  0.0827 -0.1804
  111OSM    O1411472   5.923   5.719  10.725  0.5202 -0.3360  0.2035
  111OSM    O1111473   5.848   5.950  10.690 -0.4266  0.1527 -0.0542
  111OSM    O1211474   5.732   5.804  10.867 -0.0829  0.0483  0.1610
  111OSM    C1S11475   5.814   5.919  10.554  0.1596  0.0386 -0.5918
  111OSM    H1S11476   5.725   5.853  10.541 -1.0155  1.5410 -0.5458
  111OSM    H1T11477   5.904   5.871  10.510  0.7897 -0.8049  1.4734
  111OSM     NF11478   5.732   6.023  10.342  0.0327  0.0011  0.0231
  111OSM    HNF11479   5.799   6.047  10.272  0.8121  1.3558  1.1656
  111OSM    C2S11480   5.772   6.052  10.477  0.4008  0.0614 -0.0565
  111OSM    H2S11481   5.689   6.102  10.531 -0.1531 -0.9117  0.0243
  111OSM    C3S11482   5.890   6.150  10.490  0.7284  0.3341  0.5778
  111OSM    H3S11483   5.975   6.091  10.450 -0.0607 -0.7220  0.3832
  111OSM     O311484   5.912   6.186  10.628  0.2411  0.8171  0.6722
  111OSM    HO311485   5.889   6.099  10.662  2.2305  0.5698  1.5652
  111OSM    C4S11486   5.861   6.277  10.422 -0.2861  0.0031  0.0176
  111OSM    H4S11487   5.835   6.357  10.493  0.7393 -0.5462  1.0490
  111OSM    C5S11488   5.881   6.305  10.292  0.1304 -0.3529 -0.1240
  111OSM    H5S11489   5.923   6.229  10.225  0.1707  0.0778 -0.5989
  111OSM    C6S11490   5.868   6.438  10.226 -0.8810 -0.1865 -0.0592
  111OSM    H6S11491   5.971   6.478  10.216  0.6670 -3.8782 -0.6926
  111OSM    H6T11492   5.814   6.513  10.287 -0.7395 -0.7314  0.7543
  111OSM    C7S11493   5.795   6.432  10.092  0.5209 -0.7493 -0.9169
  111OSM    H7S11494   5.802   6.532  10.044  1.1426 -1.4305 -2.2758
  111OSM    H7T11495   5.687   6.411  10.106  0.3398 -0.4434 -1.8234
  111OSM    C8S11496   5.844   6.335   9.990  0.8074 -0.2149  0.2850
  111OSM    H8S11497   5.853   6.236  10.041 -0.5402 -0.0984  0.7880
  111OSM    H8T11498   5.949   6.365   9.968  0.2767  1.4898 -0.0104
  111OSM    C9S11499   5.759   6.320   9.873  0.4970 -0.1775  0.3688
  111OSM    H9S11500   5.742   6.424   9.838  1.4093  0.5282  1.9012
  111OSM    H9T11501   5.654   6.287   9.889  0.0196  0.4807 -1.2465
  111OSM   C10S11502   5.818   6.233   9.751  0.1014 -0.7432 -0.5566
  111OSM   H10S11503   5.816   6.128   9.786 -1.8042 -1.5511 -2.8155
  111OSM   H10T11504   5.925   6.259   9.733 -0.0012 -0.6730 -1.0636
  111OSM   C11S11505   5.739   6.243   9.618 -0.4263 -0.1381 -0.2640
  111OSM   H11S11506   5.631   6.231   9.642 -0.0188 -0.8238  1.3303
  111OSM   H11T11507   5.776   6.171   9.543 -2.0917 -0.1494 -1.1157
  111OSM   C12S11508   5.748   6.376   9.533 -0.4444  0.0263 -0.3648
  111OSM   H12S11509   5.855   6.407   9.534 -0.1899 -0.5641  3.0017
  111OSM   H12T11510   5.688   6.451   9.588 -0.9505 -0.8607  0.3303
  111OSM   C13S11511   5.690   6.374   9.390 -0.1025  0.0854 -0.4983
  111OSM   H13S11512   5.702   6.471   9.338  1.7148 -1.0767 -2.3630
  111OSM   H13T11513   5.579   6.362   9.386  0.0442 -1.1500 -4.4036
  111OSM   C14S11514   5.760   6.271   9.296 -0.2351 -0.3857  0.3244
  111OSM   H14S11515   5.784   6.177   9.351  0.3541 -0.8171 -0.6463
  111OSM   H14T11516   5.861   6.305   9.266 -0.1979 -0.5375  0.2753
  111OSM   C15S11517   5.686   6.237   9.160 -0.6015  0.7505 -0.7041
  111OSM   H15S11518   5.585   6.201   9.190  0.5406 -0.1868  2.4116
  111OSM   H15T11519   5.744   6.161   9.103  2.6640  2.5782 -0.0476
  111OSM   C16S11520   5.669   6.356   9.066 -0.2452 -0.3291  0.1587
  111OSM   H16S11521   5.747   6.435   9.077  1.3093 -1.2075 -3.2832
  111OSM   H16T11522   5.574   6.400   9.104 -0.2986 -1.0711  0.9159
  111OSM   C17S11523   5.654   6.304   8.919 -0.1239  0.2232  0.6199
  111OSM   H17S11524   5.569   6.232   8.918 -0.6502  0.8110 -1.0276
  111OSM   H17T11525   5.736   6.247   8.868  0.5496  1.8679 -0.2108
  111OSM   C18S11526   5.608   6.420   8.828 -0.0503  0.0137  0.0699
  111OSM   H18S11527   5.693   6.484   8.795  0.5155 -0.1909  1.0916
  111OSM   H18T11528   5.528   6.472   8.884  0.7075 -1.1465  2.3735
  111OSM   H18U11529   5.570   6.376   8.734 -0.7716 -0.7444  0.7060
  111OSM    C1F11530   5.624   5.958  10.306  0.0641  0.4384  0.8158
  111OSM     OF11531   5.534   5.934  10.379  0.2926  0.4693  0.1078
  111OSM    C2F11532   5.626   5.912  10.160  0.0775 -0.8688 -0.1750
  111OSM    H2F11533   5.549   5.833  10.149 -1.2214  0.5255 -1.6094
  111OSM    H2G11534   5.730   5.878  10.140  0.4917  1.3253 -2.2546
  111OSM    C3F11535   5.604   6.021  10.058  0.1692 -0.2422  0.5802
  111OSM    H3F11536   5.687   6.094  10.074 -1.8841  1.9422  2.0290
  111OSM    H3G11537   5.511   6.082  10.066 -0.2638 -0.8030 -0.0410
  111OSM    C4F11538   5.608   5.985   9.911  0.1865 -0.5919  0.3157
  111OSM    H4F11539   5.710   5.944   9.894  0.9035  1.9882 -2.4979
  111OSM    H4G11540   5.592   6.080   9.856  2.5715  1.5706  3.0246
  111OSM    C5F11541   5.508   5.875   9.872 -0.0621  0.3991  0.5254
  111OSM    H5F11542   5.411   5.913   9.910  0.7704  0.4724  2.6846
  111OSM    H5G11543   5.528   5.781   9.928 -0.3535 -0.8537 -1.3563
  111OSM    C6F11544   5.502   5.837   9.726 -0.8610  0.4065  0.6449
  111OSM    H6F11545   5.441   5.745   9.719 -1.1504  0.4697  2.0258
  111OSM    H6G11546   5.600   5.816   9.677 -0.9035  2.8430 -0.6343
  111OSM    C7F11547   5.437   5.943   9.642  0.6271 -0.3471 -0.1796
  111OSM    H7F11548   5.485   6.041   9.664 -1.1125  0.4710  0.1290
  111OSM    H7G11549   5.328   5.951   9.660  0.7429  1.4855 -0.0854
  111OSM    C8F11550   5.448   5.922   9.492 -0.8725  0.5433  0.5683
  111OSM    H8F11551   5.552   5.885   9.479 -0.5051  1.8466 -0.3952
  111OSM    H8G11552   5.464   6.024   9.453  1.4702  0.2010  0.4795
  111OSM    C9F11553   5.347   5.846   9.418 -0.1342  0.3961 -1.2715
  111OSM    H9F11554   5.268   5.807   9.484 -1.3817  3.7849 -0.5691
  111OSM   C10F11555   5.336   5.816   9.288  0.1626 -0.4698 -0.0617
  111OSM   H10F11556   5.252   5.760   9.245 -0.0813  0.2200 -0.4939
  111OSM   C11F11557   5.436   5.866   9.186 -0.5879 -0.7208 -0.6713
  111OSM   H11F11558   5.499   5.781   9.153 -1.0071 -1.2926 -0.0265
  111OSM   H11G11559   5.500   5.942   9.237 -0.0063 -1.8703  0.3779
  111OSM   C12F11560   5.375   5.925   9.064 -0.1170  0.5756  0.0821
  111OSM   H12F11561   5.312   5.843   9.023  0.6838 -0.3706  0.6740
  111OSM   H12G11562   5.451   5.942   8.986 -1.7638  1.8238 -1.3248
  111OSM   C13F11563   5.294   6.051   9.082 -0.6611 -0.2076  0.3084
  111OSM   H13F11564   5.348   6.128   9.141 -0.2354  0.1766 -0.5644
  111OSM   H13G11565   5.196   6.039   9.132 -0.9934  2.9359  0.6191
  111OSM   C14F11566   5.250   6.112   8.944  0.5624  0.2917 -0.8379
  111OSM   H14F11567   5.211   6.037   8.872 -2.5838  0.1829  0.8110
  111OSM   H14G11568   5.326   6.180   8.901  0.5012  2.3374  2.0228
  111OSM   C15F11569   5.124   6.207   8.964 -0.5534 -0.3503  0.1393
  111OSM   H15F11570   5.143   6.299   9.024 -0.5896  0.2587 -0.7545
  111OSM   H15G11571   5.047   6.159   9.027 -0.8972  1.1900  0.9301
  111OSM   C16F11572   5.057   6.252   8.833 -0.4408  0.5290  0.1768
  111OSM   H16F11573   4.968   6.310   8.864 -0.1782  1.8241 -1.3314
  111OSM   H16G11574   5.011   6.171   8.772  0.7650  0.2580 -0.4054
  111OSM   C17F11575   5.146   6.346   8.741  0.6376  0.4776  0.5202
  111OSM   H17F11576   5.074   6.392   8.671  0.1781  2.5627  2.2573
  111OSM   H17G11577   5.221   6.291   8.679 -0.0151  0.9016 -0.6829
  111OSM   C18F11578   5.220   6.453   8.812 -0.7706 -0.1360 -0.4357
  111OSM   H18F11579   5.295   6.503   8.746  0.5917  0.5061  1.5171
  111OSM   H18G11580   5.275   6.424   8.904 -3.1641 -0.2552  1.0245
  111OSM   H18H11581   5.161   6.540   8.848  0.5064  0.4876  0.2495
  112OSM      N11582   6.107   1.680  11.320 -0.5988 -0.0085  0.4457
  112OSM    C1511583   6.124   1.809  11.387 -0.4208  0.0351 -0.3347
  112OSM   H15A11584   6.033   1.835  11.439 -1.0080 -0.4903 -1.0761
  112OSM   H15B11585   6.163   1.882  11.317 -0.0619  1.2477  1.0676
  112OSM   H15C11586   6.201   1.795  11.462 -1.1173  1.1893  0.6405
  112OSM    C1411587   6.064   1.577  11.418  0.3436 -0.2176  0.7784
  112OSM   H14A11588   6.139   1.566  11.495  0.9599  2.1980  0.6128
  112OSM   H14B11589   6.047   1.480  11.374 -1.8553 -0.2056  1.4755
  112OSM   H14C11590   5.970   1.605  11.464 -0.6225  0.9750 -1.7160
  112OSM    C1311591   5.998   1.699  11.218  0.3364 -0.6142 -0.5498
  112OSM   H13A11592   5.904   1.720  11.266  0.4524  0.4481 -0.7630
  112OSM   H13B11593   5.995   1.615  11.150 -1.3998 -0.7804 -0.2998
  112OSM   H13C11594   6.019   1.782  11.151 -0.7605  1.3605  1.4246
  112OSM    C1211595   6.236   1.628  11.243  0.4177  0.1369  0.3323
  112OSM   H12A11596   6.208   1.532  11.204 -1.2929  1.2122 -1.2570
  112OSM   H12B11597   6.314   1.621  11.318 -1.4614  4.3006  3.0467
  112OSM    C1111598   6.287   1.713  11.126 -0.5775  0.0186  0.3442
  112OSM   H11A11599   6.382   1.668  11.089 -0.5098  0.5133 -0.0939
  112OSM   H11B11600   6.330   1.805  11.172 -0.2147  0.3035 -0.5343
  112OSM      P11601   6.157   1.625  10.912 -0.1222 -0.1215  0.4505
  112OSM    O1311602   6.255   1.513  10.915  0.0799  0.2817  0.0493
  112OSM    O1411603   6.015   1.591  10.945 -0.1673 -0.1772 -0.0729
  112OSM    O1111604   6.164   1.698  10.769 -0.5181  0.4745  0.2717
  112OSM    O1211605   6.205   1.738  11.012  0.1441 -0.3310  0.4948
  112OSM    C1S11606   6.255   1.812  10.764 -0.1634  0.2107 -0.1730
  112OSM    H1S11607   6.350   1.798  10.819 -0.3003  1.0046  0.2818
  112OSM    H1T11608   6.202   1.898  10.811 -0.2093  0.0383  0.0887
  112OSM     NF11609   6.411   1.929  10.616 -0.4353  0.1902 -0.0800
  112OSM    HNF11610   6.415   2.022  10.579 -0.8992 -0.0600 -0.7927
  112OSM    C2S11611   6.280   1.855  10.623 -0.0141  0.1529  0.2161
  112OSM    H2S11612   6.308   1.771  10.556  0.8068 -1.1319  2.0701
  112OSM    C3S11613   6.159   1.925  10.564  0.3285  0.1866  0.3377
  112OSM    H3S11614   6.155   2.031  10.596  0.6423  1.0542 -2.3084
  112OSM     O311615   6.032   1.858  10.595  0.4354 -0.2307  0.0915
  112OSM    HO311616   6.048   1.796  10.667  0.2506 -0.8306 -0.3749
  112OSM    C4S11617   6.173   1.938  10.413 -0.5977  0.1427  0.4966
  112OSM    H4S11618   6.159   1.844  10.357 -0.9352 -0.8157  2.1296
  112OSM    C5S11619   6.189   2.058  10.355  0.2641 -0.0839 -0.3064
  112OSM    H5S11620   6.200   2.142  10.426  2.2576 -1.3509  0.9899
  112OSM    C6S11621   6.196   2.104  10.206 -0.2189  0.8994 -0.2187
  112OSM    H6S11622   6.286   2.168  10.194 -0.3536  1.3765  1.1287
  112OSM    H6T11623   6.111   2.169  10.175 -2.1442 -1.6772 -0.7009
  112OSM    C7S11624   6.225   1.979  10.114 -0.8317 -0.1955  0.9917
  112OSM    H7S11625   6.137   1.911  10.123 -0.9189 -0.3148 -0.5177
  112OSM    H7T11626   6.322   1.927  10.134  0.3155  1.3327 -0.3184
  112OSM    C8S11627   6.231   2.027   9.967 -0.1312 -0.8748  0.1228
  112OSM    H8S11628   6.308   2.107   9.966 -0.4542 -0.4791  2.3106
  112OSM    H8T11629   6.133   2.071   9.937  0.0885 -0.2900  0.2578
  112OSM    C9S11630   6.247   1.913   9.867  0.3838  0.8411  0.6325
  112OSM    H9S11631   6.161   1.844   9.883  0.0853  0.3207 -2.6819
  112OSM    H9T11632   6.332   1.847   9.896 -0.0275  0.9212  2.1012
  112OSM   C10S11633   6.256   1.956   9.718  0.4123 -0.2626 -0.4214
  112OSM   H10S11634   6.342   2.025   9.706  1.3279 -0.4638  3.5077
  112OSM   H10T11635   6.162   2.003   9.682 -0.6695  0.1732  2.6690
  112OSM   C11S11636   6.286   1.831   9.639 -0.2131  0.0801 -0.4254
  112OSM   H11S11637   6.195   1.768   9.644  0.6298 -1.0965  0.5815
  112OSM   H11T11638   6.365   1.764   9.680 -0.3009  0.2677  0.0542
  112OSM   C12S11639   6.314   1.863   9.493  0.5946  0.0786 -0.0929
  112OSM   H12S11640   6.414   1.912   9.503 -1.1084  3.8219  0.4051
  112OSM   H12T11641   6.244   1.942   9.458  1.0042  0.6132  0.2734
  112OSM   C13S11642   6.324   1.750   9.392 -0.2601 -0.3467  0.0718
  112OSM   H13S11643   6.228   1.695   9.386  1.6392 -3.9236 -0.0126
  112OSM   H13T11644   6.398   1.673   9.421 -0.5739 -0.1941  1.3701
  112OSM   C14S11645   6.349   1.801   9.252 -0.3060  0.2435 -0.2144
  112OSM   H14S11646   6.447   1.854   9.254  0.2001 -0.6859  0.2681
  112OSM   H14T11647   6.272   1.876   9.223 -0.1135  0.3656 -0.4129
  112OSM   C15S11648   6.330   1.698   9.148 -0.2355 -0.0356 -0.4922
  112OSM   H15S11649   6.234   1.650   9.174 -0.2380 -0.6114 -1.5196
  112OSM   H15T11650   6.406   1.617   9.158  0.1542  0.3896  0.0200
  112OSM   C16S11651   6.320   1.736   9.001  0.3849 -0.1302 -0.1815
  112OSM   H16S11652   6.215   1.759   8.975 -0.0278 -2.9724 -1.4696
  112OSM   H16T11653   6.326   1.646   8.936  0.8382  0.0226 -0.3490
  112OSM   C17S11654   6.404   1.855   8.947 -0.1937 -0.5263 -0.0165
  112OSM   H17S11655   6.376   1.944   9.008  0.1289 -0.6825  0.3597
  112OSM   H17T11656   6.374   1.882   8.843  1.7698  0.5488 -0.3403
  112OSM   C18S11657   6.550   1.829   8.946  0.4107  0.7382  0.4372
  112OSM   H18S11658   6.571   1.747   8.875 -2.2879  0.9717 -0.7798
  112OSM   H18T11659   6.572   1.791   9.048 -0.7173 -0.3913  0.2869
  112OSM   H18U11660   6.618   1.916   8.929  0.8535  0.0041 -1.8851
  112OSM    C1F11661   6.530   1.878  10.645  0.0661 -0.5802 -0.4871
  112OSM     OF11662   6.536   1.759  10.683 -0.9744 -0.0588  0.1380
  112OSM    C2F11663   6.652   1.958  10.625  0.1048 -0.1298 -0.6950
  112OSM    H2F11664   6.736   1.904  10.674 -0.7440  0.2970  1.3030
  112OSM    H2G11665   6.644   2.056  10.675  0.7902 -0.7804  0.7484
  112OSM    C3F11666   6.678   1.998  10.474  0.5448 -0.7762  0.1375
  112OSM    H3F11667   6.766   2.064  10.483 -1.7340  2.4332  0.6623
  112OSM    H3G11668   6.594   2.058  10.433  0.4679  1.0092  2.6750
  112OSM    C4F11669   6.689   1.882  10.382 -0.6099  0.0802  0.4050
  112OSM    H4F11670   6.591   1.830  10.388 -1.2019  1.3145  2.2529
  112OSM    H4G11671   6.763   1.813  10.428  0.6225  2.0486  1.5347
  112OSM    C5F11672   6.714   1.929  10.235 -0.5176 -0.5388 -0.3711
  112OSM    H5F11673   6.801   1.997  10.253 -1.3279  0.8786 -1.5286
  112OSM    H5G11674   6.625   1.983  10.197 -0.5441 -1.2032 -1.2781
  112OSM    C6F11675   6.751   1.820  10.140 -0.5461  0.6555  0.3542
  112OSM    H6F11676   6.755   1.722  10.192 -2.0312  0.6086  0.4243
  112OSM    H6G11677   6.852   1.843  10.101 -1.9433  1.3037 -3.2168
  112OSM    C7F11678   6.672   1.801  10.015  0.4464  0.0766  0.0209
  112OSM    H7F11679   6.565   1.786  10.040  0.6153  0.0553  0.7496
  112OSM    H7G11680   6.713   1.712   9.962 -1.3775  0.1612 -1.6768
  112OSM    C8F11681   6.684   1.914   9.907 -0.9770  0.4335 -0.0146
  112OSM    H8F11682   6.792   1.939   9.906 -1.0269  0.9528  2.2740
  112OSM    H8G11683   6.640   2.010   9.942 -0.3670  0.6632  0.1384
  112OSM    C9F11684   6.634   1.887   9.772 -0.0547 -0.0891  0.7653
  112OSM    H9F11685   6.525   1.884   9.756  0.0003  2.0192 -0.3406
  112OSM   C10F11686   6.701   1.866   9.660  0.1295 -0.7175  0.3007
  112OSM   H10F11687   6.643   1.852   9.568 -0.8617  2.5500  0.2782
  112OSM   C11F11688   6.852   1.875   9.639 -0.0389 -0.3449  0.5543
  112OSM   H11F11689   6.904   1.900   9.734 -1.8628 -0.5800  1.6642
  112OSM   H11G11690   6.883   1.950   9.563  3.3640 -1.0363  1.1118
  112OSM   C12F11691   6.907   1.740   9.585  0.2415 -0.1672  0.4258
  112OSM   H12F11692   6.866   1.655   9.644  1.8010 -0.5654  0.9942
  112OSM   H12G11693   7.015   1.727   9.610  0.1361  2.0472  2.4077
  112OSM   C13F11694   6.882   1.711   9.438 -0.2189  0.2097 -0.2698
  112OSM   H13F11695   6.772   1.723   9.423 -0.2257  0.8401  0.2404
  112OSM   H13G11696   6.921   1.613   9.405  1.3056  0.2455  1.2867
  112OSM   C14F11697   6.954   1.802   9.336  0.0682 -0.1488 -0.4409
  112OSM   H14F11698   6.938   1.911   9.353  0.1998 -0.3209  0.8782
  112OSM   H14G11699   6.912   1.771   9.239 -1.9940  2.9567 -0.7013
  112OSM   C15F11700   7.104   1.787   9.327  0.3416 -0.6668 -0.0036
  112OSM   H15F11701   7.152   1.698   9.374  0.5810 -0.8439 -0.5715
  112OSM   H15G11702   7.152   1.869   9.385  0.3608  0.1842 -1.1975
  112OSM   C16F11703   7.144   1.777   9.177 -0.4024 -0.4238  0.0485
  112OSM   H16F11704   7.081   1.850   9.121 -1.3401  0.0076  1.6101
  112OSM   H16G11705   7.115   1.676   9.142 -1.6639 -0.3518  0.8250
  112OSM   C17F11706   7.292   1.785   9.153  0.3777  0.3337 -0.1756
  112OSM   H17F11707   7.350   1.824   9.238  1.7776 -0.9605 -0.5058
  112OSM   H17G11708   7.301   1.862   9.073  0.7816  0.2495 -0.2144
  112OSM   C18F11709   7.356   1.660   9.100 -0.3459 -0.4826  0.7117
  112OSM   H18F11710   7.310   1.637   9.002 -0.2702  0.6601  0.3901
  112OSM   H18G11711   7.357   1.564   9.156  0.9093 -0.7509  0.2788
  112OSM   H18H11712   7.463   1.671   9.070 -0.4842 -2.9269 -0.9384
  113OSM      N11713   3.239   0.212  11.137  1.0790  0.8907  0.0796
  113OSM    C1511714   3.350   0.128  11.196 -0.2433 -0.5902  0.1103
  113OSM   H15A11715   3.315   0.040  11.248 -1.7372 -1.8163 -2.7714
  113OSM   H15B11716   3.405   0.191  11.265 -1.3020 -1.4521  1.8080
  113OSM   H15C11717   3.425   0.086  11.132 -0.2177 -1.6625  0.8285
  113OSM    C1411718   3.166   0.122  11.051  0.1307 -0.0279  0.5132
  113OSM   H14A11719   3.133   0.039  11.112  1.6660 -0.4644  0.7963
  113OSM   H14B11720   3.241   0.070  10.993 -0.9418 -0.1885 -0.7860
  113OSM   H14C11721   3.090   0.170  10.992  1.1000  1.1313  0.1752
  113OSM    C1311722   3.154   0.268  11.242 -0.0185 -0.1895 -0.4006
  113OSM   H13A11723   3.134   0.205  11.327 -2.0185  1.3369  0.3311
  113OSM   H13B11724   3.060   0.298  11.198  1.2516  1.0853 -2.4154
  113OSM   H13C11725   3.201   0.354  11.287  1.3728 -1.3848  0.5294
  113OSM    C1211726   3.302   0.326  11.046  0.4393  0.5607 -0.5238
  113OSM   H12A11727   3.369   0.376  11.115  1.6585 -1.1575 -0.3810
  113OSM   H12B11728   3.230   0.397  11.010 -1.1972  0.0963  1.6278
  113OSM    C1111729   3.386   0.287  10.917  0.0569 -0.8317 -0.1066
  113OSM   H11A11730   3.401   0.375  10.852 -0.2736 -0.6799  0.0175
  113OSM   H11B11731   3.326   0.216  10.856 -1.6500  0.8016 -0.4354
  113OSM      P11732   3.633   0.316  10.982  0.1608  0.0776  0.0520
  113OSM    O1311733   3.597   0.427  11.069 -0.2293  0.2952 -0.1707
  113OSM    O1411734   3.748   0.234  11.026 -0.3156  0.2437 -0.3149
  113OSM    O1111735   3.660   0.378  10.836 -0.6346  0.8023  1.1532
  113OSM    O1211736   3.507   0.229  10.963  0.2028 -0.0551  0.5874
  113OSM    C1S11737   3.789   0.403  10.779  0.2142 -0.2820 -0.0528
  113OSM    H1S11738   3.870   0.339  10.821  0.5750 -1.5130 -2.4771
  113OSM    H1T11739   3.814   0.511  10.788 -3.6856  0.6024  2.6551
  113OSM     NF11740   3.916   0.378  10.567 -0.0250  0.2513  0.6668
  113OSM    HNF11741   3.938   0.447  10.498  0.8401 -2.1577 -1.6278
  113OSM    C2S11742   3.787   0.384  10.628  0.5046  0.8693 -1.0140
  113OSM    H2S11743   3.740   0.288  10.599  1.7021  0.1312 -0.5284
  113OSM    C3S11744   3.691   0.484  10.561  0.0482 -0.1776  0.0867
  113OSM    H3S11745   3.722   0.589  10.579  4.0086 -1.5383  2.2654
  113OSM     O311746   3.559   0.479  10.611  0.1899 -0.3452  0.7456
  113OSM    HO311747   3.575   0.418  10.684 -0.4176  0.5626  1.6626
  113OSM    C4S11748   3.689   0.468  10.413 -0.3101  0.3521 -0.4828
  113OSM    H4S11749   3.741   0.552  10.365  0.0616 -0.2999 -1.2367
  113OSM    C5S11750   3.634   0.369  10.338 -0.4710 -0.2214  0.8409
  113OSM    H5S11751   3.575   0.286  10.379  0.5336 -0.9282  0.8811
  113OSM    C6S11752   3.663   0.371  10.189 -0.0467  0.5836  0.0427
  113OSM    H6S11753   3.585   0.428  10.133 -1.6049 -0.9445  0.5595
  113OSM    H6T11754   3.670   0.270  10.146  0.4236  0.7247 -0.2087
  113OSM    C7S11755   3.789   0.451  10.143 -0.0884  0.3288  0.6187
  113OSM    H7S11756   3.881   0.416  10.194  0.2674  1.8644  1.0986
  113OSM    H7T11757   3.777   0.559  10.168  0.1509  0.2603  1.0364
  113OSM    C8S11758   3.814   0.446   9.987  0.0074 -0.4528  0.2701
  113OSM    H8S11759   3.725   0.494   9.941  1.1802  2.0971  0.4978
  113OSM    H8T11760   3.829   0.341   9.951  0.3218  0.7410 -3.5531
  113OSM    C9S11761   3.926   0.522   9.937 -0.0780  0.7672  0.8651
  113OSM    H9S11762   4.021   0.500   9.990  1.4836 -2.1552 -2.6619
  113OSM    H9T11763   3.912   0.632   9.941  0.0433  0.8546 -0.5568
  113OSM   C10S11764   3.952   0.476   9.792  0.9198  0.1729  0.1651
  113OSM   H10S11765   3.989   0.372   9.778 -0.1034 -0.0827 -0.8438
  113OSM   H10T11766   4.039   0.537   9.759  0.6318  0.3103 -0.3573
  113OSM   C11S11767   3.826   0.511   9.703  0.2076  0.3154  0.1773
  113OSM   H11S11768   3.819   0.621   9.714  4.3904  0.8658 -0.6242
  113OSM   H11T11769   3.736   0.451   9.725 -0.1809  1.2041  1.0661
  113OSM   C12S11770   3.871   0.505   9.556 -0.1776  0.1953  0.2863
  113OSM   H12S11771   3.783   0.498   9.488  0.8581 -0.3358 -1.0321
  113OSM   H12T11772   3.932   0.415   9.536 -0.9539  0.4119 -3.9822
  113OSM   C13S11773   3.954   0.616   9.502 -0.4304  0.8905 -0.6998
  113OSM   H13S11774   4.037   0.633   9.574  0.8012  1.0369 -2.1042
  113OSM   H13T11775   3.894   0.710   9.505  0.1305  1.2437  1.7171
  113OSM   C14S11776   4.023   0.589   9.369  0.4767  0.5106  0.6151
  113OSM   H14S11777   3.946   0.604   9.290  0.9836  1.9711  0.3651
  113OSM   H14T11778   4.050   0.483   9.353 -2.8281 -0.1741 -1.3012
  113OSM   C15S11779   4.150   0.676   9.330 -0.2975 -0.0594 -0.0736
  113OSM   H15S11780   4.230   0.634   9.394 -1.7046  1.3757  2.8016
  113OSM   H15T11781   4.133   0.781   9.361  1.1023 -0.0674  0.7980
  113OSM   C16S11782   4.192   0.679   9.184  0.3141  0.2708  0.2747
  113OSM   H16S11783   4.189   0.574   9.149  0.7677  0.2616  0.2491
  113OSM   H16T11784   4.294   0.722   9.166 -1.2360  3.5356 -1.6517
  113OSM   C17S11785   4.100   0.755   9.094  0.2997  0.2053  1.0218
  113OSM   H17S11786   4.130   0.862   9.098  0.0319  0.2555  2.2300
  113OSM   H17T11787   4.000   0.761   9.142 -0.0175  2.8246  0.1775
  113OSM   C18S11788   4.092   0.715   8.943 -1.3657  0.3602 -0.5595
  113OSM   H18S11789   4.031   0.792   8.891 -1.1002  0.9567 -0.0008
  113OSM   H18T11790   4.052   0.613   8.922 -1.5788  0.6032 -1.3721
  113OSM   H18U11791   4.199   0.717   8.913 -0.5930 -2.7585  1.4373
  113OSM    C1F11792   4.005   0.284  10.591 -0.9772 -0.0765  1.1544
  113OSM     OF11793   3.979   0.176  10.655  0.5356 -0.4736 -0.1611
  113OSM    C2F11794   4.147   0.308  10.533 -0.0752 -0.3909  0.1616
  113OSM    H2F11795   4.204   0.348  10.620 -2.2552  0.4202  1.2768
  113OSM    H2G11796   4.154   0.381  10.449 -1.0774  1.3709  1.5354
  113OSM    C3F11797   4.221   0.183  10.479 -0.2206 -0.3590 -0.2723
  113OSM    H3F11798   4.238   0.111  10.562  1.4589  1.0331  0.6684
  113OSM    H3G11799   4.323   0.214  10.451 -0.3683  1.7854  1.3034
  113OSM    C4F11800   4.171   0.103  10.354  0.2133 -0.0964 -1.0236
  113OSM    H4F11801   4.088   0.038  10.386 -0.8989  1.4982 -0.5461
  113OSM    H4G11802   4.257   0.036  10.332  1.5057  1.2670 -0.3426
  113OSM    C5F11803   4.148   0.184  10.226  0.8102  0.6569  0.2958
  113OSM    H5F11804   4.245   0.232  10.200 -0.1723  2.9039  0.4804
  113OSM    H5G11805   4.077   0.269  10.241 -1.3887 -0.9443 -0.4446
  113OSM    C6F11806   4.112   0.110  10.096  0.1554  0.3839  0.2645
  113OSM    H6F11807   4.004   0.084  10.089 -0.4856  2.8234  0.2419
  113OSM    H6G11808   4.169   0.015  10.091 -0.7608 -0.1143 -2.1740
  113OSM    C7F11809   4.136   0.195   9.972 -0.0466  0.6032 -0.1624
  113OSM    H7F11810   4.247   0.200   9.966 -0.0730 -0.0819 -2.2134
  113OSM    H7G11811   4.102   0.300   9.989 -0.0988  0.5878 -0.1728
  113OSM    C8F11812   4.084   0.129   9.849  0.2577  0.2752 -0.1333
  113OSM    H8F11813   4.127   0.026   9.845  1.1963  0.6851 -1.1284
  113OSM    H8G11814   4.135   0.171   9.760 -0.6427  2.3301  0.2781
  113OSM    C9F11815   3.933   0.106   9.845 -0.1101  0.0954 -0.1030
  113OSM    H9F11816   3.874   0.127   9.935  0.1521 -0.9237  0.3114
  113OSM   C10F11817   3.872   0.054   9.737 -0.0896 -0.4206  0.4149
  113OSM   H10F11818   3.762   0.052   9.735 -0.2159  1.9458  1.5559
  113OSM   C11F11819   3.941   0.011   9.611  0.2771 -0.7309  0.8397
  113OSM   H11F11820   3.977  -0.094   9.625 -0.8943 -1.2001  0.4542
  113OSM   H11G11821   4.024   0.075   9.575 -0.5749 -0.3994 -0.6047
  113OSM   C12F11822   3.838  -0.011   9.495  0.9628  0.2500 -0.2597
  113OSM   H12F11823   3.794   0.087   9.466  0.8244 -0.0284 -1.0261
  113OSM   H12G11824   3.763  -0.087   9.525  2.3058 -0.2081  2.2353
  113OSM   C13F11825   3.913  -0.075   9.380  0.6897  0.2402 -0.6163
  113OSM   H13F11826   3.976  -0.160   9.415  1.5233 -0.7403 -4.0525
  113OSM   H13G11827   3.992  -0.004   9.347  1.7578 -0.0528  1.1965
  113OSM   C14F11828   3.822  -0.118   9.261  0.1998 -0.0983 -1.0578
  113OSM   H14F11829   3.768  -0.026   9.228  1.7147  0.8114 -1.0837
  113OSM   H14G11830   3.741  -0.175   9.311  1.4444 -3.3742 -2.4929
  113OSM   C15F11831   3.893  -0.194   9.148  0.1941 -0.0865  0.1331
  113OSM   H15F11832   3.959  -0.276   9.185 -0.8338 -1.2763 -0.5997
  113OSM   H15G11833   3.952  -0.117   9.094  1.8722 -0.3085  1.5335
  113OSM   C16F11834   3.796  -0.251   9.043 -0.5227  0.1429  0.2773
  113OSM   H16F11835   3.718  -0.314   9.091 -3.0598  1.7088 -1.4890
  113OSM   H16G11836   3.851  -0.316   8.973 -3.3055 -1.4930 -0.5482
  113OSM   C17F11837   3.715  -0.152   8.958 -0.2830 -0.8048 -0.0602
  113OSM   H17F11838   3.785  -0.075   8.919 -2.0891  0.8414 -0.1620
  113OSM   H17G11839   3.644  -0.100   9.026  0.6014  0.0155  0.2730
  113OSM   C18F11840   3.641  -0.207   8.839 -0.1586  0.7608 -0.6268
  113OSM   H18F11841   3.570  -0.137   8.789 -0.5304  0.7186 -0.1686
  113OSM   H18G11842   3.589  -0.304   8.849  0.6103  0.4201  0.1168
  113OSM   H18H11843   3.718  -0.230   8.762 -0.4493  1.1302 -1.0365
  114OSM      N11844   0.075   2.055  11.247  0.2304 -0.4241 -0.1047
  114OSM    C1511845  -0.038   2.113  11.334 -0.1254  0.6426  0.1489
  114OSM   H15A11846   0.005   2.163  11.419  0.9475  1.6398 -0.9303
  114OSM   H15B11847  -0.095   2.026  11.364  1.2847  0.0787  1.2487
  114OSM   H15C11848  -0.101   2.180  11.277  0.8212 -0.0715 -1.8561
  114OSM    C1411849   0.166   2.164  11.217 -0.6846  0.3308 -0.0588
  114OSM   H14A11850   0.125   2.222  11.136 -3.8399 -0.4658  0.8580
  114OSM   H14B11851   0.262   2.120  11.191 -0.2316  2.0182 -1.4147
  114OSM   H14C11852   0.182   2.228  11.303  2.0648 -0.0156 -0.2097
  114OSM    C1311853   0.144   1.950  11.326 -0.8054  0.1131  0.1498
  114OSM   H13A11854   0.177   1.864  11.269  1.2391  1.0439 -0.1771
  114OSM   H13B11855   0.077   1.915  11.403 -0.1656  1.3877  1.3163
  114OSM   H13C11856   0.231   1.984  11.381 -1.9763 -0.0976  2.2281
  114OSM    C1211857   0.026   1.991  11.120 -0.1373  0.0839 -0.2388
  114OSM   H12A11858  -0.038   1.907  11.144 -1.3156  1.2153  0.7388
  114OSM   H12B11859   0.115   1.949  11.076 -0.3244  0.4899 -1.0169
  114OSM    C1111860  -0.048   2.088  11.017  0.5174 -0.0600 -0.2477
  114OSM   H11A11861  -0.054   2.013  10.935  0.2687  0.2424 -0.5090
  114OSM   H11B11862   0.028   2.164  10.989  0.9808 -0.5181 -0.2465
  114OSM      P11863  -0.296   2.060  11.091  0.0603 -0.3025  0.2726
  114OSM    O1311864  -0.258   1.913  11.060  0.8628 -0.2175  0.3921
  114OSM    O1411865  -0.349   2.094  11.223 -0.0339  0.0514 -0.6274
  114OSM    O1111866  -0.410   2.107  10.988  0.6109  0.3623 -0.1481
  114OSM    O1211867  -0.167   2.155  11.063  0.3361 -0.4580  0.3536
  114OSM    C1S11868  -0.377   2.215  10.903 -0.6702 -1.3959  0.7832
  114OSM    H1S11869  -0.285   2.206  10.841  1.2159  1.6644  2.8785
  114OSM    H1T11870  -0.344   2.299  10.968  0.4170 -1.1067 -0.0978
  114OSM     NF11871  -0.440   2.368  10.715 -0.5205 -0.6631  0.0796
  114OSM    HNF11872  -0.460   2.465  10.724  1.0880 -0.2848 -0.2539
  114OSM    C2S11873  -0.494   2.275  10.815 -1.0519  1.1652 -0.0599
  114OSM    H2S11874  -0.524   2.176  10.774 -2.0373  1.2634  0.3835
  114OSM    C3S11875  -0.617   2.317  10.903  0.1462  0.4214 -0.0524
  114OSM    H3S11876  -0.597   2.421  10.938 -1.5754  1.9565 -3.1972
  114OSM     O311877  -0.638   2.233  11.014  0.1624 -0.8167 -0.4814
  114OSM    HO311878  -0.549   2.210  11.038  1.5988  2.7686 -1.5913
  114OSM    C4S11879  -0.741   2.336  10.826  0.6370 -0.1227  0.1171
  114OSM    H4S11880  -0.756   2.440  10.793  2.7076 -0.0039 -0.6007
  114OSM    C5S11881  -0.848   2.253  10.806 -0.0873 -0.4925 -0.2918
  114OSM    H5S11882  -0.833   2.154  10.852  1.8116  0.8255  2.1907
  114OSM    C6S11883  -0.976   2.274  10.728 -0.0416  0.3654 -0.0215
  114OSM    H6S11884  -0.983   2.385  10.719  2.5188  0.6511  0.6036
  114OSM    H6T11885  -1.068   2.232  10.773  0.1511  0.8574  0.8546
  114OSM    C7S11886  -0.973   2.202  10.591 -0.4825 -0.4545 -0.2772
  114OSM    H7S11887  -0.950   2.095  10.606  1.6330  0.1970  1.8603
  114OSM    H7T11888  -0.891   2.247  10.530 -0.9628 -0.9685 -1.3274
  114OSM    C8S11889  -1.095   2.215  10.496 -0.1592  0.2320 -0.3665
  114OSM    H8S11890  -1.177   2.140  10.499  1.5597 -1.7273 -0.1482
  114OSM    H8T11891  -1.055   2.202  10.393 -0.0522  0.4618 -0.3559
  114OSM    C9S11892  -1.162   2.354  10.504 -0.5512 -0.7147  0.4047
  114OSM    H9S11893  -1.099   2.433  10.550  0.1012 -1.2440  0.4299
  114OSM    H9T11894  -1.249   2.365  10.573 -0.2435  2.2925  0.4574
  114OSM   C10S11895  -1.189   2.416  10.364 -0.0297 -0.0050 -0.2266
  114OSM   H10S11896  -1.086   2.436  10.328 -0.3074  1.6353 -0.1890
  114OSM   H10T11897  -1.238   2.513  10.384 -0.6033 -0.4535  0.6248
  114OSM   C11S11898  -1.275   2.324  10.274  0.2788 -0.6802  0.1025
  114OSM   H11S11899  -1.372   2.315  10.328  0.2445  0.6012  0.2921
  114OSM   H11T11900  -1.225   2.230  10.242 -0.7934 -0.1732 -3.4648
  114OSM   C12S11901  -1.313   2.402  10.150  0.2573  0.5006  0.5830
  114OSM   H12S11902  -1.220   2.431  10.097 -0.4174  1.5331 -0.0726
  114OSM   H12T11903  -1.366   2.493  10.186 -0.3625 -0.0754  1.1546
  114OSM   C13S11904  -1.395   2.315  10.065 -0.1660  0.3380  0.1908
  114OSM   H13S11905  -1.494   2.290  10.109  0.0809  1.1445  1.2543
  114OSM   H13T11906  -1.351   2.214  10.053  0.8905  0.8737 -0.5279
  114OSM   C14S11907  -1.417   2.383   9.929  0.0342 -1.3298  0.6513
  114OSM   H14S11908  -1.460   2.484   9.944  2.7280 -0.1053  0.6110
  114OSM   H14T11909  -1.503   2.321   9.895 -0.3745 -0.7018  0.5279
  114OSM   C15S11910  -1.305   2.376   9.831 -0.0404  0.3583 -0.5175
  114OSM   H15S11911  -1.282   2.271   9.807 -1.2510 -0.0270 -0.0563
  114OSM   H15T11912  -1.212   2.418   9.876 -1.0902  1.1105  1.0898
  114OSM   C16S11913  -1.330   2.449   9.704 -0.0479 -0.4203 -0.6552
  114OSM   H16S11914  -1.357   2.555   9.723  0.1114 -0.7148  1.4107
  114OSM   H16T11915  -1.425   2.404   9.668  0.5785 -1.0963 -1.4978
  114OSM   C17S11916  -1.214   2.456   9.599  0.7459 -0.1816 -0.1158
  114OSM   H17S11917  -1.132   2.524   9.629 -0.4123  1.3491 -0.2894
  114OSM   H17T11918  -1.259   2.488   9.502 -2.6273 -1.0706  1.0167
  114OSM   C18S11919  -1.153   2.311   9.582  0.2063 -0.4407  0.5517
  114OSM   H18S11920  -1.221   2.245   9.524  3.7685 -2.0832 -2.0904
  114OSM   H18T11921  -1.114   2.260   9.672  0.4871 -1.5938 -0.2054
  114OSM   H18U11922  -1.068   2.319   9.511 -2.4402  1.1369 -2.7428
  114OSM    C1F11923  -0.366   2.332  10.611 -0.4222  0.7414 -0.9574
  114OSM     OF11924  -0.359   2.216  10.574 -0.0701  0.8447 -0.0318
  114OSM    C2F11925  -0.296   2.445  10.542 -0.0907  0.2798  0.3621
  114OSM    H2F11926  -0.207   2.471  10.603  0.3208 -3.6272  1.7069
  114OSM    H2G11927  -0.373   2.524  10.525 -0.0707  0.2783  0.2627
  114OSM    C3F11928  -0.234   2.404  10.405  0.1603 -0.4738 -0.2509
  114OSM    H3F11929  -0.171   2.318  10.436 -1.4301 -0.9564  1.8999
  114OSM    H3G11930  -0.160   2.482  10.379 -0.5311  0.2697 -0.0477
  114OSM    C4F11931  -0.340   2.377  10.298  0.2934 -0.0668  0.2969
  114OSM    H4F11932  -0.378   2.479  10.277  1.5222  0.1299 -1.1977
  114OSM    H4G11933  -0.426   2.313  10.328 -0.5102  0.7146 -0.2810
  114OSM    C5F11934  -0.288   2.312  10.165  0.2772 -0.0103 -0.4678
  114OSM    H5F11935  -0.368   2.290  10.091 -0.4562  0.1175  0.2673
  114OSM    H5G11936  -0.246   2.213  10.194  0.1170 -0.0261 -0.2841
  114OSM    C6F11937  -0.189   2.396  10.090  0.1809  0.4024  0.6137
  114OSM    H6F11938  -0.098   2.411  10.152  0.0692  1.2934  0.5729
  114OSM    H6G11939  -0.236   2.496  10.079  1.5968  1.0330  0.0296
  114OSM    C7F11940  -0.144   2.316   9.961  0.3773 -0.2707 -0.4325
  114OSM    H7F11941  -0.156   2.205   9.963  1.8317 -0.7068 -4.8160
  114OSM    H7G11942  -0.034   2.324   9.946  0.3833 -0.6608 -0.6221
  114OSM    C8F11943  -0.200   2.371   9.829 -0.3933  0.4708 -0.2649
  114OSM    H8F11944  -0.138   2.336   9.744  1.0429 -0.4187  1.0900
  114OSM    H8G11945  -0.182   2.479   9.850 -1.0875  0.5360  0.0134
  114OSM    C9F11946  -0.347   2.340   9.799 -0.8483 -0.4417  0.1053
  114OSM    H9F11947  -0.420   2.331   9.881 -2.6680 -1.4297 -1.5255
  114OSM   C10F11948  -0.394   2.313   9.674  0.5497  0.0133  0.2941
  114OSM   H10F11949  -0.501   2.286   9.669  0.0427  1.7613  0.9300
  114OSM   C11F11950  -0.316   2.323   9.544  0.0123  0.5287 -0.0214
  114OSM   H11F11951  -0.219   2.375   9.556 -0.1642  0.8089  0.2124
  114OSM   H11G11952  -0.370   2.379   9.465 -0.1303 -2.6322 -2.3848
  114OSM   C12F11953  -0.289   2.179   9.491 -0.4149 -0.1960  0.5734
  114OSM   H12F11954  -0.383   2.129   9.459 -1.3609  1.2053  1.0388
  114OSM   H12G11955  -0.239   2.117   9.569 -1.6843 -0.2399  1.3825
  114OSM   C13F11956  -0.208   2.181   9.360  0.1193  0.5244  0.2354
  114OSM   H13F11957  -0.198   2.071   9.344 -2.0538  0.4395 -0.9353
  114OSM   H13G11958  -0.105   2.223   9.369  0.3438  0.4742 -1.7619
  114OSM   C14F11959  -0.280   2.241   9.236 -0.7009  0.0130 -0.0064
  114OSM   H14F11960  -0.299   2.351   9.243 -1.5721 -0.0069 -1.5395
  114OSM   H14G11961  -0.377   2.186   9.238  0.7730 -2.8137  3.8028
  114OSM   C15F11962  -0.206   2.207   9.102 -0.1223 -0.2288  0.1114
  114OSM   H15F11963  -0.190   2.097   9.103  0.2410 -0.1698  0.8694
  114OSM   H15G11964  -0.114   2.268   9.102 -0.0231 -0.3789  0.1344
  114OSM   C16F11965  -0.287   2.246   8.982  0.3860  0.1376  0.0283
  114OSM   H16F11966  -0.328   2.348   8.995 -0.2890 -0.0234 -0.7466
  114OSM   H16G11967  -0.369   2.173   8.967  1.0730 -0.2712 -2.1286
  114OSM   C17F11968  -0.211   2.237   8.844  0.1112  0.2192 -0.3976
  114OSM   H17F11969  -0.176   2.133   8.825  0.4454  0.4776 -1.2246
  114OSM   H17G11970  -0.118   2.298   8.853  1.3988 -1.8677  2.1953
  114OSM   C18F11971  -0.300   2.300   8.737  0.4573  0.0288  0.0846
  114OSM   H18F11972  -0.399   2.252   8.730  1.7477 -2.7059 -1.0003
  114OSM   H18G11973  -0.255   2.291   8.636 -1.0350  2.5422 -0.8747
  114OSM   H18H11974  -0.327   2.405   8.757  2.0770  0.4278  0.3560
  115OSM      N11975   2.696   1.219  11.606 -0.5655 -0.1499 -0.2085
  115OSM    C1511976   2.745   1.349  11.661  0.8335  0.2978 -0.2264
  115OSM   H15A11977   2.849   1.377  11.655  0.5716  1.4209  0.2864
  115OSM   H15B11978   2.710   1.365  11.762 -1.7788 -0.3145 -0.9392
  115OSM   H15C11979   2.704   1.436  11.613 -0.0427  0.1136  0.1622
  115OSM    C1411980   2.735   1.106  11.700  0.0570  0.4062 -0.1697
  115OSM   H14A11981   2.696   1.127  11.799  0.1087 -0.8180  0.1329
  115OSM   H14B11982   2.842   1.106  11.715  0.1069  3.3865  0.1041
  115OSM   H14C11983   2.707   1.009  11.661  3.7801 -0.8721 -0.0971
  115OSM    C1311984   2.544   1.229  11.592 -0.4774  0.1306 -0.4002
  115OSM   H13A11985   2.508   1.151  11.526 -1.9389  0.0796  0.4006
  115OSM   H13B11986   2.518   1.325  11.550  1.4963  0.3852 -1.1258
  115OSM   H13C11987   2.504   1.233  11.692  0.4234  1.3314 -0.0677
  115OSM    C1211988   2.761   1.190  11.473 -1.1412 -0.5784  0.5399
  115OSM   H12A11989   2.736   1.096  11.426  1.2249 -1.2144  0.4362
  115OSM   H12B11990   2.868   1.192  11.487 -1.0195  1.1730 -0.4560
  115OSM    C1111991   2.730   1.290  11.355  0.1380  0.2684 -0.3044
  115OSM   H11A11992   2.810   1.268  11.282  0.4880  0.4979  0.0059
  115OSM   H11B11993   2.749   1.394  11.390  1.5679 -0.1814  0.3210
  115OSM      P11994   2.566   1.159  11.191 -0.1168 -0.4527 -0.2411
  115OSM    O1311995   2.619   1.037  11.251 -0.1546  0.0521 -0.4560
  115OSM    O1411996   2.422   1.164  11.157 -0.2314 -0.0725  0.5699
  115OSM    O1111997   2.654   1.202  11.071 -0.0049  0.2174  0.4100
  115OSM    O1211998   2.602   1.275  11.287  0.3622 -0.1992  0.1206
  115OSM    C1S11999   2.632   1.327  11.002  0.6756 -0.8549 -0.8441
  115OSM    H1S12000   2.648   1.418  11.064 -0.6855 -2.5984  2.2849
  115OSM    H1T12001   2.526   1.351  10.980  0.3035  0.6420  2.1276
  115OSM     NF12002   2.678   1.472  10.809  0.1323 -0.0146 -0.1548
  115OSM    HNF12003   2.606   1.475  10.740 -0.8582  3.5194  0.8124
  115OSM    C2S12004   2.711   1.341  10.868  0.5608 -0.7755 -0.2372
  115OSM    H2S12005   2.818   1.329  10.895  0.1514 -0.2410  1.8344
  115OSM    C3S12006   2.686   1.224  10.771  0.1867  0.3973  0.4198
  115OSM    H3S12007   2.582   1.236  10.736  0.1918  1.0857  0.6364
  115OSM     O312008   2.707   1.097  10.831 -0.6314  0.2244  0.0258
  115OSM    HO312009   2.708   1.111  10.926  1.1124  3.2663 -0.3048
  115OSM    C4S12010   2.774   1.222  10.655  0.0591  0.0241 -0.3852
  115OSM    H4S12011   2.879   1.240  10.681 -0.0551 -0.0006  0.1170
  115OSM    C5S12012   2.740   1.209  10.527 -0.2720 -0.2050 -0.0934
  115OSM    H5S12013   2.635   1.202  10.498 -1.0364  1.2552  2.0482
  115OSM    C6S12014   2.841   1.224  10.416  0.0948  0.8033  0.4968
  115OSM    H6S12015   2.942   1.231  10.460  0.6039  0.3360 -0.5774
  115OSM    H6T12016   2.810   1.311  10.354  2.0447  0.0503 -1.6290
  115OSM    C7S12017   2.840   1.109  10.312 -0.8836 -0.1020 -0.1812
  115OSM    H7S12018   2.868   1.014  10.363  0.0189  0.1416 -0.2057
  115OSM    H7T12019   2.923   1.113  10.239 -0.1570 -3.0375  0.3236
  115OSM    C8S12020   2.709   1.078  10.242  0.4074  0.2250 -0.2168
  115OSM    H8S12021   2.662   1.178  10.225  0.9824  0.2833 -1.5618
  115OSM    H8T12022   2.649   1.027  10.320 -0.9144  1.6516 -0.2537
  115OSM    C9S12023   2.717   0.983  10.123 -0.5654  0.6414  0.6182
  115OSM    H9S12024   2.610   0.962  10.102  0.1943 -1.2960 -1.7146
  115OSM    H9T12025   2.768   0.887  10.146 -1.0715 -0.0322 -0.9167
  115OSM   C10S12026   2.785   1.046  10.001 -0.3149 -0.7073 -0.1403
  115OSM   H10S12027   2.893   1.066  10.021 -0.8174  4.1319 -0.9181
  115OSM   H10T12028   2.743   1.147   9.981 -0.0419 -1.0526 -2.6944
  115OSM   C11S12029   2.769   0.960   9.876 -0.2166 -0.1330  0.2058
  115OSM   H11S12030   2.661   0.939   9.865 -0.4842  1.2122  0.1234
  115OSM   H11T12031   2.835   0.872   9.895 -0.5689 -0.5087 -0.2796
  115OSM   C12S12032   2.823   1.034   9.758  0.3334  0.6545  0.3821
  115OSM   H12S12033   2.916   1.092   9.776  0.4903  1.1079 -1.6709
  115OSM   H12T12034   2.747   1.112   9.734  0.9195  1.0439 -0.2467
  115OSM   C13S12035   2.843   0.946   9.631  0.0063 -1.0053  0.2589
  115OSM   H13S12036   2.769   0.865   9.612 -1.1578  0.2951 -1.0092
  115OSM   H13T12037   2.940   0.892   9.637  1.0989  0.7651 -0.5500
  115OSM   C14S12038   2.858   1.028   9.505  0.1775 -0.1612  0.3136
  115OSM   H14S12039   2.946   1.096   9.505  0.2334 -0.2329 -0.1808
  115OSM   H14T12040   2.764   1.088   9.503  0.4787  0.3041 -0.8844
  115OSM   C15S12041   2.854   0.965   9.373 -0.1588 -0.3344 -0.3653
  115OSM   H15S12042   2.758   0.908   9.367 -1.4008  1.3288  2.1248
  115OSM   H15T12043   2.930   0.890   9.343 -1.0671 -0.6421 -2.0573
  115OSM   C16S12044   2.843   1.070   9.258  0.2341  0.1254 -0.7306
  115OSM   H16S12045   2.918   1.147   9.288  0.3154  0.6375 -2.1713
  115OSM   H16T12046   2.746   1.121   9.281  0.6651  0.0706  1.3797
  115OSM   C17S12047   2.879   1.003   9.124 -0.4611  0.7065  0.2547
  115OSM   H17S12048   2.973   0.945   9.131  0.2826  1.5591 -1.8235
  115OSM   H17T12049   2.896   1.084   9.050 -1.3953 -0.2500 -1.0561
  115OSM   C18S12050   2.779   0.906   9.055  0.0400 -0.1177 -0.4455
  115OSM   H18S12051   2.766   0.803   9.095 -2.6628  0.4948  0.4313
  115OSM   H18T12052   2.821   0.887   8.954  0.6522  1.6605 -0.5588
  115OSM   H18U12053   2.676   0.942   9.032  0.5271  2.3482  0.9161
  115OSM    C1F12054   2.736   1.587  10.847 -0.2624 -0.2223  0.2661
  115OSM     OF12055   2.836   1.594  10.920 -0.2846 -0.0740 -0.7464
  115OSM    C2F12056   2.669   1.710  10.795  0.5052  0.4595 -0.0296
  115OSM    H2F12057   2.663   1.771  10.888  0.4609  1.0946 -0.4430
  115OSM    H2G12058   2.569   1.691  10.750  0.3667 -3.5732  1.6004
  115OSM    C3F12059   2.753   1.788  10.684  0.5280 -0.0568 -0.1379
  115OSM    H3F12060   2.759   1.719  10.597 -1.0030 -0.4626  0.0421
  115OSM    H3G12061   2.854   1.809  10.724  0.4402  0.1862 -0.0386
  115OSM    C4F12062   2.690   1.924  10.654 -0.0054 -0.5938 -0.0904
  115OSM    H4F12063   2.698   1.987  10.745  2.0187  3.1176 -2.5691
  115OSM    H4G12064   2.583   1.909  10.627  0.2181 -0.3018 -1.2002
  115OSM    C5F12065   2.752   1.991  10.534 -0.2496 -0.3932 -0.4980
  115OSM    H5F12066   2.727   1.929  10.446 -1.7858 -0.7391  0.1531
  115OSM    H5G12067   2.861   1.986  10.559 -0.4724  2.2187  1.4375
  115OSM    C6F12068   2.698   2.133  10.514  0.1635  0.0637  0.2400
  115OSM    H6F12069   2.715   2.171  10.618  0.1776 -0.2041  0.3353
  115OSM    H6G12070   2.587   2.133  10.505  0.1778 -1.2676 -0.0777
  115OSM    C7F12071   2.777   2.209  10.405  0.1586  0.8483  0.0694
  115OSM    H7F12072   2.882   2.215  10.440  1.4072 -0.3112 -3.1358
  115OSM    H7G12073   2.742   2.315  10.398 -1.5860  0.3357  0.4145
  115OSM    C8F12074   2.764   2.143  10.269 -0.2923 -0.2066  1.2813
  115OSM    H8F12075   2.793   2.036  10.277  1.3367 -0.0118 -1.0335
  115OSM    H8G12076   2.843   2.194  10.211  0.1837 -0.9454  1.2641
  115OSM    C9F12077   2.630   2.157  10.198 -0.4559 -0.0947 -0.4160
  115OSM    H9F12078   2.550   2.206  10.256  0.0196 -0.3399  0.4619
  115OSM   C10F12079   2.604   2.112  10.077 -0.1704  0.4216 -0.3347
  115OSM   H10F12080   2.499   2.111  10.047 -0.9937  1.6574  2.2131
  115OSM   C11F12081   2.699   2.037   9.990  0.2203 -0.2028 -0.0992
  115OSM   H11F12082   2.720   1.937  10.035  0.3630 -0.6437 -1.1140
  115OSM   H11G12083   2.794   2.095   9.993  1.7249 -2.3948 -1.7716
  115OSM   C12F12084   2.646   2.035   9.845 -0.5529 -0.8389 -0.3202
  115OSM   H12F12085   2.602   2.127   9.801 -0.9478 -0.5586  0.6478
  115OSM   H12G12086   2.568   1.957   9.843 -2.1390  0.6493  0.5945
  115OSM   C13F12087   2.760   2.003   9.746 -0.1909 -0.5836 -0.8299
  115OSM   H13F12088   2.818   1.922   9.796  0.2556  0.5092  0.4807
  115OSM   H13G12089   2.821   2.095   9.742 -1.7747  0.5264 -0.3337
  115OSM   C14F12090   2.719   1.956   9.604 -0.2648  0.5790 -0.8435
  115OSM   H14F12091   2.632   1.888   9.617  0.7949 -0.4432  1.3601
  115OSM   H14G12092   2.790   1.877   9.572  0.2271  0.4554  0.4595
  115OSM   C15F12093   2.697   2.056   9.503  0.0953 -0.1149  0.0198
  115OSM   H15F12094   2.790   2.116   9.498 -0.0477  0.1972  0.9141
  115OSM   H15G12095   2.616   2.126   9.532 -0.3430 -1.2388  1.6852
  115OSM   C16F12096   2.679   1.996   9.360  0.2248  0.1548  0.4751
  115OSM   H16F12097   2.582   1.943   9.369  0.8624 -1.0028  0.7792
  115OSM   H16G12098   2.758   1.918   9.350  1.0920  1.2382 -1.5502
  115OSM   C17F12099   2.683   2.101   9.250 -0.2950  0.0246 -0.3339
  115OSM   H17F12100   2.768   2.171   9.264  0.6847 -1.2736  0.3913
  115OSM   H17G12101   2.586   2.156   9.255 -2.0440 -2.6586 -2.1277
  115OSM   C18F12102   2.679   2.045   9.107  0.1807  0.2782  0.1678
  115OSM   H18F12103   2.749   1.960   9.093 -1.0475 -0.6755 -0.4389
  115OSM   H18G12104   2.679   2.128   9.033 -0.5976  0.3910  0.2919
  115OSM   H18H12105   2.579   1.998   9.098  0.5432 -0.3480 -0.8127
  116OSM      N12106   4.927   5.292  10.833  0.2764 -0.3525  0.6460
  116OSM    C1512107   4.872   5.326  10.689  0.3465 -0.1623 -0.2284
  116OSM   H15A12108   4.852   5.234  10.636 -1.8582 -0.5709  1.2046
  116OSM   H15B12109   4.943   5.386  10.633 -1.0747  2.9287  1.0442
  116OSM   H15C12110   4.779   5.379  10.704 -0.8906 -2.6414  1.7377
  116OSM    C1412111   4.807   5.230  10.904 -0.5949 -0.9319  0.8545
  116OSM   H14A12112   4.836   5.174  10.991 -0.0135  1.0561  2.0079
  116OSM   H14B12113   4.743   5.171  10.839 -0.7603 -0.9245  1.0095
  116OSM   H14C12114   4.748   5.310  10.948 -0.0513 -1.4845  2.6728
  116OSM    C1312115   5.038   5.190  10.810 -0.4797  0.2445  0.0316
  116OSM   H13A12116   5.080   5.140  10.896  0.2390  0.5030 -0.1574
  116OSM   H13B12117   5.121   5.228  10.752 -0.8543  0.8538 -0.1188
  116OSM   H13C12118   4.995   5.104  10.761  2.1615 -0.8736 -0.4913
  116OSM    C1212119   4.975   5.419  10.914 -0.0833  0.0424 -0.2111
  116OSM   H12A12120   4.989   5.386  11.016  1.7251 -2.0279 -1.0430
  116OSM   H12B12121   4.907   5.503  10.912  1.9107  1.8361  1.4814
  116OSM    C1112122   5.110   5.471  10.871 -0.5552 -0.3833 -0.2282
  116OSM   H11A12123   5.114   5.496  10.763  0.2792  1.7746  0.2509
  116OSM   H11B12124   5.185   5.391  10.888 -1.2869 -1.6154 -2.3913
  116OSM      P12125   5.077   5.720  10.922 -0.0185 -0.1009 -0.6595
  116OSM    O1312126   4.932   5.702  10.928 -0.4941 -0.0274  0.3997
  116OSM    O1412127   5.147   5.818  11.009  0.2445  0.2572 -0.2758
  116OSM    O1112128   5.116   5.753  10.772  0.1739 -0.4619  0.0934
  116OSM    O1212129   5.145   5.587  10.943 -0.6255  0.5476  0.1708
  116OSM    C1S12130   5.251   5.758  10.726 -0.3939 -0.2534 -0.3130
  116OSM    H1S12131   5.305   5.663  10.747 -1.7792 -1.0727 -0.3315
  116OSM    H1T12132   5.307   5.844  10.769  0.0470 -0.7359  0.0981
  116OSM     NF12133   5.372   5.734  10.500 -0.2426  1.1323  0.1838
  116OSM    HNF12134   5.433   5.795  10.450  3.8303 -2.5432  0.0281
  116OSM    C2S12135   5.254   5.776  10.568 -0.3389 -0.2730 -0.2267
  116OSM    H2S12136   5.164   5.722  10.530 -1.0698  1.3184 -0.9032
  116OSM    C3S12137   5.211   5.924  10.548  0.0228 -0.2285  0.0794
  116OSM    H3S12138   5.290   5.990  10.590 -2.0989  2.1849  0.5694
  116OSM     O312139   5.101   5.970  10.619  0.2880  0.9564  0.1245
  116OSM    HO312140   5.088   5.897  10.681 -2.8490  1.2694  0.0418
  116OSM    C4S12141   5.203   5.960  10.400 -0.3577 -0.6166  0.2028
  116OSM    H4S12142   5.295   6.007  10.363 -0.0257  1.1994  3.0407
  116OSM    C5S12143   5.097   5.947  10.321 -0.0258 -0.1904  0.9190
  116OSM    H5S12144   5.001   5.905  10.355 -2.3774  1.3022 -3.2051
  116OSM    C6S12145   5.093   5.997  10.174 -0.5075  1.0401 -0.5904
  116OSM    H6S12146   5.189   6.048  10.153 -1.1076  1.6400 -2.0039
  116OSM    H6T12147   5.016   6.078  10.173 -0.8320  0.8139  1.4042
  116OSM    C7S12148   5.062   5.907  10.051  0.4525 -0.4887 -0.7827
  116OSM    H7S12149   4.958   5.877  10.078 -0.0782  3.1319  2.1123
  116OSM    H7T12150   5.132   5.822  10.058  1.0411  0.1233  2.3326
  116OSM    C8S12151   5.057   5.979   9.923 -0.3439  0.4605 -0.3689
  116OSM    H8S12152   5.155   6.027   9.904 -0.2061  0.1368 -0.4891
  116OSM    H8T12153   4.985   6.063   9.926 -1.4867 -0.5028  0.1617
  116OSM    C9S12154   5.005   5.888   9.816 -1.2605  0.1265 -0.9645
  116OSM    H9S12155   4.906   5.847   9.847  0.3668 -1.1056  3.3870
  116OSM    H9T12156   5.075   5.802   9.804  0.2107  1.0586  0.4459
  116OSM   C10S12157   4.992   5.964   9.681  0.4675  0.2879 -0.3917
  116OSM   H10S12158   5.088   6.014   9.653  0.8254 -0.8194 -1.2031
  116OSM   H10T12159   4.911   6.040   9.686  0.5188  0.4064 -1.2341
  116OSM   C11S12160   4.957   5.857   9.573 -0.3327 -0.5757  0.1810
  116OSM   H11S12161   4.863   5.799   9.588 -1.3448  0.9199 -0.1544
  116OSM   H11T12162   5.047   5.793   9.585  1.0580  1.0501 -1.0696
  116OSM   C12S12163   4.957   5.924   9.437  0.2106  0.1413 -0.1048
  116OSM   H12S12164   5.053   5.981   9.435  0.2550  0.0947  0.4705
  116OSM   H12T12165   4.877   6.001   9.443 -0.5397 -0.6334  0.0287
  116OSM   C13S12166   4.949   5.831   9.321 -0.3203 -0.3027  0.6413
  116OSM   H13S12167   4.889   5.739   9.338 -1.5564  0.6104  1.4071
  116OSM   H13T12168   5.053   5.794   9.310  0.4298  1.5212  1.2239
  116OSM   C14S12169   4.892   5.883   9.193 -0.7268  0.7180  0.4282
  116OSM   H14S12170   4.942   5.979   9.168 -1.5759  1.1779  0.4433
  116OSM   H14T12171   4.786   5.914   9.207 -0.8536  1.1696 -1.3190
  116OSM   C15S12172   4.894   5.791   9.069 -0.2554  0.0410 -0.3370
  116OSM   H15S12173   4.833   5.699   9.081 -1.9753  1.2369  0.6767
  116OSM   H15T12174   4.999   5.773   9.038 -0.5090  0.6050 -1.5892
  116OSM   C16S12175   4.841   5.853   8.938 -0.2884  1.0352 -0.3910
  116OSM   H16S12176   4.889   5.943   8.894 -0.0151  1.0755 -0.0075
  116OSM   H16T12177   4.734   5.864   8.965 -0.3028 -0.0374  0.0294
  116OSM   C17S12178   4.839   5.739   8.829 -0.1646 -0.0875  0.0737
  116OSM   H17S12179   4.766   5.659   8.852  1.3065 -3.3639 -5.0677
  116OSM   H17T12180   4.937   5.687   8.829  0.9092  1.7004  2.7955
  116OSM   C18S12181   4.817   5.789   8.680  0.4212  0.1961 -0.6501
  116OSM   H18S12182   4.853   5.699   8.625 -2.2823 -0.7602 -1.0327
  116OSM   H18T12183   4.880   5.874   8.648 -0.3002  1.3646  0.9196
  116OSM   H18U12184   4.712   5.815   8.653  0.6505  2.7812  0.6320
  116OSM    C1F12185   5.396   5.602  10.485  0.0819  0.0819 -0.2627
  116OSM     OF12186   5.330   5.517  10.550  0.1201 -0.6483  0.0432
  116OSM    C2F12187   5.498   5.564  10.386 -0.8312  0.3523 -0.0429
  116OSM    H2F12188   5.572   5.502  10.441  1.4606  3.5582  0.7892
  116OSM    H2G12189   5.559   5.652  10.356 -0.7679  0.8013  1.3335
  116OSM    C3F12190   5.456   5.480  10.266 -0.0031  0.1841 -0.7934
  116OSM    H3F12191   5.384   5.546  10.214  2.8896  3.1176 -1.4614
  116OSM    H3G12192   5.404   5.387  10.294 -0.3289  0.2001 -1.3401
  116OSM    C4F12193   5.566   5.445  10.170 -0.9478 -0.3251 -0.4999
  116OSM    H4F12194   5.614   5.540  10.137  0.1321  0.4575  2.9129
  116OSM    H4G12195   5.525   5.401  10.077  0.4787  0.3865 -1.5028
  116OSM    C5F12196   5.671   5.345  10.232  0.2664 -0.0844  0.8307
  116OSM    H5F12197   5.611   5.264  10.279 -0.5624 -0.4671 -0.8394
  116OSM    H5G12198   5.736   5.387  10.312  0.4909  0.5770  0.3066
  116OSM    C6F12199   5.770   5.286  10.130  0.5363  1.4932 -0.3557
  116OSM    H6F12200   5.723   5.200  10.078 -0.3145  0.0894  2.5533
  116OSM    H6G12201   5.861   5.249  10.180  0.2496 -0.9678 -1.5283
  116OSM    C7F12202   5.813   5.384  10.017  0.3205  1.3178  0.0575
  116OSM    H7F12203   5.897   5.452  10.043  0.7148  1.4675 -1.4537
  116OSM    H7G12204   5.726   5.446   9.986 -0.3085 -0.4725 -2.0279
  116OSM    C8F12205   5.873   5.310   9.891 -0.0582 -0.6073 -0.2085
  116OSM    H8F12206   5.792   5.258   9.837 -0.8178  3.1096 -3.0870
  116OSM    H8G12207   5.938   5.228   9.927 -0.7528 -1.5570 -1.0600
  116OSM    C9F12208   5.939   5.410   9.799  0.3864 -0.0713 -0.3832
  116OSM    H9F12209   6.047   5.428   9.815  0.4374 -1.3300  0.9054
  116OSM   C10F12210   5.872   5.469   9.696 -0.8879  0.0806  0.5282
  116OSM   H10F12211   5.932   5.548   9.648 -0.8442  0.5861  1.3926
  116OSM   C11F12212   5.727   5.444   9.660  0.0227  0.4091  0.5125
  116OSM   H11F12213   5.676   5.541   9.637  0.5246  0.0618 -2.3892
  116OSM   H11G12214   5.669   5.407   9.748 -1.0980  0.2239 -0.2871
  116OSM   C12F12215   5.697   5.362   9.529 -0.2384  0.3368  0.5884
  116OSM   H12F12216   5.740   5.260   9.537  0.0878  0.4155 -0.1038
  116OSM   H12G12217   5.760   5.422   9.460  1.8203 -0.4333  1.6883
  116OSM   C13F12218   5.549   5.355   9.493  0.1781 -0.5969 -0.3032
  116OSM   H13F12219   5.485   5.325   9.580  1.3676  1.0161  1.1939
  116OSM   H13G12220   5.536   5.283   9.410 -0.7201  0.0047 -0.6951
  116OSM   C14F12221   5.481   5.489   9.448  0.3336  0.8509 -0.5085
  116OSM   H14F12222   5.561   5.524   9.380  0.3915  2.0395  0.1424
  116OSM   H14G12223   5.466   5.551   9.539  1.2649  2.3961 -1.3688
  116OSM   C15F12224   5.340   5.459   9.379 -0.6330  0.0285 -0.8255
  116OSM   H15F12225   5.289   5.558   9.382  0.2470  0.4689  1.6280
  116OSM   H15G12226   5.283   5.401   9.455  0.3209  1.1209  0.8096
  116OSM   C16F12227   5.352   5.402   9.242 -0.0060 -0.0433  0.4204
  116OSM   H16F12228   5.391   5.298   9.251 -0.3986 -0.2525 -0.2811
  116OSM   H16G12229   5.429   5.455   9.183  1.0624  0.4501  2.1712
  116OSM   C17F12230   5.215   5.403   9.179 -0.4665 -1.1179  0.0146
  116OSM   H17F12231   5.178   5.504   9.152  1.6627  0.0868  1.3145
  116OSM   H17G12232   5.132   5.367   9.244 -0.8563 -0.5098 -0.1441
  116OSM   C18F12233   5.205   5.315   9.057  0.7272 -1.1821  0.1478
  116OSM   H18F12234   5.272   5.353   8.977 -1.0727  2.8864  0.3340
  116OSM   H18G12235   5.099   5.326   9.026  1.3895 -0.1602 -1.8915
  116OSM   H18H12236   5.226   5.210   9.088 -0.9088 -1.9018 -1.0478
  117OSM      N12237   3.084   6.308  11.371  0.9085  0.5490  0.1712
  117OSM    C1512238   3.215   6.360  11.415  0.5097 -0.1096  0.0497
  117OSM   H15A12239   3.226   6.348  11.522  1.3385  0.5927  0.0596
  117OSM   H15B12240   3.218   6.466  11.395 -2.8438  0.9069  3.7838
  117OSM   H15C12241   3.294   6.306  11.365  0.9711  0.2507  0.3758
  117OSM    C1412242   3.057   6.183  11.450  0.0218  0.1742  0.1126
  117OSM   H14A12243   2.958   6.148  11.425 -0.2481  2.0727 -1.7934
  117OSM   H14B12244   3.061   6.212  11.554 -1.0106  1.9888 -0.3088
  117OSM   H14C12245   3.130   6.105  11.433  0.2408 -0.4534  3.2648
  117OSM    C1312246   2.981   6.409  11.418 -0.8864 -0.1745  0.3328
  117OSM   H13A12247   2.992   6.437  11.521  1.4196 -2.0685  0.7018
  117OSM   H13B12248   2.883   6.366  11.406 -1.8281  1.8290  0.3898
  117OSM   H13C12249   2.972   6.494  11.351  0.4935 -2.5183 -3.1592
  117OSM    C1212250   3.085   6.284  11.227 -0.0965 -0.4623  1.0433
  117OSM   H12A12251   2.993   6.241  11.190  0.2626 -2.1496  2.0077
  117OSM   H12B12252   3.163   6.212  11.206  1.7113  1.6620 -0.0159
  117OSM    C1112253   3.122   6.409  11.141  0.2040  0.2498 -0.4082
  117OSM   H11A12254   3.142   6.376  11.036  0.5983  0.1917 -0.3169
  117OSM   H11B12255   3.222   6.443  11.175 -0.3975  0.4906  1.1819
  117OSM      P12256   2.883   6.498  11.061  0.0500 -0.1914 -0.1720
  117OSM    O1312257   2.842   6.353  11.064  0.0091 -0.2350  0.0550
  117OSM    O1412258   2.784   6.590  11.117 -0.0187 -0.2708  0.5334
  117OSM    O1112259   2.918   6.534  10.906 -0.0133 -0.0616 -0.3549
  117OSM    O1212260   3.020   6.512  11.143 -0.0255 -0.7135 -0.7593
  117OSM    C1S12261   3.009   6.636  10.872 -0.0169 -0.2903  0.0898
  117OSM    H1S12262   3.110   6.596  10.893  0.3513 -0.1725 -1.3428
  117OSM    H1T12263   2.984   6.723  10.935  0.4196 -1.0289  1.3080
  117OSM     NF12264   3.131   6.731  10.682  0.4340 -0.0330 -0.7338
  117OSM    HNF12265   3.133   6.827  10.656 -1.5464  0.0248 -0.8846
  117OSM    C2S12266   3.007   6.666  10.723  0.5416  0.1960 -0.1238
  117OSM    H2S12267   2.999   6.570  10.668  1.1645 -0.3380  0.6859
  117OSM    C3S12268   2.870   6.746  10.687 -0.3051  0.3378  0.3884
  117OSM    H3S12269   2.873   6.843  10.742 -2.1507  0.2961  0.6277
  117OSM     O312270   2.756   6.685  10.747  0.6503  0.0139 -0.2012
  117OSM    HO312271   2.794   6.617  10.803  0.7506 -0.2501 -0.5862
  117OSM    C4S12272   2.840   6.767  10.545 -0.4922  0.1466  0.4448
  117OSM    H4S12273   2.884   6.863  10.514 -2.1553  1.6126  2.3784
  117OSM    C5S12274   2.771   6.692  10.456 -0.2192  0.1954  0.2303
  117OSM    H5S12275   2.717   6.606  10.499  0.0216  1.0831  2.4572
  117OSM    C6S12276   2.740   6.729  10.311  0.7750  0.4745  0.2469
  117OSM    H6S12277   2.630   6.740  10.298  0.8365  1.1376  0.2674
  117OSM    H6T12278   2.765   6.639  10.252  0.5834  0.2873  0.4471
  117OSM    C7S12279   2.814   6.835  10.234 -0.1913  0.2386  0.5326
  117OSM    H7S12280   2.922   6.811  10.245  0.1364  1.8580  1.0895
  117OSM    H7T12281   2.793   6.935  10.277 -2.5231 -0.8830  2.2240
  117OSM    C8S12282   2.783   6.836  10.085 -0.2790 -0.4643  0.1137
  117OSM    H8S12283   2.798   6.937  10.040  2.5682 -1.0543 -0.4635
  117OSM    H8T12284   2.674   6.821  10.068 -0.0660 -0.2895 -1.6146
  117OSM    C9S12285   2.860   6.730  10.014 -0.7511 -0.0313 -0.6105
  117OSM    H9S12286   2.834   6.629  10.052 -1.2954  0.2657 -0.1788
  117OSM    H9T12287   2.966   6.752  10.037 -0.6077  0.6061 -1.7854
  117OSM   C10S12288   2.833   6.711   9.864  0.2726  0.0535  0.2532
  117OSM   H10S12289   2.724   6.714   9.847  0.0099 -0.0757  1.7606
  117OSM   H10T12290   2.884   6.618   9.831 -0.7463  0.0885 -1.5380
  117OSM   C11S12291   2.893   6.828   9.780  0.1325  0.1269  0.7287
  117OSM   H11S12292   2.986   6.867   9.827 -0.0194  2.4498 -0.7558
  117OSM   H11T12293   2.818   6.910   9.769 -0.0577 -0.0948  0.3670
  117OSM   C12S12294   2.936   6.779   9.637  0.8602  0.8753 -0.4494
  117OSM   H12S12295   2.848   6.733   9.586  3.4529 -3.0931 -1.7740
  117OSM   H12T12296   3.021   6.709   9.646  0.7994  1.0148  1.7400
  117OSM   C13S12297   2.997   6.893   9.553  0.2039  0.7296 -0.0238
  117OSM   H13S12298   3.092   6.924   9.603  0.8651 -1.1867 -0.0306
  117OSM   H13T12299   2.939   6.988   9.555  2.2995  2.0745  0.9164
  117OSM   C14S12300   3.000   6.854   9.402  0.5325 -0.1609  0.1782
  117OSM   H14S12301   3.025   6.747   9.385 -0.5617 -0.7814  2.1832
  117OSM   H14T12302   3.062   6.930   9.351  0.0144  1.2176  1.5270
  117OSM   C15S12303   2.859   6.874   9.334 -0.2013  0.7133  0.8984
  117OSM   H15S12304   2.827   6.980   9.347  0.9860  1.3188 -0.7014
  117OSM   H15T12305   2.788   6.810   9.390  0.1006 -1.1396 -0.7296
  117OSM   C16S12306   2.858   6.849   9.178  0.2811 -0.6428  0.0961
  117OSM   H16S12307   2.759   6.891   9.147  0.1757  1.1873  2.6203
  117OSM   H16T12308   2.858   6.740   9.159 -2.4855 -0.7815  0.4666
  117OSM   C17S12309   2.971   6.917   9.103  0.6397 -0.3688 -0.2814
  117OSM   H17S12310   3.064   6.876   9.147  0.4734 -3.6614 -2.6458
  117OSM   H17T12311   2.963   7.028   9.104 -1.3248 -0.4241  1.9698
  117OSM   C18S12312   2.967   6.861   8.960 -0.1609 -0.4475 -0.0858
  117OSM   H18S12313   2.878   6.905   8.911  0.1610  0.8422  0.4454
  117OSM   H18T12314   2.957   6.750   8.957 -1.1780 -0.3662 -2.6232
  117OSM   H18U12315   3.054   6.899   8.902 -1.1534  0.2909 -1.1407
  117OSM    C1F12316   3.249   6.671  10.663  0.5698 -0.0875 -0.0259
  117OSM     OF12317   3.264   6.563  10.712 -0.5390 -0.1589 -0.1018
  117OSM    C2F12318   3.354   6.740  10.574  0.2059  0.4345 -0.2961
  117OSM    H2F12319   3.448   6.683  10.590 -0.2088  0.1383  1.2304
  117OSM    H2G12320   3.359   6.848  10.599 -0.6774  0.3445  0.2882
  117OSM    C3F12321   3.320   6.723  10.423  0.1694  0.3190  0.1170
  117OSM    H3F12322   3.213   6.745  10.402  0.3365 -0.0745 -1.2326
  117OSM    H3G12323   3.355   6.622  10.395  1.1193  0.4803  0.6764
  117OSM    C4F12324   3.406   6.810  10.333 -0.1201  0.7029 -0.3142
  117OSM    H4F12325   3.515   6.792  10.349 -0.1562 -0.1747 -1.0497
  117OSM    H4G12326   3.380   6.914  10.363  0.9791  0.7417  0.5835
  117OSM    C5F12327   3.362   6.786  10.184 -0.2710  0.7157  0.2517
  117OSM    H5F12328   3.251   6.796  10.187 -0.0709  3.6350  1.0707
  117OSM    H5G12329   3.386   6.688  10.138  3.1281  1.9500 -0.9543
  117OSM    C6F12330   3.410   6.898  10.097 -0.0121 -0.3453  0.4533
  117OSM    H6F12331   3.520   6.889  10.085 -0.0362 -0.1502  0.0807
  117OSM    H6G12332   3.398   6.998  10.145 -0.3955 -0.5241  0.7318
  117OSM    C7F12333   3.324   6.911   9.963 -0.2692  0.4510  0.7339
  117OSM    H7F12334   3.378   6.980   9.895  0.0936 -0.3249  0.2260
  117OSM    H7G12335   3.224   6.954   9.990  0.0686  3.1637 -1.8196
  117OSM    C8F12336   3.309   6.787   9.873  0.2408 -0.2271  0.3337
  117OSM    H8F12337   3.231   6.811   9.798  0.5859  0.3022  0.1329
  117OSM    H8G12338   3.278   6.698   9.932  3.1744 -1.9581 -0.5554
  117OSM    C9F12339   3.435   6.752   9.803 -0.0086 -0.0458  0.3436
  117OSM    H9F12340   3.517   6.720   9.871  0.7026 -0.7904 -0.8285
  117OSM   C10F12341   3.459   6.762   9.672 -0.3566  0.5827  0.9747
  117OSM   H10F12342   3.562   6.735   9.647 -1.4098 -2.2745 -0.8245
  117OSM   C11F12343   3.374   6.813   9.560  0.4495  0.6439  0.0547
  117OSM   H11F12344   3.272   6.850   9.586  0.5236  1.1963 -0.4125
  117OSM   H11G12345   3.357   6.726   9.494  1.5655 -0.7467  1.5382
  117OSM   C12F12346   3.443   6.940   9.497  0.0237  0.2826 -0.3194
  117OSM   H12F12347   3.533   6.914   9.437  0.4991  0.8920  0.1327
  117OSM   H12G12348   3.465   7.012   9.578  1.1203  0.4700 -0.7715
  117OSM   C13F12349   3.351   7.016   9.406 -0.4298  0.7783  0.1059
  117OSM   H13F12350   3.256   7.038   9.460 -0.6750  2.6091 -0.9821
  117OSM   H13G12351   3.329   6.953   9.317 -2.8140  1.2693  0.2582
  117OSM   C14F12352   3.395   7.156   9.355 -0.0878 -0.0710  0.0421
  117OSM   H14F12353   3.398   7.223   9.444 -2.6086 -0.3254  0.4096
  117OSM   H14G12354   3.305   7.187   9.297 -0.3834 -0.8995  0.0414
  117OSM   C15F12355   3.524   7.146   9.268 -0.1019 -0.3343 -0.4287
  117OSM   H15F12356   3.588   7.071   9.319 -0.1585 -1.4667 -1.9599
  117OSM   H15G12357   3.573   7.245   9.258 -0.8828  0.5729  3.1205
  117OSM   C16F12358   3.515   7.084   9.132  0.1647 -0.1780  0.8028
  117OSM   H16F12359   3.444   7.142   9.069  1.0533 -2.2917 -2.3924
  117OSM   H16G12360   3.477   6.981   9.150 -0.3270  0.0797  1.2692
  117OSM   C17F12361   3.655   7.080   9.072  0.3428 -0.1725 -0.4613
  117OSM   H17F12362   3.722   7.043   9.153 -0.3522  0.9198  0.6561
  117OSM   H17G12363   3.694   7.183   9.054  2.0429 -0.2577  2.1843
  117OSM   C18F12364   3.665   6.999   8.946 -0.2210 -0.6379 -0.4255
  117OSM   H18F12365   3.600   7.049   8.871 -2.5692 -0.0737  1.8535
  117OSM   H18G12366   3.622   6.898   8.955 -0.5701 -0.6581 -2.0609
  117OSM   H18H12367   3.771   6.991   8.912 -0.2485  0.8546 -0.9641
  118OSM      N12368   3.954   0.934  11.499 -0.1074 -0.1148 -0.6908
  118OSM    C1512369   3.923   0.800  11.441 -0.9850 -0.7700  0.3207
  118OSM   H15A12370   3.978   0.798  11.348  0.4935 -0.9901  1.1608
  118OSM   H15B12371   3.818   0.785  11.422 -1.0289  0.2641 -0.3515
  118OSM   H15C12372   3.968   0.712  11.485 -0.5456 -1.5897 -1.6821
  118OSM    C1412373   3.892   0.940  11.632  0.0020  0.0505  0.4222
  118OSM   H14A12374   3.930   0.860  11.694 -1.7939 -0.9659  0.2904
  118OSM   H14B12375   3.785   0.933  11.621  0.0397  1.6709 -1.3533
  118OSM   H14C12376   3.907   1.028  11.693  1.9876  0.4311 -0.5356
  118OSM    C1312377   4.098   0.959  11.498 -0.1838  1.2252  0.6413
  118OSM   H13A12378   4.134   0.960  11.397 -1.4974 -0.3400  0.1130
  118OSM   H13B12379   4.141   0.889  11.569 -2.0610 -1.2237 -0.4860
  118OSM   H13C12380   4.115   1.062  11.526  0.3224  1.5297 -0.7541
  118OSM    C1212381   3.892   1.045  11.417  0.7825  0.5128 -0.5118
  118OSM   H12A12382   3.943   1.059  11.322  0.0782  0.4666 -0.9051
  118OSM   H12B12383   3.908   1.139  11.468  0.5227  0.5379 -0.4754
  118OSM    C1112384   3.748   1.022  11.370  0.0942  0.6093 -0.2267
  118OSM   H11A12385   3.696   1.120  11.358  0.6142  1.1785  1.7765
  118OSM   H11B12386   3.698   0.959  11.447  0.8285 -1.3889 -1.2956
  118OSM      P12387   3.785   1.010  11.105  0.4615 -0.2090 -0.7569
  118OSM    O1312388   3.912   1.083  11.120  0.1150 -0.2830 -0.5660
  118OSM    O1412389   3.779   0.902  11.005 -0.6561  0.1511  0.5031
  118OSM    O1112390   3.659   1.101  11.079 -0.0607 -0.6548 -0.3010
  118OSM    O1212391   3.755   0.950  11.253  0.9523  0.6145 -0.6192
  118OSM    C1S12392   3.686   1.217  10.999 -0.1703  0.0933 -0.3161
  118OSM    H1S12393   3.782   1.268  11.024  1.0818 -1.6312 -1.3876
  118OSM    H1T12394   3.606   1.293  11.010  0.1196  0.5667 -1.3620
  118OSM     NF12395   3.754   1.283  10.765 -0.3924  0.5176 -0.1885
  118OSM    HNF12396   3.705   1.365  10.735  1.2397  3.1620  3.5091
  118OSM    C2S12397   3.685   1.180  10.843 -0.2351 -0.2982  0.0551
  118OSM    H2S12398   3.736   1.081  10.835  0.9232 -0.0254  2.7202
  118OSM    C3S12399   3.535   1.157  10.799 -0.6428  0.0439 -0.0150
  118OSM    H3S12400   3.488   1.258  10.800 -0.2231  0.2380  1.1430
  118OSM     O312401   3.452   1.077  10.884  0.2775 -0.1193 -0.1072
  118OSM    HO312402   3.509   1.057  10.958 -0.7689  0.4818  0.8850
  118OSM    C4S12403   3.536   1.098  10.663 -0.2816 -0.1854  0.2060
  118OSM    H4S12404   3.603   1.011  10.665  2.0136  1.4605 -1.1239
  118OSM    C5S12405   3.475   1.130  10.553  0.1797  0.1577 -0.2554
  118OSM    H5S12406   3.406   1.215  10.560  0.7353  0.6564 -0.7189
  118OSM    C6S12407   3.493   1.059  10.422 -0.2809 -0.2846 -0.3423
  118OSM    H6S12408   3.580   1.113  10.380 -1.0907  1.2044 -0.1887
  118OSM    H6T12409   3.404   1.093  10.363  0.3908 -0.2951 -1.3913
  118OSM    C7S12410   3.508   0.906  10.427  0.5044 -0.0571  0.0330
  118OSM    H7S12411   3.419   0.870  10.482  0.0540 -1.1677 -1.3524
  118OSM    H7T12412   3.594   0.878  10.492  0.2556  0.9649  0.8212
  118OSM    C8S12413   3.516   0.839  10.287  0.0008  0.6553 -0.9000
  118OSM    H8S12414   3.416   0.830  10.240  0.2173  1.8985 -1.6496
  118OSM    H8T12415   3.568   0.741  10.297  2.6837  2.0286 -0.4992
  118OSM    C9S12416   3.617   0.915  10.191 -0.3308  0.4992  0.2992
  118OSM    H9S12417   3.708   0.932  10.252 -0.0337  0.8644 -0.2420
  118OSM    H9T12418   3.563   1.005  10.155  1.2706  1.7784  0.9412
  118OSM   C10S12419   3.654   0.822  10.068  0.1117  0.3816  0.1728
  118OSM   H10S12420   3.630   0.714  10.083 -1.1696  0.8523  1.8954
  118OSM   H10T12421   3.759   0.836  10.036 -0.5444  1.7735 -1.5644
  118OSM   C11S12422   3.562   0.862   9.952 -0.4524  0.1713 -0.2121
  118OSM   H11S12423   3.559   0.973   9.947 -0.3266  0.2316  0.9422
  118OSM   H11T12424   3.456   0.832   9.969 -0.7578  1.8348  1.0279
  118OSM   C12S12425   3.608   0.814   9.817 -0.5669 -0.4752 -0.0411
  118OSM   H12S12426   3.622   0.704   9.820  0.3282 -0.3489  2.0089
  118OSM   H12T12427   3.705   0.859   9.786 -1.7312  0.7323 -2.2458
  118OSM   C13S12428   3.503   0.835   9.716 -0.2706 -0.3375  0.3578
  118OSM   H13S12429   3.476   0.942   9.702 -0.6434 -0.5511 -0.7031
  118OSM   H13T12430   3.415   0.780   9.755  0.5484 -0.3761  2.2092
  118OSM   C14S12431   3.532   0.767   9.574 -0.4652  0.5288  0.5901
  118OSM   H14S12432   3.439   0.765   9.514  1.3031  1.5796 -2.3755
  118OSM   H14T12433   3.564   0.661   9.584  1.9458  1.0417 -0.8805
  118OSM   C15S12434   3.636   0.843   9.494 -0.1447  0.2366 -0.3693
  118OSM   H15S12435   3.731   0.823   9.547 -0.2082 -1.6827 -0.8964
  118OSM   H15T12436   3.628   0.954   9.492  2.0809  0.4271 -0.2870
  118OSM   C16S12437   3.662   0.793   9.346  0.2048  0.3403  0.1881
  118OSM   H16S12438   3.661   0.682   9.337  2.1291  0.3391 -0.5614
  118OSM   H16T12439   3.766   0.818   9.314  0.0701 -0.5794 -1.0350
  118OSM   C17S12440   3.557   0.848   9.249 -1.0186 -0.0433  0.2356
  118OSM   H17S12441   3.551   0.958   9.237  0.0552 -0.0509 -0.5076
  118OSM   H17T12442   3.456   0.820   9.283 -1.8241  2.3353 -0.0086
  118OSM   C18S12443   3.579   0.800   9.108 -0.0187  0.4507  0.2687
  118OSM   H18S12444   3.600   0.692   9.114 -0.4587  0.4250  2.9820
  118OSM   H18T12445   3.673   0.842   9.067  0.1779  0.3825  0.6391
  118OSM   H18U12446   3.495   0.828   9.041  0.3168  0.0152 -0.3305
  118OSM    C1F12447   3.889   1.293  10.760  0.3157  0.5468 -0.2724
  118OSM     OF12448   3.961   1.215  10.819  0.3466  0.1904  0.0188
  118OSM    C2F12449   3.945   1.407  10.677 -0.4087  0.0375  0.2141
  118OSM    H2F12450   4.035   1.431  10.737 -0.2442 -0.2187  0.0692
  118OSM    H2G12451   3.875   1.493  10.689  0.1209  0.2070  2.7521
  118OSM    C3F12452   3.983   1.370  10.537  0.3258 -0.5155  0.3619
  118OSM    H3F12453   4.038   1.275  10.521  0.1583 -0.6694  0.7033
  118OSM    H3G12454   4.056   1.446  10.501  0.6303 -1.4551 -1.0681
  118OSM    C4F12455   3.856   1.374  10.445  0.1297 -0.1127 -0.3287
  118OSM    H4F12456   3.786   1.452  10.482 -1.2576 -1.6975  0.5487
  118OSM    H4G12457   3.802   1.277  10.447  1.8607 -1.1467 -1.4032
  118OSM    C5F12458   3.899   1.414  10.309 -0.0674 -0.1368  0.7624
  118OSM    H5F12459   3.903   1.524  10.295 -0.8403 -0.4173 -2.3012
  118OSM    H5G12460   3.809   1.399  10.245  1.2463 -4.8319 -0.3947
  118OSM    C6F12461   3.999   1.328  10.234  0.0308  1.0144 -0.8518
  118OSM    H6F12462   3.954   1.227  10.226 -1.0964  1.5617 -1.6440
  118OSM    H6G12463   4.096   1.331  10.289  0.4931 -0.5988 -1.5451
  118OSM    C7F12464   4.028   1.370  10.093 -0.3365 -0.0725 -0.3623
  118OSM    H7F12465   4.100   1.298  10.048  0.5645  1.0936 -0.8662
  118OSM    H7G12466   4.088   1.464  10.099  0.9170 -0.5930 -2.9125
  118OSM    C8F12467   3.918   1.377   9.995 -0.7001  0.0103 -0.7066
  118OSM    H8F12468   3.971   1.409   9.902  0.3120 -1.3938 -0.6337
  118OSM    H8G12469   3.841   1.449  10.031  1.3429  1.9070  0.0972
  118OSM    C9F12470   3.840   1.251   9.962 -0.1669  0.5630  0.5824
  118OSM    H9F12471   3.817   1.202  10.058 -1.1041 -1.1067 -0.4488
  118OSM   C10F12472   3.804   1.207   9.835 -0.3274 -0.0689 -0.2290
  118OSM   H10F12473   3.750   1.113   9.819 -1.4228  0.3912  0.5740
  118OSM   C11F12474   3.841   1.268   9.704  0.1288 -0.3001 -0.4576
  118OSM   H11F12475   3.834   1.379   9.713 -2.4295 -0.3209 -1.3627
  118OSM   H11G12476   3.778   1.238   9.618  0.3067  0.1593 -0.7530
  118OSM   C12F12477   3.985   1.226   9.670  0.7921  0.0820  1.0596
  118OSM   H12F12478   4.007   1.119   9.690 -1.4147 -0.8241 -0.8491
  118OSM   H12G12479   4.055   1.285   9.733 -0.9120  1.9488  1.3100
  118OSM   C13F12480   4.023   1.242   9.524  0.3770 -0.4468  1.2544
  118OSM   H13F12481   4.130   1.217   9.514  0.9625  2.3948 -0.7076
  118OSM   H13G12482   4.031   1.345   9.482 -0.4530 -0.8447  0.0695
  118OSM   C14F12483   3.937   1.149   9.424  0.5020 -0.6119 -0.1315
  118OSM   H14F12484   3.832   1.184   9.426  1.3604  2.1348  0.3968
  118OSM   H14G12485   3.931   1.043   9.458 -1.7313 -0.7513 -0.8406
  118OSM   C15F12486   3.981   1.161   9.277 -0.7991 -0.2187 -0.6065
  118OSM   H15F12487   4.075   1.101   9.275  0.1257  1.0986  0.8570
  118OSM   H15G12488   4.004   1.263   9.241  0.6826  0.1370  1.1618
  118OSM   C16F12489   3.878   1.110   9.184  0.3198  0.2615  0.6079
  118OSM   H16F12490   3.846   1.005   9.199 -2.0619  0.7941 -0.3528
  118OSM   H16G12491   3.925   1.107   9.084 -0.8700  1.2755 -0.0092
  118OSM   C17F12492   3.750   1.184   9.167 -0.3666  0.5114  0.5096
  118OSM   H17F12493   3.775   1.290   9.192 -1.5010  0.2026  3.3585
  118OSM   H17G12494   3.679   1.151   9.246 -1.0899  1.7526  0.4062
  118OSM   C18F12495   3.680   1.180   9.033 -0.5572 -0.1278 -0.0660
  118OSM   H18F12496   3.688   1.079   8.989 -1.5698 -0.0623 -0.4365
  118OSM   H18G12497   3.743   1.234   8.959  3.4973 -1.6807  1.9858
  118OSM   H18H12498   3.575   1.214   9.044  0.1432  2.2973 -0.2332
  119OSM      N12499   4.947   0.638  10.982 -0.2050  0.0878  0.0876
  119OSM    C1512500   5.021   0.567  11.096 -0.5048 -0.0510 -0.2275
  119OSM   H15A12501   5.121   0.541  11.065 -0.0552  1.9678 -0.5820
  119OSM   H15B12502   4.968   0.477  11.126  0.8349 -0.5436  0.7210
  119OSM   H15C12503   5.026   0.634  11.179 -3.2473 -0.0604  0.0551
  119OSM    C1412504   4.823   0.703  11.032 -0.2531 -0.0330 -0.3022
  119OSM   H14A12505   4.793   0.762  10.946  0.9129 -2.3202 -2.4212
  119OSM   H14B12506   4.837   0.774  11.112  1.4097  0.2892 -0.8326
  119OSM   H14C12507   4.741   0.635  11.047  2.2333 -2.7153  2.2141
  119OSM    C1312508   5.044   0.746  10.931  0.0544  0.1981 -0.0237
  119OSM   H13A12509   5.012   0.789  10.837 -0.1864  1.9083  0.7952
  119OSM   H13B12510   5.145   0.708  10.930  0.2544  0.6979  0.4990
  119OSM   H13C12511   5.044   0.829  11.001 -1.7575  1.0527 -0.9517
  119OSM    C1212512   4.917   0.539  10.862  0.3853 -0.2395  0.1720
  119OSM   H12A12513   4.856   0.595  10.792 -0.5404 -0.1926  0.9976
  119OSM   H12B12514   4.860   0.453  10.892 -1.0107  1.2129  2.0006
  119OSM    C1112515   5.047   0.485  10.800  0.0343 -0.1413  0.6079
  119OSM   H11A12516   5.104   0.561  10.741 -0.0626 -0.8960 -0.4870
  119OSM   H11B12517   5.011   0.423  10.715 -0.2507 -3.2315  2.8161
  119OSM      P12518   5.090   0.270  10.942 -0.0972 -0.4230  0.5698
  119OSM    O1312519   5.128   0.259  11.089  0.6847  0.1421  0.3946
  119OSM    O1412520   4.944   0.247  10.918  0.1760 -0.2042 -0.1403
  119OSM    O1112521   5.182   0.168  10.857 -0.6119 -0.2890  0.4952
  119OSM    O1212522   5.128   0.412  10.890 -0.1060  0.2347 -0.1398
  119OSM    C1S12523   5.167   0.153  10.716  0.1851 -0.8913 -0.6906
  119OSM    H1S12524   5.185   0.253  10.671 -2.2170  0.6963  1.6224
  119OSM    H1T12525   5.062   0.128  10.691 -0.2810  0.9312 -0.6695
  119OSM     NF12526   5.210   0.019  10.505  0.6613 -1.2743 -0.1353
  119OSM    HNF12527   5.163  -0.066  10.482  1.3761 -1.6555 -0.2022
  119OSM    C2S12528   5.246   0.034  10.645 -0.3270 -1.5734  0.3083
  119OSM    H2S12529   5.353   0.061  10.657 -0.4352 -0.6449 -0.7447
  119OSM    C3S12530   5.226  -0.099  10.720  0.2025 -0.2053 -0.0090
  119OSM    H3S12531   5.120  -0.127  10.699  0.1291  1.3512 -2.1027
  119OSM     O312532   5.235  -0.095  10.860 -0.3662 -0.0773 -0.1814
  119OSM    HO312533   5.226  -0.000  10.874 -1.8482  0.2360 -2.6833
  119OSM    C4S12534   5.327  -0.200  10.678 -0.0755  0.8268 -0.0057
  119OSM    H4S12535   5.415  -0.157  10.628 -1.1081  1.0718 -1.6480
  119OSM    C5S12536   5.321  -0.343  10.675  0.7822 -0.2004  0.0062
  119OSM    H5S12537   5.230  -0.392  10.712  0.4424  0.0817 -0.4397
  119OSM    C6S12538   5.419  -0.443  10.639 -0.4715 -0.6543 -1.2397
  119OSM    H6S12539   5.408  -0.527  10.711 -1.7994  1.4922  1.2092
  119OSM    H6T12540   5.523  -0.405  10.650 -1.2702  1.0254  1.1779
  119OSM    C7S12541   5.400  -0.509  10.495  0.2200 -0.5426 -0.7216
  119OSM    H7S12542   5.300  -0.557  10.502 -0.7647  1.5751  3.2906
  119OSM    H7T12543   5.462  -0.599  10.480  0.4267 -0.4350 -0.5285
  119OSM    C8S12544   5.394  -0.401  10.387 -0.2355 -0.6868 -0.9611
  119OSM    H8S12545   5.489  -0.343  10.393 -1.3028  0.9671  1.5669
  119OSM    H8T12546   5.306  -0.333  10.399 -0.9723 -1.9380  1.2745
  119OSM    C9S12547   5.392  -0.466  10.247 -0.1688  0.3444  0.4246
  119OSM    H9S12548   5.302  -0.530  10.235 -0.0109 -0.1349  1.6302
  119OSM    H9T12549   5.486  -0.524  10.234  0.3181  1.2396 -0.1709
  119OSM   C10S12550   5.379  -0.360  10.134  0.4897 -0.4129  0.1876
  119OSM   H10S12551   5.472  -0.301  10.140  0.8107 -0.9555  0.6406
  119OSM   H10T12552   5.303  -0.281  10.150  0.9389 -0.4426  2.7900
  119OSM   C11S12553   5.369  -0.415   9.990 -0.1269 -0.5217 -0.3360
  119OSM   H11S12554   5.265  -0.453   9.982 -0.3729 -0.0439  0.4644
  119OSM   H11T12555   5.443  -0.493   9.963  1.8292  0.6379  1.3932
  119OSM   C12S12556   5.395  -0.299   9.891 -0.8248  0.2562 -0.9531
  119OSM   H12S12557   5.501  -0.271   9.911 -0.9260  0.2672 -0.3960
  119OSM   H12T12558   5.339  -0.204   9.903 -0.7566  0.4378 -2.0182
  119OSM   C13S12559   5.392  -0.346   9.752  0.0366  0.0278 -0.6997
  119OSM   H13S12560   5.481  -0.405   9.723 -1.0627 -2.7378  1.1156
  119OSM   H13T12561   5.408  -0.249   9.701 -0.6052  0.2813 -0.4317
  119OSM   C14S12562   5.256  -0.402   9.707 -0.0759  0.4483  1.0239
  119OSM   H14S12563   5.170  -0.350   9.754  1.6011  2.4966  1.9950
  119OSM   H14T12564   5.258  -0.511   9.732  1.1723 -0.5161 -2.6762
  119OSM   C15S12565   5.239  -0.398   9.556 -0.6571 -0.5900  0.4309
  119OSM   H15S12566   5.315  -0.467   9.515 -0.8320  0.3803 -1.6695
  119OSM   H15T12567   5.259  -0.297   9.515  2.8160 -1.0468  0.7034
  119OSM   C16S12568   5.100  -0.442   9.493 -0.1738 -0.7497  0.8301
  119OSM   H16S12569   5.029  -0.371   9.540  0.8270  1.2841 -0.5829
  119OSM   H16T12570   5.065  -0.541   9.530  2.1975 -1.1504  2.1588
  119OSM   C17S12571   5.079  -0.431   9.341  0.2088 -0.3364 -0.4130
  119OSM   H17S12572   4.975  -0.456   9.314 -0.1308  1.6182 -1.1015
  119OSM   H17T12573   5.132  -0.524   9.311 -1.6488 -1.2572 -0.9669
  119OSM   C18S12574   5.109  -0.302   9.262  0.2448 -0.2548  0.1082
  119OSM   H18S12575   5.057  -0.216   9.310  1.1310  0.1547  0.3517
  119OSM   H18T12576   5.080  -0.319   9.156  1.8353  0.3164 -0.4414
  119OSM   H18U12577   5.218  -0.290   9.282  0.2770 -1.1992  0.5873
  119OSM    C1F12578   5.224   0.113  10.413 -0.2809  0.0240  0.1337
  119OSM     OF12579   5.261   0.228  10.443  0.1686  0.6858 -0.6144
  119OSM    C2F12580   5.195   0.074  10.269  0.0761  0.2108  0.3435
  119OSM    H2F12581   5.089   0.042  10.262  0.1840  0.1608 -2.0397
  119OSM    H2G12582   5.249  -0.019  10.242 -0.4792  0.5061 -2.0914
  119OSM    C3F12583   5.213   0.181  10.169 -0.1738 -0.4416 -0.1765
  119OSM    H3F12584   5.318   0.219  10.179  0.5713 -2.4661  0.0973
  119OSM    H3G12585   5.148   0.269  10.189  0.6199  0.1210  0.0274
  119OSM    C4F12586   5.188   0.130  10.024  0.2201 -0.6336 -0.0406
  119OSM    H4F12587   5.136   0.032  10.029  1.6398 -1.4132 -0.2128
  119OSM    H4G12588   5.277   0.114   9.959  1.4246 -1.0272  1.6425
  119OSM    C5F12589   5.098   0.221   9.939 -0.2029 -0.2501 -0.5564
  119OSM    H5F12590   5.141   0.323   9.946  2.5530 -1.3605  0.3223
  119OSM    H5G12591   5.005   0.217   9.999  0.1035  0.3104 -0.0340
  119OSM    C6F12592   5.086   0.162   9.796 -1.3598  0.3227  0.4893
  119OSM    H6F12593   5.183   0.177   9.744 -1.8727  1.3165 -0.1968
  119OSM    H6G12594   5.018   0.231   9.743 -0.5556  0.9756  0.2942
  119OSM    C7F12595   5.044   0.017   9.800  0.5503 -0.3475  0.3007
  119OSM    H7F12596   4.980  -0.004   9.888  1.3199  0.0026  0.9510
  119OSM    H7G12597   5.130  -0.048   9.827  0.8433  0.9141  2.6759
  119OSM    C8F12598   4.987  -0.020   9.659 -0.1091  0.5456 -0.1863
  119OSM    H8F12599   4.993  -0.131   9.663  2.4917  0.6564  1.8656
  119OSM    H8G12600   5.052   0.016   9.577  0.2201  0.5342  0.0674
  119OSM    C9F12601   4.849   0.010   9.641 -0.3418 -0.4619  0.0656
  119OSM    H9F12602   4.786  -0.039   9.717  0.3422 -1.5120 -0.0226
  119OSM   C10F12603   4.792   0.078   9.542 -0.6511  0.3464  0.0841
  119OSM   H10F12604   4.684   0.094   9.557 -0.2378  0.7235  3.1863
  119OSM   C11F12605   4.854   0.154   9.423 -0.0330  0.4710 -0.3354
  119OSM   H11F12606   4.964   0.153   9.444  0.2555 -2.0709 -1.4945
  119OSM   H11G12607   4.815   0.257   9.416 -1.8784  0.1918  3.2205
  119OSM   C12F12608   4.836   0.080   9.286 -0.3538  0.1505 -0.0474
  119OSM   H12F12609   4.728   0.070   9.264 -0.5985 -0.4443  1.3140
  119OSM   H12G12610   4.866  -0.027   9.275 -1.0385 -0.0155 -0.3595
  119OSM   C13F12611   4.899   0.151   9.169  0.0577 -0.4221 -0.2792
  119OSM   H13F12612   4.866   0.257   9.164  0.1739 -0.2380  1.8692
  119OSM   H13G12613   4.854   0.105   9.078 -1.1038  0.1190 -0.0027
  119OSM   C14F12614   5.054   0.147   9.158 -0.3271  0.8249 -0.5773
  119OSM   H14F12615   5.081   0.040   9.154  0.8423  1.0939 -0.2517
  119OSM   H14G12616   5.100   0.182   9.253 -2.4840  0.8342  0.5250
  119OSM   C15F12617   5.122   0.213   9.038  0.5307  0.2783  0.5624
  119OSM   H15F12618   5.231   0.233   9.044  0.7802 -0.7763 -0.2149
  119OSM   H15G12619   5.074   0.313   9.047  2.4867  1.1373  2.2002
  119OSM   C16F12620   5.093   0.155   8.898 -0.5217  0.3217  0.8343
  119OSM   H16F12621   4.984   0.150   8.878 -0.4229 -0.2333  0.3992
  119OSM   H16G12622   5.116   0.046   8.889  0.1560  0.5427 -0.4219
  119OSM   C17F12623   5.149   0.239   8.774 -0.1252  0.3670  0.1615
  119OSM   H17F12624   5.115   0.344   8.787 -0.5966  0.3177 -0.6160
  119OSM   H17G12625   5.105   0.200   8.681 -0.0321 -1.5261  0.8657
  119OSM   C18F12626   5.306   0.237   8.767 -0.0365 -0.6198 -0.3958
  119OSM   H18F12627   5.335   0.137   8.730 -0.6733 -1.2453  0.7374
  119OSM   H18G12628   5.335   0.260   8.872 -1.6535  0.5546 -0.1631
  119OSM   H18H12629   5.351   0.305   8.692  0.5558 -2.0510 -1.3784
  120OSM      N12630   3.248   4.205  10.972 -0.4590 -0.6974  0.4631
  120OSM    C1512631   3.146   4.125  10.889  0.1785  0.6828  0.8989
  120OSM   H15A12632   3.109   4.174  10.800 -0.2925  0.7350  1.1198
  120OSM   H15B12633   3.062   4.103  10.953  1.1479  1.7677  2.6297
  120OSM   H15C12634   3.184   4.030  10.855 -2.3361 -0.0329 -0.1005
  120OSM    C1412635   3.199   4.350  10.981  0.4960 -0.1099  0.4570
  120OSM   H14A12636   3.105   4.364  11.032  2.2082  1.1115  3.5331
  120OSM   H14B12637   3.179   4.395  10.885  0.1067 -2.6069 -0.7092
  120OSM   H14C12638   3.276   4.414  11.021 -0.6913  1.3536  0.4840
  120OSM    C1312639   3.261   4.153  11.106  0.5756 -0.0994  0.9795
  120OSM   H13A12640   3.322   4.222  11.163  0.9252  3.0576 -2.8131
  120OSM   H13B12641   3.303   4.055  11.117 -0.8567 -0.7937  0.4903
  120OSM   H13C12642   3.162   4.152  11.149 -0.2639 -0.8881 -0.8558
  120OSM    C1212643   3.385   4.214  10.901 -0.0278  0.4358  0.5939
  120OSM   H12A12644   3.416   4.111  10.886 -0.1405  0.0882  2.5558
  120OSM   H12B12645   3.461   4.251  10.968  2.1011 -0.9841 -0.9003
  120OSM    C1112646   3.389   4.294  10.768 -0.2313  0.0838  0.7788
  120OSM   H11A12647   3.400   4.404  10.782  0.8359  0.5275 -2.4929
  120OSM   H11B12648   3.294   4.285  10.712  0.8627  0.2592 -1.2358
  120OSM      P12649   3.542   4.122  10.632  0.0123  0.3626  0.4073
  120OSM    O1312650   3.665   4.138  10.551  0.4452  0.1073  0.0211
  120OSM    O1412651   3.555   4.028  10.745 -0.1543  0.1496  0.2515
  120OSM    O1112652   3.430   4.070  10.538 -0.5175  0.4449 -0.1434
  120OSM    O1212653   3.495   4.252  10.682  0.5992 -0.1399 -0.1003
  120OSM    C1S12654   3.402   4.151  10.429  0.3438  0.8050 -0.6577
  120OSM    H1S12655   3.490   4.157  10.361  0.4448 -0.0816 -0.6168
  120OSM    H1T12656   3.372   4.254  10.457 -1.0732  0.4029 -0.6603
  120OSM     NF12657   3.262   4.160  10.227  0.2057  0.4301  0.5745
  120OSM    HNF12658   3.190   4.228  10.216 -1.1448 -1.0682 -0.2709
  120OSM    C2S12659   3.276   4.090  10.356  0.3750 -0.1130  0.9169
  120OSM    H2S12660   3.302   3.982  10.346  0.8136  0.0705 -0.0405
  120OSM    C3S12661   3.144   4.103  10.442 -0.2064 -0.4004  0.7862
  120OSM    H3S12662   3.136   4.208  10.476 -1.6468  1.6228 -4.7982
  120OSM     O312663   3.156   4.030  10.566 -0.5730  0.4765 -0.1054
  120OSM    HO312664   3.250   4.023  10.584 -1.0161 -0.8682  2.0624
  120OSM    C4S12665   3.021   4.071  10.363 -0.4124 -0.1208 -0.9348
  120OSM    H4S12666   2.977   4.159  10.315  1.4917  1.7032  0.4621
  120OSM    C5S12667   2.979   3.951  10.330  1.2230  0.6486 -0.1637
  120OSM    H5S12668   3.007   3.855  10.376 -0.8600  0.3556  0.6148
  120OSM    C6S12669   2.862   3.934  10.235 -0.5756 -0.3915  0.3586
  120OSM    H6S12670   2.891   3.967  10.133  1.4739  0.8093  1.2543
  120OSM    H6T12671   2.768   3.986  10.265 -1.4354 -0.1840 -2.4282
  120OSM    C7S12672   2.843   3.779  10.228  0.0598 -0.1953  0.8152
  120OSM    H7S12673   2.815   3.743  10.329 -0.4286  0.7750  1.0360
  120OSM    H7T12674   2.939   3.729  10.203  1.5472  2.4330  0.8143
  120OSM    C8S12675   2.736   3.742  10.125  0.0969 -0.2715 -0.2526
  120OSM    H8S12676   2.647   3.805  10.147 -0.9691 -1.7877 -0.0363
  120OSM    H8T12677   2.708   3.636  10.141 -1.8916 -0.1589 -2.3868
  120OSM    C9S12678   2.772   3.767   9.977 -0.1003  0.2748  0.0025
  120OSM    H9S12679   2.871   3.722   9.953  0.8665  2.2060  0.1774
  120OSM    H9T12680   2.783   3.871   9.941 -1.3657  0.4356  0.0145
  120OSM   C10S12681   2.670   3.701   9.884 -0.2426 -0.0620 -0.5632
  120OSM   H10S12682   2.581   3.766   9.896 -0.2870 -0.2397  0.1091
  120OSM   H10T12683   2.648   3.595   9.909 -2.3160  0.9095  2.1350
  120OSM   C11S12684   2.700   3.731   9.737 -0.4359  0.3621  0.2336
  120OSM   H11S12685   2.802   3.702   9.703 -0.9903 -1.3334 -0.1202
  120OSM   H11T12686   2.697   3.840   9.715  0.0085  0.3081 -0.1265
  120OSM   C12S12687   2.589   3.662   9.643  0.0049 -0.3533  0.8610
  120OSM   H12S12688   2.496   3.716   9.670 -1.5765 -0.1333 -4.1381
  120OSM   H12T12689   2.576   3.556   9.674 -0.2550 -0.7098 -0.4215
  120OSM   C13S12690   2.617   3.673   9.498  0.9414 -0.4868  0.4429
  120OSM   H13S12691   2.707   3.613   9.471 -0.7130 -1.5368 -3.2791
  120OSM   H13T12692   2.625   3.774   9.454  0.5643 -0.7812 -0.3038
  120OSM   C14S12693   2.508   3.617   9.413 -0.1897  0.0787 -0.3312
  120OSM   H14S12694   2.410   3.666   9.432 -0.5634 -0.1038 -1.6988
  120OSM   H14T12695   2.487   3.517   9.455 -1.2037  0.0431 -0.9050
  120OSM   C15S12696   2.550   3.582   9.273 -0.1023  0.2408  0.2828
  120OSM   H15S12697   2.634   3.510   9.267 -1.0432 -0.7946 -1.1938
  120OSM   H15T12698   2.588   3.675   9.225 -0.6317  0.1401 -0.3453
  120OSM   C16S12699   2.444   3.528   9.182 -0.0876 -0.0911 -0.0510
  120OSM   H16S12700   2.355   3.588   9.208 -0.2602 -0.7816  1.0026
  120OSM   H16T12701   2.408   3.429   9.218  2.6865 -2.6211 -3.4897
  120OSM   C17S12702   2.476   3.519   9.033  0.2720  0.4181  0.3374
  120OSM   H17S12703   2.523   3.421   9.008  1.8520  0.9524  1.0407
  120OSM   H17T12704   2.550   3.595   9.002  1.4704 -0.9189 -0.1891
  120OSM   C18S12705   2.350   3.538   8.947 -0.1193  0.3800 -0.1365
  120OSM   H18S12706   2.381   3.537   8.840  1.8590  1.6306  0.3747
  120OSM   H18T12707   2.294   3.629   8.975  0.7969  0.3215  2.0352
  120OSM   H18U12708   2.283   3.450   8.958 -0.0907  0.4369  0.5037
  120OSM    C1F12709   3.337   4.120  10.124 -0.5950 -0.3033  0.2214
  120OSM     OF12710   3.396   4.013  10.131  0.2734  0.0611  0.1107
  120OSM    C2F12711   3.356   4.204  10.000 -0.3132  0.2956  0.5480
  120OSM    H2F12712   3.449   4.264  10.017  1.4704 -1.9781 -0.6135
  120OSM    H2G12713   3.267   4.267   9.981  1.6178  2.4651 -2.3530
  120OSM    C3F12714   3.374   4.122   9.875 -0.0078  0.2576  0.3461
  120OSM    H3F12715   3.282   4.062   9.862  0.5420 -0.4187 -0.6578
  120OSM    H3G12716   3.463   4.055   9.884  0.0775  0.2607 -0.4052
  120OSM    C4F12717   3.377   4.211   9.745 -0.3746 -0.1643 -0.4419
  120OSM    H4F12718   3.462   4.279   9.769  0.6338 -0.8341 -1.9106
  120OSM    H4G12719   3.292   4.277   9.721  0.1675  1.0569  0.8850
  120OSM    C5F12720   3.409   4.116   9.628 -0.2657  0.0399  0.3425
  120OSM    H5F12721   3.330   4.038   9.619 -0.4947  0.2286  0.7246
  120OSM    H5G12722   3.505   4.074   9.664 -0.0524  0.3376  0.1364
  120OSM    C6F12723   3.426   4.194   9.495 -0.1182 -1.0151  0.2412
  120OSM    H6F12724   3.521   4.250   9.510 -0.5505  1.0354 -3.3981
  120OSM    H6G12725   3.348   4.270   9.473  1.1960  0.0576 -0.8982
  120OSM    C7F12726   3.448   4.105   9.371  0.2590  0.0497  0.0091
  120OSM    H7F12727   3.360   4.039   9.355  0.0717  0.5714 -1.2007
  120OSM    H7G12728   3.532   4.038   9.398  2.1294  1.1976 -2.5503
  120OSM    C8F12729   3.474   4.181   9.237  0.1093  0.1038 -0.0022
  120OSM    H8F12730   3.517   4.119   9.156 -0.0195 -1.0563  0.7906
  120OSM    H8G12731   3.559   4.249   9.261  2.0470 -2.0694 -0.3660
  120OSM    C9F12732   3.355   4.263   9.202 -0.2968 -0.1995  0.6235
  120OSM    H9F12733   3.340   4.354   9.262 -1.4021 -0.5852  0.9548
  120OSM   C10F12734   3.277   4.258   9.089 -0.7712 -0.2279  0.3161
  120OSM   H10F12735   3.199   4.333   9.072 -1.7621 -1.3564 -0.2920
  120OSM   C11F12736   3.291   4.157   8.976  0.1741 -0.4676 -0.4473
  120OSM   H11F12737   3.205   4.088   8.976  0.2992 -0.6452  0.6587
  120OSM   H11G12738   3.383   4.100   9.003  0.7745  0.7144  0.1083
  120OSM   C12F12739   3.329   4.226   8.845  0.0240  0.3057 -0.0051
  120OSM   H12F12740   3.439   4.239   8.837  0.3758 -2.3260 -0.1111
  120OSM   H12G12741   3.283   4.327   8.847  1.0620  0.7865  1.0664
  120OSM   C13F12742   3.302   4.153   8.718 -0.5287  0.1741 -0.2706
  120OSM   H13F12743   3.311   4.213   8.625 -0.3487 -0.2950 -0.5547
  120OSM   H13G12744   3.198   4.114   8.722 -0.9736  1.3827  2.8332
  120OSM   C14F12745   3.401   4.032   8.699  0.5244  0.0126  0.2051
  120OSM   H14F12746   3.406   3.974   8.794  0.0453 -0.5953 -0.1360
  120OSM   H14G12747   3.495   4.088   8.684 -0.0444  1.4336  1.6074
  120OSM   C15F12748   3.361   3.918   8.610 -0.4489  0.4562  0.4844
  120OSM   H15F12749   3.263   3.871   8.634 -0.0169  0.7692  3.1951
  120OSM   H15G12750   3.438   3.841   8.632  0.7645  1.9944  1.8522
  120OSM   C16F12751   3.368   3.973   8.461  1.1220  0.2926  0.1188
  120OSM   H16F12752   3.464   4.026   8.445  0.6233  0.7706 -1.5534
  120OSM   H16G12753   3.285   4.043   8.440  0.0727 -0.4417  1.6089
  120OSM   C17F12754   3.357   3.856   8.362 -0.1336 -0.0784  0.5219
  120OSM   H17F12755   3.327   3.897   8.263  0.9555  1.7456  0.8921
  120OSM   H17G12756   3.274   3.788   8.392  0.3161 -0.2652  1.3585
  120OSM   C18F12757   3.480   3.771   8.356 -0.0332  0.0252 -0.4592
  120OSM   H18F12758   3.466   3.711   8.264 -4.8030  1.8968 -1.2534
  120OSM   H18G12759   3.490   3.709   8.448 -2.5950  0.7507  0.3955
  120OSM   H18H12760   3.571   3.831   8.336 -0.6184  0.6189 -1.4113
  121OSM      N12761   3.234   5.242  10.853 -0.2462  0.0272 -0.1980
  121OSM    C1512762   3.152   5.268  10.974  0.4294 -0.6881 -0.1272
  121OSM   H15A12763   3.217   5.299  11.055  0.1280  0.1428 -0.1890
  121OSM   H15B12764   3.099   5.183  11.013  0.9132 -0.1419  1.8467
  121OSM   H15C12765   3.084   5.351  10.959 -0.2795 -1.5289 -1.7127
  121OSM    C1412766   3.341   5.142  10.887  0.3513 -1.1866 -0.3883
  121OSM   H14A12767   3.297   5.048  10.916 -1.7096 -0.4912 -1.0812
  121OSM   H14B12768   3.401   5.177  10.970 -0.0049  0.5802 -0.8348
  121OSM   H14C12769   3.407   5.128  10.804  2.2029 -0.9818  0.9877
  121OSM    C1312770   3.146   5.188  10.744  0.0299  0.8096  0.0647
  121OSM   H13A12771   3.205   5.184  10.653 -0.3279 -1.7197 -0.1279
  121OSM   H13B12772   3.057   5.249  10.736 -0.2923  0.1843 -1.9113
  121OSM   H13C12773   3.116   5.084  10.753 -1.9485  1.2042 -1.1574
  121OSM    C1212774   3.302   5.370  10.813  0.3534 -0.6287  0.1422
  121OSM   H12A12775   3.224   5.440  10.787  0.3245 -0.4041  0.8026
  121OSM   H12B12776   3.356   5.345  10.723  0.9638 -1.7132  0.7900
  121OSM    C1112777   3.396   5.457  10.911  0.1749  0.2818 -0.6459
  121OSM   H11A12778   3.450   5.543  10.865  0.9375  0.6989  0.9809
  121OSM   H11B12779   3.485   5.395  10.934 -0.0764 -0.2574 -1.0886
  121OSM      P12780   3.236   5.626  11.023  0.0248  0.3363  0.0390
  121OSM    O1312781   3.101   5.584  11.076 -0.0923  0.1709 -0.5724
  121OSM    O1412782   3.304   5.740  11.082 -0.2264 -0.4227  0.5436
  121OSM    O1112783   3.220   5.656  10.870 -0.0338 -0.1968 -0.9372
  121OSM    O1212784   3.325   5.495  11.030  0.3677  0.0089  0.3973
  121OSM    C1S12785   3.159   5.784  10.846  0.1615 -0.1574  0.5877
  121OSM    H1S12786   3.235   5.859  10.873 -0.5929  0.2588  1.6287
  121OSM    H1T12787   3.066   5.800  10.905 -1.0000 -0.2422 -1.1375
  121OSM     NF12788   3.027   5.929  10.676 -0.5534  0.1709 -0.4905
  121OSM    HNF12789   2.931   5.911  10.657 -1.4282  0.6769  2.8545
  121OSM    C2S12790   3.111   5.810  10.695 -0.3747  0.8476 -0.2049
  121OSM    H2S12791   3.194   5.846  10.631 -0.4928  3.7941  1.1131
  121OSM    C3S12792   3.056   5.677  10.625  0.0335  0.1533  0.4817
  121OSM    H3S12793   2.960   5.648  10.674  0.4080  0.4837  1.4478
  121OSM     O312794   3.138   5.569  10.633  0.3101 -0.2081  0.1537
  121OSM    HO312795   3.199   5.592  10.704  0.2256  0.7526 -0.0661
  121OSM    C4S12796   3.021   5.706  10.480 -0.6000 -1.0861  1.2678
  121OSM    H4S12797   2.933   5.772  10.483 -0.8349 -1.1620 -1.3716
  121OSM    C5S12798   3.077   5.678  10.365  0.5975 -0.1205  0.5117
  121OSM    H5S12799   3.175   5.628  10.366 -0.2269 -1.8085  1.7565
  121OSM    C6S12800   3.041   5.721  10.226  0.4716 -0.0340  0.9772
  121OSM    H6S12801   2.996   5.633  10.176  0.4233  0.5129  0.0150
  121OSM    H6T12802   3.135   5.742  10.171 -0.2520 -0.7538 -0.6227
  121OSM    C7S12803   2.939   5.841  10.211  0.0640 -0.2693  0.0419
  121OSM    H7S12804   2.987   5.923  10.269  0.6640 -0.8514  0.3882
  121OSM    H7T12805   2.839   5.816  10.251 -0.4319 -0.0628 -1.0533
  121OSM    C8S12806   2.905   5.877  10.063  0.0543  0.1983 -0.4756
  121OSM    H8S12807   2.815   5.942  10.063 -0.3430 -0.2918  0.9785
  121OSM    H8T12808   2.880   5.786  10.003  0.5606 -0.3413  0.1068
  121OSM    C9S12809   3.020   5.944   9.990  0.0934 -0.2468  0.5926
  121OSM    H9S12810   3.113   5.884   9.976  0.7846  0.9232  0.0327
  121OSM    H9T12811   3.065   6.028  10.046  2.3022 -0.8780 -0.1310
  121OSM   C10S12812   2.973   5.984   9.844 -0.2441 -0.4306 -0.2233
  121OSM   H10S12813   2.922   6.083   9.852 -1.5893 -1.1886  1.0660
  121OSM   H10T12814   2.897   5.907   9.819 -0.2101 -1.3878  2.3862
  121OSM   C11S12815   3.082   5.975   9.736  0.0053 -0.9154 -0.3702
  121OSM   H11S12816   3.144   5.883   9.747 -0.5216 -1.2803 -0.4143
  121OSM   H11T12817   3.152   6.059   9.758 -0.7747 -0.5811  0.9551
  121OSM   C12S12818   3.028   5.967   9.590  0.1105 -0.3174 -0.2289
  121OSM   H12S12819   2.957   5.883   9.574  0.3409 -0.4876 -0.3721
  121OSM   H12T12820   3.121   5.948   9.532  0.3677 -2.8626  0.8883
  121OSM   C13S12821   2.957   6.086   9.525  0.3943  0.4274 -0.0033
  121OSM   H13S12822   3.011   6.178   9.555  0.8564 -0.0068  0.5234
  121OSM   H13T12823   2.856   6.086   9.570  0.7122 -1.5284  0.8090
  121OSM   C14S12824   2.943   6.069   9.380 -0.0006 -0.4388  0.1925
  121OSM   H14S12825   2.885   5.982   9.343  3.9509 -3.3596  0.1956
  121OSM   H14T12826   3.040   6.057   9.326 -0.2195  0.9843 -0.5658
  121OSM   C15S12827   2.881   6.195   9.309 -0.5008  0.4232 -0.0509
  121OSM   H15S12828   2.934   6.283   9.351  1.6448 -2.1148  3.0225
  121OSM   H15T12829   2.778   6.199   9.348  0.0216  0.0299  1.4333
  121OSM   C16S12830   2.876   6.201   9.150  0.2702 -0.0342  0.5526
  121OSM   H16S12831   2.970   6.247   9.112  0.5737 -1.4861 -0.5257
  121OSM   H16T12832   2.789   6.264   9.122  0.3187  0.1609  0.8356
  121OSM   C17S12833   2.871   6.070   9.069 -0.3668  0.4405 -0.0554
  121OSM   H17S12834   2.803   5.997   9.118  0.0211  1.2519  1.7760
  121OSM   H17T12835   2.976   6.038   9.085  0.2102  2.4915  0.6003
  121OSM   C18S12836   2.846   6.075   8.913 -0.4007  0.5026 -0.2045
  121OSM   H18S12837   2.932   6.132   8.872 -1.6312  1.5201 -1.4488
  121OSM   H18T12838   2.747   6.111   8.877 -0.3212 -0.9522 -1.9745
  121OSM   H18U12839   2.861   5.971   8.878  0.5093  0.1658  1.1038
  121OSM    C1F12840   3.063   6.053  10.714 -0.4619  0.2574  0.3271
  121OSM     OF12841   3.180   6.085  10.729 -0.0174  0.2222  0.0235
  121OSM    C2F12842   2.950   6.153  10.719 -0.1158  0.1179  0.3752
  121OSM    H2F12843   2.920   6.178  10.823 -1.4919 -1.9211  0.5112
  121OSM    H2G12844   2.863   6.104  10.670  0.3003 -1.0670  0.7945
  121OSM    C3F12845   2.975   6.280  10.637  0.2160 -0.1586  0.6228
  121OSM    H3F12846   3.051   6.342  10.689  2.1220 -3.4916  2.1126
  121OSM    H3G12847   2.879   6.336  10.635  1.3759  1.9927 -2.5801
  121OSM    C4F12848   3.024   6.255  10.495  0.0480  0.3982  0.1973
  121OSM    H4F12849   2.944   6.193  10.448 -0.5034  0.2140  1.3464
  121OSM    H4G12850   3.118   6.195  10.500 -1.4371 -1.9903  2.1559
  121OSM    C5F12851   3.038   6.380  10.413  0.3883 -0.4653  0.5490
  121OSM    H5F12852   3.111   6.452  10.455 -0.0289 -0.1397  0.7130
  121OSM    H5G12853   2.938   6.427  10.410  1.1909  1.3913 -3.4205
  121OSM    C6F12854   3.077   6.355  10.262  0.5351 -0.8117 -0.6207
  121OSM    H6F12855   3.007   6.277  10.226 -0.7428 -0.3247  0.7308
  121OSM    H6G12856   3.182   6.321  10.247  1.2399  0.3744  1.2417
  121OSM    C7F12857   3.070   6.486  10.182 -0.4458 -0.1271  0.6475
  121OSM    H7F12858   3.136   6.562  10.230 -2.0358  1.4771  0.4163
  121OSM    H7G12859   2.967   6.526  10.189 -0.0823  1.3327 -1.4505
  121OSM    C8F12860   3.120   6.467  10.037  0.6756 -0.2171  0.0756
  121OSM    H8F12861   3.231   6.457  10.040  0.7871  0.3728 -1.3015
  121OSM    H8G12862   3.108   6.565   9.986  1.2309  0.3103  0.9223
  121OSM    C9F12863   3.050   6.360   9.952  0.4228 -0.4348 -0.0849
  121OSM    H9F12864   3.006   6.276  10.010 -1.6421  0.5145 -0.1736
  121OSM   C10F12865   3.049   6.346   9.818  0.8017 -1.3458 -1.0464
  121OSM   H10F12866   2.998   6.259   9.775 -0.1169 -1.2390 -0.2023
  121OSM   C11F12867   3.112   6.438   9.720 -0.1129  0.4462 -0.6190
  121OSM   H11F12868   3.150   6.536   9.756 -0.4469  0.6674 -0.8546
  121OSM   H11G12869   3.036   6.457   9.641 -0.1486  0.8837 -0.4811
  121OSM   C12F12870   3.226   6.371   9.649 -0.0828  0.2621  0.5774
  121OSM   H12F12871   3.198   6.266   9.627 -2.5820  0.0145  4.1875
  121OSM   H12G12872   3.322   6.384   9.705  0.9396 -0.5215 -0.9091
  121OSM   C13F12873   3.263   6.438   9.513  0.3251  0.2911 -0.2034
  121OSM   H13F12874   3.319   6.532   9.533  0.7202  0.0283 -0.0762
  121OSM   H13G12875   3.170   6.485   9.474 -1.4955  0.5756  4.0165
  121OSM   C14F12876   3.334   6.349   9.412  0.1665  0.1317 -0.2783
  121OSM   H14F12877   3.251   6.286   9.373 -0.0696 -0.6454  1.4075
  121OSM   H14G12878   3.397   6.267   9.452  0.0334  0.4014  0.4923
  121OSM   C15F12879   3.407   6.425   9.306  0.6899 -0.4403  0.6217
  121OSM   H15F12880   3.445   6.352   9.231  2.6107 -1.6884  2.6690
  121OSM   H15G12881   3.494   6.470   9.358 -0.8098  2.0185  1.1729
  121OSM   C16F12882   3.316   6.523   9.243 -0.2283  0.4404 -0.0848
  121OSM   H16F12883   3.273   6.595   9.316 -0.8207 -0.5637  0.5846
  121OSM   H16G12884   3.229   6.474   9.195  1.2125 -0.4974 -1.8467
  121OSM   C17F12885   3.392   6.602   9.146 -0.0959  0.5732 -0.3290
  121OSM   H17F12886   3.447   6.527   9.085 -1.5279  0.0758 -1.0496
  121OSM   H17G12887   3.466   6.663   9.202 -0.8818  0.3471  0.9999
  121OSM   C18F12888   3.313   6.695   9.063  0.3190  0.9488  0.2734
  121OSM   H18F12889   3.243   6.637   8.999  1.0769 -0.8544  1.0129
  121OSM   H18G12890   3.388   6.750   9.001  0.4345  0.9969  0.4552
  121OSM   H18H12891   3.259   6.770   9.123  0.4618  0.9352  0.4192
  122OSM      N12892   2.427   5.392  11.247  0.2190  0.2888  0.3076
  122OSM    C1512893   2.550   5.467  11.237  0.0069 -0.6231 -0.7629
  122OSM   H15A12894   2.608   5.437  11.151 -0.4297 -2.0160 -0.6064
  122OSM   H15B12895   2.609   5.453  11.327 -0.3845  1.6823 -0.0851
  122OSM   H15C12896   2.533   5.573  11.227  3.1628  0.1488  0.7067
  122OSM    C1412897   2.460   5.247  11.263  0.4427 -0.1524 -0.1279
  122OSM   H14A12898   2.492   5.224  11.363 -1.8637  1.1662  0.9973
  122OSM   H14B12899   2.551   5.229  11.207  0.7396  2.3816 -0.5871
  122OSM   H14C12900   2.375   5.184  11.240 -1.2809  2.4520 -1.3831
  122OSM    C1312901   2.350   5.434  11.368  0.0352  0.2189  0.6770
  122OSM   H13A12902   2.259   5.376  11.373  0.6832 -0.8484  0.3679
  122OSM   H13B12903   2.339   5.541  11.355  0.2189  0.0486 -1.1366
  122OSM   H13C12904   2.409   5.403  11.453 -0.2916 -0.3497  0.6961
  122OSM    C1212905   2.339   5.416  11.123 -0.0420 -0.0637  0.7431
  122OSM   H12A12906   2.323   5.521  11.107 -2.3030 -0.0210  2.7780
  122OSM   H12B12907   2.244   5.367  11.136 -0.0962  0.1188  1.0312
  122OSM    C1112908   2.378   5.355  10.988 -0.0978 -0.0149  0.5327
  122OSM   H11A12909   2.479   5.387  10.955 -0.6482  0.4445 -0.7851
  122OSM   H11B12910   2.311   5.395  10.908 -0.1859 -0.9788  0.1174
  122OSM      P12911   2.269   5.132  10.908  0.1337 -0.1443 -0.4766
  122OSM    O1312912   2.311   4.992  10.905  0.5742 -0.2764  0.0194
  122OSM    O1412913   2.144   5.152  10.987 -0.9940  0.2974  0.0071
  122OSM    O1112914   2.253   5.190  10.762  0.2494 -0.3272 -0.2469
  122OSM    O1212915   2.378   5.209  10.983  0.2931 -0.3600 -0.0353
  122OSM    C1S12916   2.375   5.186  10.680 -0.3219 -0.1350 -0.1627
  122OSM    H1S12917   2.436   5.096  10.700  0.2220 -0.2176 -2.0165
  122OSM    H1T12918   2.440   5.274  10.703 -0.4221  0.5203 -2.1732
  122OSM     NF12919   2.456   5.143  10.445  0.0024  0.3984  0.3796
  122OSM    HNF12920   2.501   5.212  10.389  0.4335  0.5125  0.8559
  122OSM    C2S12921   2.349   5.198  10.524  0.8943  0.7484 -0.2068
  122OSM    H2S12922   2.259   5.135  10.509  3.0229 -2.2785 -1.5672
  122OSM    C3S12923   2.319   5.351  10.498 -0.1995 -0.0171  0.0422
  122OSM    H3S12924   2.420   5.397  10.508  0.0209 -0.1281 -1.3879
  122OSM     O312925   2.238   5.418  10.595 -0.0535  0.2764  0.4053
  122OSM    HO312926   2.234   5.365  10.674  2.0991  0.5474  0.7677
  122OSM    C4S12927   2.272   5.374  10.356  0.2673  0.4755 -0.1905
  122OSM    H4S12928   2.352   5.396  10.283  0.1718  0.5708 -0.2682
  122OSM    C5S12929   2.145   5.394  10.324 -0.2347  0.5357 -0.2725
  122OSM    H5S12930   2.078   5.382  10.410  0.3659  0.3433  0.1809
  122OSM    C6S12931   2.077   5.433  10.190  0.1675  0.2198 -0.2214
  122OSM    H6S12932   2.018   5.524  10.215  1.6519  1.1401  0.0568
  122OSM    H6T12933   1.998   5.356  10.175  1.1053 -0.3659 -2.4875
  122OSM    C7S12934   2.151   5.459  10.064 -0.5228 -0.2761 -0.3733
  122OSM    H7S12935   2.199   5.369  10.021  0.3247  0.1172 -0.2628
  122OSM    H7T12936   2.235   5.527  10.088  0.5749  0.5458 -5.3938
  122OSM    C8S12937   2.048   5.519   9.967 -0.3053 -0.4811  0.0567
  122OSM    H8S12938   2.002   5.613  10.002 -3.4569 -0.9434 -2.4340
  122OSM    H8T12939   1.950   5.468   9.963 -0.5925  0.0445  0.3421
  122OSM    C9S12940   2.108   5.517   9.822 -0.0166 -0.1216 -0.1944
  122OSM    H9S12941   2.160   5.419   9.809  1.5360  0.5475  0.7272
  122OSM    H9T12942   2.175   5.603   9.839  0.2122 -0.8800  3.6712
  122OSM   C10S12943   2.005   5.527   9.714  0.9891 -0.1998  0.1171
  122OSM   H10S12944   1.966   5.630   9.730 -0.1118 -0.5221 -0.3357
  122OSM   H10T12945   1.924   5.452   9.724  0.6768  0.0524 -0.4402
  122OSM   C11S12946   2.063   5.507   9.574  0.4505 -0.1981  0.1389
  122OSM   H11S12947   2.128   5.417   9.570  0.3865 -0.2112 -0.8945
  122OSM   H11T12948   2.130   5.595   9.562 -0.7167  0.4680 -2.0426
  122OSM   C12S12949   1.953   5.526   9.468 -0.8808  0.0973 -0.3683
  122OSM   H12S12950   1.929   5.634   9.464  0.5394  0.5003  0.9937
  122OSM   H12T12951   1.863   5.474   9.508 -0.9200 -0.6498 -1.3728
  122OSM   C13S12952   1.989   5.481   9.328 -0.4019 -0.2055 -0.5735
  122OSM   H13S12953   2.004   5.372   9.335 -0.2625 -0.1206  1.0293
  122OSM   H13T12954   2.078   5.537   9.291 -0.6226  0.6477  0.1451
  122OSM   C14S12955   1.874   5.492   9.237 -0.0113  0.2373 -0.4190
  122OSM   H14S12956   1.855   5.601   9.230  2.3197  0.7365  0.2445
  122OSM   H14T12957   1.785   5.457   9.295  0.1446  0.2318 -0.1825
  122OSM   C15S12958   1.906   5.415   9.104 -1.3135  0.1310  0.4519
  122OSM   H15S12959   1.813   5.413   9.043 -0.3925  2.2790 -1.1480
  122OSM   H15T12960   1.934   5.309   9.122  0.5507  0.7560  1.5172
  122OSM   C16S12961   2.021   5.490   9.027  0.1564  0.2653 -0.1564
  122OSM   H16S12962   2.114   5.513   9.084 -0.5883 -0.7919  1.5795
  122OSM   H16T12963   1.974   5.580   8.981  0.2289  0.3242 -0.1154
  122OSM   C17S12964   2.069   5.410   8.897  0.5644 -0.3996  0.6824
  122OSM   H17S12965   1.978   5.378   8.841  1.1310 -0.2265 -0.3549
  122OSM   H17T12966   2.115   5.314   8.927 -0.4261 -0.1061  3.3847
  122OSM   C18S12967   2.175   5.479   8.808  0.2015 -0.0400 -0.8063
  122OSM   H18S12968   2.277   5.476   8.851  0.3709  0.7344 -1.1265
  122OSM   H18T12969   2.153   5.588   8.814 -2.2735 -0.4426 -1.4033
  122OSM   H18U12970   2.181   5.448   8.701 -1.4805  0.4421 -1.0675
  122OSM    C1F12971   2.479   5.006  10.440  0.8199 -0.3718 -0.2811
  122OSM     OF12972   2.407   4.930  10.513  0.3796  0.4629 -0.2164
  122OSM    C2F12973   2.603   4.965  10.363  0.2504 -0.5430  0.2286
  122OSM    H2F12974   2.675   4.935  10.442  1.4304  0.0720 -0.5813
  122OSM    H2G12975   2.639   5.057  10.312  0.5141 -0.9819 -0.3929
  122OSM    C3F12976   2.590   4.848  10.262 -0.3135  0.1146  0.1165
  122OSM    H3F12977   2.512   4.868  10.186 -1.2975 -1.7415  0.5696
  122OSM    H3G12978   2.568   4.751  10.312  0.4330  1.3002  2.9427
  122OSM    C4F12979   2.714   4.838  10.175  0.4706  0.5949 -0.1528
  122OSM    H4F12980   2.702   4.747  10.113 -1.5634  0.4015  0.4395
  122OSM    H4G12981   2.804   4.820  10.237  0.1274  0.1103  0.2189
  122OSM    C5F12982   2.750   4.942  10.072  0.3580  0.1297 -0.2749
  122OSM    H5F12983   2.736   5.040  10.122 -0.5379 -0.1353  0.0160
  122OSM    H5G12984   2.690   4.925   9.981  0.3505  0.5035 -0.3425
  122OSM    C6F12985   2.895   4.931  10.027 -0.7720 -0.0241  0.3099
  122OSM    H6F12986   2.922   4.835   9.979  0.9199 -0.3970  1.8773
  122OSM    H6G12987   2.969   4.939  10.110 -0.4892  0.6139  0.0061
  122OSM    C7F12988   2.929   5.030   9.905  0.1527  0.4635 -0.3567
  122OSM    H7F12989   2.989   5.114   9.946  0.6879  0.0212 -0.2204
  122OSM    H7G12990   2.837   5.074   9.861 -0.8696 -0.7758  0.4769
  122OSM    C8F12991   3.014   4.961   9.795 -0.4565  0.1056 -0.7436
  122OSM    H8F12992   2.970   4.859   9.785 -0.9940  0.3641 -1.0590
  122OSM    H8G12993   3.115   4.942   9.837  0.4644  1.8177 -2.0624
  122OSM    C9F12994   3.029   5.030   9.664 -0.6080  0.5482 -1.0677
  122OSM    H9F12995   3.125   5.073   9.632 -0.7238 -0.3900 -2.8300
  122OSM   C10F12996   2.932   5.026   9.571 -0.9469  0.3207  0.2637
  122OSM   H10F12997   2.950   5.085   9.480 -1.1149 -1.3645 -0.8822
  122OSM   C11F12998   2.799   4.954   9.587  0.0810  0.2492 -0.5538
  122OSM   H11F12999   2.718   5.026   9.564  0.1401  0.3802 -0.3615
  122OSM   H11G13000   2.786   4.931   9.695  1.8434  0.2593 -0.3097
  122OSM   C12F13001   2.795   4.839   9.480  0.6594  0.8225  0.0323
  122OSM   H12F13002   2.698   4.786   9.496  0.0641  1.5801 -0.9370
  122OSM   H12G13003   2.883   4.772   9.490 -0.2491 -0.9952 -2.9343
  122OSM   C13F13004   2.789   4.899   9.336  0.1210  0.2415 -0.1265
  122OSM   H13F13005   2.873   4.970   9.322  1.4684 -1.1377  0.6426
  122OSM   H13G13006   2.690   4.948   9.335 -0.8815 -1.6206 -2.2947
  122OSM   C14F13007   2.781   4.788   9.221 -1.1087 -0.6035 -0.1260
  122OSM   H14F13008   2.684   4.736   9.228 -0.4135 -1.8205  0.6953
  122OSM   H14G13009   2.872   4.733   9.251  0.7126  2.4589  0.4383
  122OSM   C15F13010   2.803   4.851   9.083 -0.0227  0.0611 -0.5368
  122OSM   H15F13011   2.910   4.879   9.080  0.4719 -1.7291 -1.5826
  122OSM   H15G13012   2.732   4.936   9.076 -0.0839  0.1459  0.8742
  122OSM   C16F13013   2.772   4.744   8.979  0.3844  0.0313  0.7848
  122OSM   H16F13014   2.664   4.716   8.983  0.0520  1.3973  2.6424
  122OSM   H16G13015   2.828   4.652   9.008  0.0118 -0.3019  0.4716
  122OSM   C17F13016   2.813   4.776   8.827 -0.1608  0.2888 -0.1926
  122OSM   H17F13017   2.776   4.878   8.804 -0.7488  0.2117  0.3871
  122OSM   H17G13018   2.766   4.696   8.765  1.2578 -0.0615 -0.8501
  122OSM   C18F13019   2.960   4.774   8.793  0.3140  0.4802  0.3075
  122OSM   H18F13020   3.006   4.847   8.863 -0.2977  3.4222 -2.1541
  122OSM   H18G13021   2.980   4.803   8.687  1.2211  1.4585  0.7221
  122OSM   H18H13022   3.011   4.677   8.810 -0.9064 -0.0777  0.8594
  123OSM      N13023   6.499   2.764   5.862  0.1235  0.4781  0.0444
  123OSM    C1513024   6.390   2.726   5.763  0.0834  0.3068  0.2558
  123OSM   H15A13025   6.432   2.738   5.664  0.7012 -0.1724  0.4493
  123OSM   H15B13026   6.301   2.787   5.771  0.1133  0.1890  1.9021
  123OSM   H15C13027   6.360   2.625   5.784  1.2700 -0.3120 -0.9216
  123OSM    C1413028   6.616   2.674   5.838 -0.6597  0.1580 -0.0854
  123OSM   H14A13029   6.586   2.571   5.854 -1.8034  0.6823  1.2905
  123OSM   H14B13030   6.690   2.688   5.916 -1.1833 -1.1057  0.6670
  123OSM   H14C13031   6.648   2.684   5.735  2.3860  2.9563  0.9632
  123OSM    C1313032   6.542   2.905   5.836  0.1993 -0.3832  0.1098
  123OSM   H13A13033   6.603   2.898   5.747 -0.2873 -2.1682 -0.1228
  123OSM   H13B13034   6.610   2.938   5.913  1.3966 -0.4437 -0.8970
  123OSM   H13C13035   6.455   2.964   5.809  0.3486 -0.7487 -1.2228
  123OSM    C1213036   6.438   2.745   6.007 -0.1650 -0.2328 -0.1632
  123OSM   H12A13037   6.397   2.645   6.009 -0.0381 -0.3071 -0.9228
  123OSM   H12B13038   6.350   2.808   6.014 -0.4398 -0.6189 -0.1396
  123OSM    C1113039   6.524   2.782   6.125  0.0915 -0.0980  0.4051
  123OSM   H11A13040   6.605   2.707   6.136 -1.0011 -1.1542  1.5566
  123OSM   H11B13041   6.472   2.768   6.222 -1.1996  1.5279 -0.0068
  123OSM      P13042   6.490   3.036   6.167 -0.3709 -0.2466 -0.0071
  123OSM    O1313043   6.544   3.166   6.126 -0.0685 -0.6257 -0.7635
  123OSM    O1413044   6.346   3.015   6.134 -0.1922 -0.8617 -0.3124
  123OSM    O1113045   6.506   3.041   6.322 -0.0282  0.2232 -0.1337
  123OSM    O1213046   6.575   2.916   6.122 -0.2582 -0.0997  0.1418
  123OSM    C1S13047   6.618   2.968   6.383 -0.1511 -0.3595 -0.0891
  123OSM    H1S13048   6.716   2.997   6.339 -0.7456  0.9178 -0.6242
  123OSM    H1T13049   6.611   2.859   6.367 -0.6058 -0.9787  3.4373
  123OSM     NF13050   6.732   2.923   6.598 -0.5941  0.1119  0.1315
  123OSM    HNF13051   6.708   2.835   6.640 -2.2553 -0.4649 -1.8249
  123OSM    C2S13052   6.618   2.986   6.540 -0.0889 -0.4993  0.8442
  123OSM    H2S13053   6.623   3.094   6.561 -0.4233 -0.2537 -0.2674
  123OSM    C3S13054   6.482   2.926   6.595  0.1476  0.5165  0.0505
  123OSM    H3S13055   6.464   2.828   6.546 -2.4101  0.9421 -0.0015
  123OSM     O313056   6.371   3.002   6.562  0.6295 -0.2812 -0.1322
  123OSM    HO313057   6.406   3.062   6.496  2.6936 -1.9319 -0.6333
  123OSM    C4S13058   6.495   2.925   6.744 -0.2233  0.4010  0.5437
  123OSM    H4S13059   6.499   3.020   6.799  2.2378  0.2680  0.6937
  123OSM    C5S13060   6.501   2.813   6.824 -0.6630  0.0608  0.0413
  123OSM    H5S13061   6.482   2.713   6.784 -0.6128  0.3076 -0.6046
  123OSM    C6S13062   6.507   2.824   6.976 -0.3794  0.3066 -0.2057
  123OSM    H6S13063   6.610   2.858   6.997 -0.4945  1.4179 -1.3349
  123OSM    H6T13064   6.493   2.723   7.020 -0.6614  1.0262  1.4260
  123OSM    C7S13065   6.405   2.914   7.055 -0.0820 -0.5460 -0.4702
  123OSM    H7S13066   6.304   2.872   7.038  0.1807 -1.0258 -0.8588
  123OSM    H7T13067   6.414   3.018   7.017  0.5294  0.2902  1.7833
  123OSM    C8S13068   6.436   2.916   7.209  0.2448  0.0407  0.5216
  123OSM    H8S13069   6.530   2.973   7.224 -0.7158  1.5085  1.0793
  123OSM    H8T13070   6.457   2.811   7.240 -0.0509 -0.2684 -0.3142
  123OSM    C9S13071   6.329   2.975   7.285  0.5178 -0.3328 -0.1632
  123OSM    H9S13072   6.232   2.922   7.271  0.5540 -0.4253 -0.0660
  123OSM    H9T13073   6.324   3.083   7.259  0.8351  0.3895  2.4854
  123OSM   C10S13074   6.353   2.972   7.440  0.3010  0.2236  0.1534
  123OSM   H10S13075   6.413   2.883   7.466  0.2409 -0.1868 -1.0436
  123OSM   H10T13076   6.260   2.963   7.500 -1.0095 -0.1879 -1.8401
  123OSM   C11S13077   6.428   3.101   7.491  0.0047  0.6972 -0.4370
  123OSM   H11S13078   6.380   3.189   7.443 -1.2931  0.8130  0.9865
  123OSM   H11T13079   6.534   3.089   7.461  0.1681  0.5926  0.1620
  123OSM   C12S13080   6.414   3.113   7.648 -0.1549 -0.1531  0.2941
  123OSM   H12S13081   6.309   3.102   7.682 -0.5728 -2.1980 -1.4524
  123OSM   H12T13082   6.452   3.216   7.668  2.1057 -0.6969 -0.7920
  123OSM   C13S13083   6.503   3.012   7.725 -0.4981 -0.3942 -0.1874
  123OSM   H13S13084   6.601   3.019   7.674 -0.9819  0.6758 -1.0137
  123OSM   H13T13085   6.447   2.916   7.722  0.9216 -1.3067  0.9884
  123OSM   C14S13086   6.506   3.042   7.872  0.0257  0.3850 -0.3098
  123OSM   H14S13087   6.554   2.958   7.927 -0.9178 -1.2125 -1.8409
  123OSM   H14T13088   6.402   3.051   7.911  0.4252  1.6381  0.5260
  123OSM   C15S13089   6.581   3.175   7.903  0.0699  0.7937 -1.0018
  123OSM   H15S13090   6.542   3.261   7.846 -0.7541  0.3709 -1.0887
  123OSM   H15T13091   6.690   3.169   7.881  1.1648  3.5364  2.7054
  123OSM   C16S13092   6.577   3.202   8.056  0.2801 -0.9074  1.0999
  123OSM   H16S13093   6.620   3.107   8.097  2.7290 -1.7742 -2.9513
  123OSM   H16T13094   6.471   3.211   8.087  0.1381 -0.9481  0.6329
  123OSM   C17S13095   6.658   3.329   8.100  0.4321  0.4016 -0.0085
  123OSM   H17S13096   6.630   3.419   8.041 -1.4976  0.2061  0.5638
  123OSM   H17T13097   6.766   3.307   8.081  0.4153  1.1342 -1.1034
  123OSM   C18S13098   6.634   3.360   8.251 -0.9742  0.0069  0.2064
  123OSM   H18S13099   6.713   3.432   8.284 -1.5136  0.5590  0.3077
  123OSM   H18T13100   6.637   3.263   8.306 -0.4417 -0.6818 -0.9936
  123OSM   H18U13101   6.539   3.407   8.284  0.0740  1.4090  1.3817
  123OSM    C1F13102   6.850   2.971   6.615 -0.1215 -0.2551 -0.3903
  123OSM     OF13103   6.872   3.091   6.587  0.1359 -0.2010 -0.1937
  123OSM    C2F13104   6.962   2.885   6.661 -0.7032  0.2248 -0.3368
  123OSM    H2F13105   7.046   2.902   6.591 -0.6007  0.1333 -0.2348
  123OSM    H2G13106   6.932   2.778   6.660 -1.7270  0.4764  0.7011
  123OSM    C3F13107   7.011   2.908   6.806  0.4145  0.4924 -0.2092
  123OSM    H3F13108   7.042   3.013   6.826 -1.0206  1.1462 -1.2411
  123OSM    H3G13109   7.093   2.837   6.829 -1.4389 -1.9233 -0.6041
  123OSM    C4F13110   6.914   2.875   6.915  0.1507 -0.2759  0.7333
  123OSM    H4F13111   6.871   2.773   6.901 -1.2059  0.4516 -0.8708
  123OSM    H4G13112   6.836   2.954   6.911 -0.0312 -0.4809 -0.3785
  123OSM    C5F13113   6.972   2.889   7.056  0.3650 -0.4212  0.0826
  123OSM    H5F13114   7.037   2.977   7.072 -0.1074 -0.0954  0.2171
  123OSM    H5G13115   7.019   2.792   7.085  1.7257  0.1290 -0.2115
  123OSM    C6F13116   6.860   2.898   7.167 -0.2194  0.0971  0.0435
  123OSM    H6F13117   6.774   2.828   7.162  0.2369 -0.3911 -2.5907
  123OSM    H6G13118   6.822   3.003   7.159  1.9777  0.9967  0.6013
  123OSM    C7F13119   6.921   2.895   7.309 -0.0958 -0.1601 -0.2227
  123OSM    H7F13120   7.005   2.967   7.321  0.5436 -1.2618  2.6745
  123OSM    H7G13121   6.955   2.790   7.315 -1.3263 -0.5177  1.0858
  123OSM    C8F13122   6.811   2.923   7.409  0.2268 -0.0069 -0.2587
  123OSM    H8F13123   6.736   2.843   7.399  1.0460 -1.0912  1.7288
  123OSM    H8G13124   6.759   3.021   7.406  2.4180  1.4312  2.9240
  123OSM    C9F13125   6.868   2.894   7.540  0.0553 -0.4320 -0.4689
  123OSM    H9F13126   6.937   2.975   7.569  1.9559 -0.8856 -3.2703
  123OSM   C10F13127   6.851   2.795   7.628  0.5480 -0.1244 -0.6513
  123OSM   H10F13128   6.920   2.802   7.714  0.0696  0.1220 -0.2869
  123OSM   C11F13129   6.767   2.671   7.616  0.4558  0.2310  0.2259
  123OSM   H11F13130   6.806   2.604   7.536  0.4322 -0.8419  1.0866
  123OSM   H11G13131   6.661   2.681   7.585  0.1876 -1.9850  0.2295
  123OSM   C12F13132   6.777   2.574   7.742  0.2314 -0.6455  0.5281
  123OSM   H12F13133   6.879   2.530   7.742  1.2123  1.4679 -0.2928
  123OSM   H12G13134   6.715   2.484   7.725  0.4070 -0.9388  1.3543
  123OSM   C13F13135   6.749   2.632   7.875  0.6236 -0.3260  0.1539
  123OSM   H13F13136   6.834   2.700   7.900 -1.0212  2.2494 -0.9094
  123OSM   H13G13137   6.741   2.545   7.943 -0.3387  0.0568  0.5452
  123OSM   C14F13138   6.624   2.720   7.887  0.6715 -0.0861 -0.7766
  123OSM   H14F13139   6.621   2.795   7.806 -0.9459 -1.0113 -1.6486
  123OSM   H14G13140   6.633   2.780   7.980 -1.2454 -1.1875  0.1801
  123OSM   C15F13141   6.497   2.637   7.887  0.2903  0.0066 -0.8999
  123OSM   H15F13142   6.526   2.562   7.964  1.6797  2.8024  1.4939
  123OSM   H15G13143   6.489   2.589   7.787  0.2574 -0.5569 -0.6311
  123OSM   C16F13144   6.354   2.703   7.927  0.2672  0.9152 -0.3960
  123OSM   H16F13145   6.313   2.776   7.854 -2.0625 -0.3221 -0.3959
  123OSM   H16G13146   6.368   2.755   8.024 -2.9110  0.2552  0.5242
  123OSM   C17F13147   6.255   2.588   7.955  0.5559  0.3916  0.7694
  123OSM   H17F13148   6.297   2.537   8.044  0.0409  0.4627  1.0606
  123OSM   H17G13149   6.240   2.525   7.865  1.1532 -0.3378  1.1725
  123OSM   C18F13150   6.112   2.638   7.992 -0.6585 -0.4527 -0.1479
  123OSM   H18F13151   6.065   2.689   7.905  2.9927  0.9444 -1.4801
  123OSM   H18G13152   6.112   2.722   8.065 -1.9896  0.6394 -1.3282
  123OSM   H18H13153   6.048   2.559   8.038 -0.5308 -0.0992  0.6590
  124OSM      N13154   2.123   0.583   6.121 -0.0922 -0.2545 -0.8078
  124OSM    C1513155   2.222   0.659   6.202  0.1593  0.5393 -0.4890
  124OSM   H15A13156   2.293   0.721   6.151 -0.6267  1.4354 -0.5306
  124OSM   H15B13157   2.280   0.588   6.259  1.5423  0.3865 -2.0358
  124OSM   H15C13158   2.169   0.726   6.269  1.5650 -0.3550  1.6237
  124OSM    C1413159   2.009   0.549   6.205  0.2397  0.0587 -0.2495
  124OSM   H14A13160   1.963   0.639   6.243  1.3584  0.4716  0.1541
  124OSM   H14B13161   2.033   0.480   6.283 -1.1813 -1.4405 -1.0670
  124OSM   H14C13162   1.930   0.511   6.141  0.6043  1.8552 -1.8737
  124OSM    C1313163   2.074   0.681   6.013  0.6314  0.1366  0.7767
  124OSM   H13A13164   1.992   0.632   5.963  1.7461  0.2220 -1.2353
  124OSM   H13B13165   2.156   0.709   5.948  0.9588 -1.3745  0.5154
  124OSM   H13C13166   2.034   0.772   6.054  1.3649  0.3071  1.1362
  124OSM    C1213167   2.187   0.465   6.065  0.2283 -0.0710 -0.2298
  124OSM   H12A13168   2.276   0.488   6.009 -1.0923  0.1065 -2.3897
  124OSM   H12B13169   2.123   0.418   5.992  1.3865 -0.6086 -0.9119
  124OSM    C1113170   2.211   0.348   6.159 -0.1930 -0.0104  0.1268
  124OSM   H11A13171   2.245   0.264   6.095 -0.5452 -1.0531  1.2756
  124OSM   H11B13172   2.113   0.312   6.198 -0.1534 -1.1451 -0.7831
  124OSM      P13173   2.448   0.325   6.264 -0.2658 -0.1364  0.3320
  124OSM    O1313174   2.501   0.340   6.126  0.4145  0.6850 -0.4616
  124OSM    O1413175   2.530   0.391   6.367 -0.5940 -0.0215  0.7529
  124OSM    O1113176   2.426   0.176   6.298 -0.2671  0.6515 -0.0516
  124OSM    O1213177   2.300   0.384   6.266 -0.0592  0.5539  0.3613
  124OSM    C1S13178   2.482   0.116   6.410 -0.0686  0.1262 -1.2134
  124OSM    H1S13179   2.561   0.176   6.460  0.7186 -2.3471  0.7559
  124OSM    H1T13180   2.529   0.020   6.380  0.2417  0.7214 -2.7082
  124OSM     NF13181   2.419   0.046   6.650 -0.1113 -0.0452 -0.1737
  124OSM    HNF13182   2.406  -0.051   6.672  1.2126 -0.5488 -1.4156
  124OSM    C2S13183   2.371   0.080   6.519  0.4656  0.5227  0.3355
  124OSM    H2S13184   2.319   0.174   6.544  1.3224  1.0356  0.2328
  124OSM    C3S13185   2.276  -0.026   6.459  0.1021  0.0480  0.0157
  124OSM    H3S13186   2.324  -0.126   6.450 -2.2714 -1.0950 -0.7692
  124OSM     O313187   2.234   0.002   6.329  0.3182 -0.1362 -0.8218
  124OSM    HO313188   2.286   0.080   6.308 -0.8771  0.7878 -0.4742
  124OSM    C4S13189   2.152  -0.048   6.547 -0.0626 -0.0742  0.5169
  124OSM    H4S13190   2.099   0.044   6.575 -0.0081  0.3061 -0.5682
  124OSM    C5S13191   2.124  -0.164   6.611 -0.1483 -0.3527 -1.1966
  124OSM    H5S13192   2.196  -0.245   6.591  0.3069 -0.7490  1.5721
  124OSM    C6S13193   2.019  -0.194   6.719  0.2152 -0.4196  0.3276
  124OSM    H6S13194   2.073  -0.193   6.816 -1.9537  1.2548  1.5999
  124OSM    H6T13195   1.978  -0.297   6.706  2.1583 -1.0946 -0.9127
  124OSM    C7S13196   1.897  -0.103   6.728  0.3331 -0.2071  0.0899
  124OSM    H7S13197   1.831  -0.106   6.638  1.4292 -0.4515 -0.7244
  124OSM    H7T13198   1.927   0.003   6.718  1.1546 -0.4733 -0.3244
  124OSM    C8S13199   1.808  -0.134   6.851  0.3029  0.4855  0.6054
  124OSM    H8S13200   1.783  -0.241   6.831  0.1993  0.4116  1.1177
  124OSM    H8T13201   1.710  -0.084   6.837  1.5771  2.8213 -0.5461
  124OSM    C9S13202   1.873  -0.095   6.983  0.5521  0.2985 -0.2341
  124OSM    H9S13203   1.929   0.001   6.976  1.8360 -0.2979  1.2087
  124OSM    H9T13204   1.954  -0.166   7.009 -0.1069 -0.1451  0.6787
  124OSM   C10S13205   1.761  -0.100   7.095  0.5260  0.4000 -0.2702
  124OSM   H10S13206   1.728  -0.206   7.093  0.5756  0.3647  0.7525
  124OSM   H10T13207   1.670  -0.048   7.060  0.6945 -0.3674 -1.9957
  124OSM   C11S13208   1.806  -0.052   7.233  0.1958  0.3859 -0.1716
  124OSM   H11S13209   1.838   0.054   7.242 -0.6767  0.8318 -1.9010
  124OSM   H11T13210   1.905  -0.101   7.247  0.1196 -0.4940 -2.2430
  124OSM   C12S13211   1.703  -0.076   7.346  0.3214  0.1524 -0.7342
  124OSM   H12S13212   1.740  -0.049   7.448 -1.8515  1.8972 -0.3200
  124OSM   H12T13213   1.684  -0.185   7.355 -0.8584  0.4483  1.0126
  124OSM   C13S13214   1.561  -0.008   7.317 -0.1948 -0.5810 -1.2799
  124OSM   H13S13215   1.507  -0.034   7.224 -0.7457  1.7452 -1.6739
  124OSM   H13T13216   1.586   0.100   7.311  1.3950 -1.0007 -3.6914
  124OSM   C14S13217   1.458  -0.036   7.431 -0.1349  0.8254 -0.2897
  124OSM   H14S13218   1.459  -0.147   7.435 -0.8426  0.8398  0.7191
  124OSM   H14T13219   1.365   0.006   7.386  0.7079  1.4351 -1.5150
  124OSM   C15S13220   1.498   0.022   7.566  0.4937  0.3193 -0.3774
  124OSM   H15S13221   1.500   0.133   7.566 -0.3404  0.3471 -1.3173
  124OSM   H15T13222   1.594  -0.022   7.603 -0.8465 -2.9698 -0.5616
  124OSM   C16S13223   1.393  -0.011   7.674 -0.6137 -0.4461 -0.0912
  124OSM   H16S13224   1.391  -0.121   7.686  3.0809 -0.5272  1.3348
  124OSM   H16T13225   1.292   0.007   7.633 -0.2850 -3.1102 -2.4003
  124OSM   C17S13226   1.432   0.052   7.814 -0.4281  0.0184  0.3604
  124OSM   H17S13227   1.431   0.163   7.817 -2.4319  0.0300  0.7236
  124OSM   H17T13228   1.527   0.009   7.850 -1.4462 -0.8213  2.1820
  124OSM   C18S13229   1.323   0.004   7.915  0.2118  0.2870  0.2236
  124OSM   H18S13230   1.225   0.057   7.909 -0.7028 -1.4297 -0.8388
  124OSM   H18T13231   1.366   0.022   8.016  0.1664  2.5254 -0.1148
  124OSM   H18U13232   1.300  -0.103   7.900 -1.7780  0.4312  1.7989
  124OSM    C1F13233   2.498   0.120   6.730  0.2821 -0.1513  0.5683
  124OSM     OF13234   2.512   0.240   6.707  0.2851  0.3790  0.1856
  124OSM    C2F13235   2.574   0.061   6.846  0.1984 -0.1869  0.3227
  124OSM    H2F13236   2.659   0.008   6.797  1.2587 -0.1362  2.0392
  124OSM    H2G13237   2.513  -0.017   6.895  0.2744 -1.0610 -0.9215
  124OSM    C3F13238   2.617   0.179   6.946 -0.1984  0.1606  0.4245
  124OSM    H3F13239   2.521   0.226   6.977 -0.1590  1.2586 -1.0173
  124OSM    H3G13240   2.675   0.254   6.888  1.6275 -0.7558  0.9741
  124OSM    C4F13241   2.678   0.121   7.072  0.4843 -0.2983  0.3826
  124OSM    H4F13242   2.764   0.067   7.027  0.2765 -1.3252  1.1780
  124OSM    H4G13243   2.613   0.041   7.114  0.7510 -0.6249  0.1844
  124OSM    C5F13244   2.724   0.223   7.181 -0.0314  0.0648  0.4494
  124OSM    H5F13245   2.720   0.328   7.144 -0.6713 -0.2454 -0.3986
  124OSM    H5G13246   2.831   0.205   7.203 -0.2536 -0.7492  0.8639
  124OSM    C6F13247   2.638   0.209   7.306 -0.2939  0.2184 -0.5610
  124OSM    H6F13248   2.652   0.103   7.337  1.7813  0.6135  0.0548
  124OSM    H6G13249   2.536   0.215   7.263 -1.1085  1.9731  1.4890
  124OSM    C7F13250   2.667   0.299   7.418 -0.2516  0.3498 -0.0931
  124OSM    H7F13251   2.609   0.265   7.507 -1.9087  2.1324 -0.4308
  124OSM    H7G13252   2.643   0.405   7.395 -1.4804  0.0112 -0.4754
  124OSM    C8F13253   2.811   0.294   7.471 -0.0081 -0.0390  0.4054
  124OSM    H8F13254   2.829   0.380   7.539 -0.0572 -1.8143  2.8222
  124OSM    H8G13255   2.884   0.333   7.397 -0.5804  2.7325  1.1841
  124OSM    C9F13256   2.858   0.164   7.534  0.5431 -0.4132 -0.8873
  124OSM    H9F13257   2.868   0.080   7.464 -1.1945 -0.5197 -1.0425
  124OSM   C10F13258   2.874   0.152   7.670  0.2480  0.1274  0.0199
  124OSM   H10F13259   2.903   0.055   7.713  2.6078  0.1175 -1.4628
  124OSM   C11F13260   2.854   0.259   7.773  0.5566  0.2966 -0.6651
  124OSM   H11F13261   2.779   0.332   7.736 -0.3453 -0.2557  0.0353
  124OSM   H11G13262   2.945   0.318   7.795  0.2953  0.0868  1.1542
  124OSM   C12F13263   2.799   0.204   7.909 -0.9966 -0.3352  0.1710
  124OSM   H12F13264   2.880   0.136   7.942  1.1192  0.6636 -2.5800
  124OSM   H12G13265   2.709   0.142   7.892 -1.4540  0.6098 -0.9737
  124OSM   C13F13266   2.763   0.314   8.008 -0.4180  0.7843 -0.1927
  124OSM   H13F13267   2.669   0.369   7.982 -0.1183  2.4976  2.0586
  124OSM   H13G13268   2.853   0.379   8.008  0.1659  0.1011  2.7962
  124OSM   C14F13269   2.760   0.266   8.153  0.1060  0.2217  0.0447
  124OSM   H14F13270   2.664   0.210   8.161 -0.2109  1.0058  2.6426
  124OSM   H14G13271   2.741   0.355   8.217  0.3087  1.5354 -1.6363
  124OSM   C15F13272   2.891   0.193   8.199  0.4948 -0.3312  0.6884
  124OSM   H15F13273   2.980   0.253   8.170 -0.5107  0.6349 -0.5105
  124OSM   H15G13274   2.903   0.097   8.144  2.7810 -0.4167  1.2396
  124OSM   C16F13275   2.901   0.172   8.347  0.3384 -0.6012 -0.1239
  124OSM   H16F13276   2.902   0.271   8.397  1.1168 -0.2875 -0.7350
  124OSM   H16G13277   3.006   0.142   8.368 -0.4707 -1.6680  2.9956
  124OSM   C17F13278   2.806   0.061   8.391 -0.4728  0.3411 -0.0423
  124OSM   H17F13279   2.831  -0.034   8.339 -0.1327 -0.0816  0.8659
  124OSM   H17G13280   2.709   0.100   8.353 -0.5295 -0.3691 -0.6507
  124OSM   C18F13281   2.803   0.039   8.545 -0.4596  0.6378  0.7112
  124OSM   H18F13282   2.773   0.133   8.595 -1.1766 -0.2014  1.8984
  124OSM   H18G13283   2.899  -0.001   8.582  0.8274  0.8533 -2.1489
  124OSM   H18H13284   2.728  -0.039   8.572 -1.2881  1.2423  0.2126
  125OSM      N13285   2.961   2.288   6.229  0.3213  0.3712 -0.1616
  125OSM    C1513286   2.993   2.423   6.173  0.5831 -0.0970 -0.4216
  125OSM   H15A13287   2.908   2.490   6.177 -0.3590 -1.3464  1.2976
  125OSM   H15B13288   3.009   2.413   6.066 -1.8445 -1.5449 -0.7374
  125OSM   H15C13289   3.079   2.466   6.220 -1.0814  1.0601  1.7384
  125OSM    C1413290   3.094   2.217   6.213  0.3339 -0.3051  0.2927
  125OSM   H14A13291   3.078   2.114   6.242 -0.6021 -0.0121  0.8808
  125OSM   H14B13292   3.171   2.251   6.280  2.5504 -2.5652 -0.9597
  125OSM   H14C13293   3.129   2.218   6.111 -1.2511  1.5264 -0.3115
  125OSM    C1313294   2.921   2.306   6.366 -0.0505 -0.4530  0.3759
  125OSM   H13A13295   3.010   2.321   6.426 -0.8520 -1.2753  1.8019
  125OSM   H13B13296   2.888   2.212   6.407  2.0024 -1.8659 -1.0170
  125OSM   H13C13297   2.849   2.385   6.383  1.0039  1.0865 -1.7522
  125OSM    C1213298   2.851   2.219   6.152 -0.2777  0.0470 -0.0534
  125OSM   H12A13299   2.858   2.247   6.047 -1.0125  2.6667  0.5134
  125OSM   H12B13300   2.760   2.267   6.186 -1.4005 -0.9973 -1.4120
  125OSM    C1113301   2.828   2.068   6.156 -0.2478 -0.0638  0.0121
  125OSM   H11A13302   2.918   2.009   6.128  1.1311  1.4801  0.9916
  125OSM   H11B13303   2.744   2.044   6.088 -1.2074  1.1235  0.7523
  125OSM      P13304   2.645   2.057   6.338 -0.0864 -0.7442 -0.0038
  125OSM    O1313305   2.601   2.197   6.300 -0.2025  0.2580  0.0288
  125OSM    O1413306   2.561   1.946   6.281  0.3933 -0.1787 -0.3232
  125OSM    O1113307   2.646   2.045   6.496  0.0139 -0.5725  0.2594
  125OSM    O1213308   2.796   2.042   6.296 -0.0972  0.2147  0.0175
  125OSM    C1S13309   2.759   2.022   6.576  0.0719 -0.2909  0.2300
  125OSM    H1S13310   2.825   2.111   6.564  1.6785 -1.1717  2.0314
  125OSM    H1T13311   2.830   1.945   6.541 -0.2318  0.1891 -1.5589
  125OSM     NF13312   2.832   2.003   6.812 -0.7479 -0.5891 -1.2701
  125OSM    HNF13313   2.850   1.910   6.842  0.4381  0.0773  0.2560
  125OSM    C2S13314   2.716   2.004   6.728  0.0261  0.2372 -0.2464
  125OSM    H2S13315   2.676   2.101   6.765  0.8906  0.6734 -0.4476
  125OSM    C3S13316   2.612   1.893   6.750 -0.8209  0.2575 -0.0813
  125OSM    H3S13317   2.647   1.792   6.718 -1.9653 -1.2207  2.9819
  125OSM     O313318   2.487   1.914   6.687 -0.5687 -0.3070  0.1608
  125OSM    HO313319   2.517   1.953   6.604  0.9478 -0.6772  0.5236
  125OSM    C4S13320   2.591   1.880   6.905  0.1352 -0.0742 -0.3706
  125OSM    H4S13321   2.543   1.974   6.933 -1.1440 -0.8667  0.1904
  125OSM    C5S13322   2.616   1.771   6.983 -0.8815 -0.1534 -0.1188
  125OSM    H5S13323   2.645   1.677   6.933 -0.8805 -0.4126  0.3579
  125OSM    C6S13324   2.604   1.762   7.135  0.8043 -0.6673 -0.1247
  125OSM    H6S13325   2.514   1.812   7.175  1.3168  0.7410 -0.6551
  125OSM    H6T13326   2.680   1.830   7.178  2.7754 -1.7695 -1.6794
  125OSM    C7S13327   2.617   1.613   7.182 -0.1336 -0.4467 -0.5213
  125OSM    H7S13328   2.719   1.590   7.146 -0.0382 -1.0457  0.1020
  125OSM    H7T13329   2.558   1.535   7.129 -1.5875  0.1766  0.1005
  125OSM    C8S13330   2.609   1.583   7.335 -0.1284  0.4675  0.1073
  125OSM    H8S13331   2.628   1.475   7.351  0.6292  0.8125  1.7030
  125OSM    H8T13332   2.507   1.608   7.371 -0.9210 -4.6816  2.2756
  125OSM    C9S13333   2.708   1.672   7.408 -0.3859  1.1241  0.2930
  125OSM    H9S13334   2.706   1.779   7.378  1.8370  0.9677 -0.6095
  125OSM    H9T13335   2.808   1.635   7.378 -1.7922 -1.8498 -1.2063
  125OSM   C10S13336   2.687   1.651   7.556 -0.3863  0.4480  0.0720
  125OSM   H10S13337   2.581   1.679   7.573 -0.4046  1.4319 -1.4505
  125OSM   H10T13338   2.746   1.720   7.620 -2.5131  0.9224  1.6188
  125OSM   C11S13339   2.705   1.509   7.612  0.7463  0.6442 -0.1721
  125OSM   H11S13340   2.806   1.480   7.575  2.2553  1.3004  3.0075
  125OSM   H11T13341   2.632   1.438   7.569 -0.2582  0.8708  1.0815
  125OSM   C12S13342   2.691   1.515   7.765  0.1594  0.1101  0.0774
  125OSM   H12S13343   2.583   1.514   7.791 -0.4613 -0.1304 -2.2702
  125OSM   H12T13344   2.741   1.606   7.804  1.9168 -0.5486 -0.5269
  125OSM   C13S13345   2.776   1.402   7.813  0.2514  0.1390  0.1454
  125OSM   H13S13346   2.874   1.394   7.763 -0.1563 -0.2057 -0.6055
  125OSM   H13T13347   2.729   1.303   7.795  3.1385 -0.6533 -4.5786
  125OSM   C14S13348   2.815   1.416   7.966  1.0551 -0.1750  0.4562
  125OSM   H14S13349   2.837   1.522   7.989  0.5741 -0.0647  0.4378
  125OSM   H14T13350   2.911   1.362   7.979  1.6688  0.3623 -1.4180
  125OSM   C15S13351   2.709   1.364   8.063  0.5058 -0.1080  0.3855
  125OSM   H15S13352   2.738   1.259   8.086  1.8695  0.2058  0.2148
  125OSM   H15T13353   2.616   1.362   8.003  0.7000  1.1020 -0.0004
  125OSM   C16S13354   2.694   1.450   8.189  0.0354 -0.3396 -0.3401
  125OSM   H16S13355   2.694   1.555   8.155 -1.0188 -0.1716  0.1618
  125OSM   H16T13356   2.785   1.424   8.249 -0.7468  0.7069  1.3652
  125OSM   C17S13357   2.569   1.406   8.269  0.4902 -0.1429  0.6353
  125OSM   H17S13358   2.575   1.297   8.289 -0.6260 -0.4303 -0.4170
  125OSM   H17T13359   2.482   1.435   8.206 -0.4857 -0.8689  1.6098
  125OSM   C18S13360   2.540   1.482   8.397 -0.0877  0.1035 -0.5997
  125OSM   H18S13361   2.443   1.458   8.446  1.0452 -0.4602  1.4905
  125OSM   H18T13362   2.541   1.592   8.381 -0.4757  0.4518  1.4579
  125OSM   H18U13363   2.612   1.459   8.478  0.1003  1.6461 -0.2888
  125OSM    C1F13364   2.924   2.103   6.820 -0.0889 -0.2767  0.5414
  125OSM     OF13365   2.894   2.219   6.783  0.1007 -0.0133  0.1754
  125OSM    C2F13366   3.060   2.063   6.862 -0.9239  0.1024  0.0086
  125OSM    H2F13367   3.107   2.043   6.764  0.2727 -0.8386  0.7382
  125OSM    H2G13368   3.057   1.967   6.919 -0.5615 -0.1682 -0.4243
  125OSM    C3F13369   3.140   2.166   6.951  0.1821 -0.4096 -0.0945
  125OSM    H3F13370   3.157   2.266   6.905 -1.7706  1.7456  3.4236
  125OSM    H3G13371   3.244   2.129   6.958  1.1943  1.8792 -1.9286
  125OSM    C4F13372   3.084   2.212   7.088 -0.1332  0.1377  0.1365
  125OSM    H4F13373   2.983   2.254   7.068 -0.0719  1.2886  2.0439
  125OSM    H4G13374   3.157   2.286   7.126 -0.2638  0.6168 -0.5293
  125OSM    C5F13375   3.056   2.116   7.202 -0.9175  0.4344  0.0486
  125OSM    H5F13376   3.149   2.061   7.225 -1.3209  0.1231  0.9889
  125OSM    H5G13377   2.977   2.043   7.175 -0.4002 -1.9607  4.3082
  125OSM    C6F13378   3.019   2.188   7.330  0.3120  0.2646 -0.4020
  125OSM    H6F13379   2.924   2.244   7.317 -1.5020 -2.3322  0.6951
  125OSM    H6G13380   3.096   2.259   7.367  0.1863  0.3591 -0.3202
  125OSM    C7F13381   2.994   2.102   7.454 -0.2617 -0.2274 -0.0527
  125OSM    H7F13382   3.086   2.039   7.459  0.8786  1.2650 -1.1944
  125OSM    H7G13383   2.916   2.026   7.432  0.3034 -0.4340 -1.4477
  125OSM    C8F13384   2.960   2.176   7.588  0.2940  0.2657  0.4733
  125OSM    H8F13385   2.870   2.241   7.574 -0.6045 -1.0454 -0.0107
  125OSM    H8G13386   3.043   2.244   7.617  1.7041 -0.9274 -0.6164
  125OSM    C9F13387   2.925   2.077   7.700  0.4398  0.2593 -0.4476
  125OSM    H9F13388   2.848   2.003   7.673 -0.2169  0.4710  0.7763
  125OSM   C10F13389   2.985   2.068   7.818  1.2264 -0.8231 -0.4524
  125OSM   H10F13390   2.947   1.993   7.889  1.0519  1.1021  1.6378
  125OSM   C11F13391   3.096   2.153   7.876 -0.1490  0.0445 -0.1077
  125OSM   H11F13392   3.140   2.222   7.801  2.3464 -1.9241 -0.5921
  125OSM   H11G13393   3.185   2.106   7.923 -0.9214 -0.0720  1.2831
  125OSM   C12F13394   3.046   2.234   8.000  0.1823 -0.5016 -0.5499
  125OSM   H12F13395   2.953   2.292   7.982  0.5877 -0.2999 -2.1317
  125OSM   H12G13396   3.119   2.311   8.034  0.3347 -0.4326 -1.0243
  125OSM   C13F13397   3.024   2.136   8.121 -1.2604 -0.2299 -0.0488
  125OSM   H13F13398   3.125   2.099   8.148 -0.9790  0.9233  0.5123
  125OSM   H13G13399   2.950   2.058   8.090 -1.7795 -0.2956  1.2739
  125OSM   C14F13400   2.967   2.192   8.251  0.2526 -0.3064 -1.0610
  125OSM   H14F13401   2.865   2.224   8.218  0.4875 -0.0626 -1.5653
  125OSM   H14G13402   3.027   2.282   8.278 -0.3264 -0.3996  0.6032
  125OSM   C15F13403   2.933   2.096   8.369  0.5997 -1.2967 -0.3699
  125OSM   H15F13404   3.016   2.039   8.415  0.7772  0.0142  0.9953
  125OSM   H15G13405   2.872   2.015   8.323 -1.6286  1.5040 -2.7797
  125OSM   C16F13406   2.841   2.157   8.472  0.8264  0.0232 -0.9974
  125OSM   H16F13407   2.774   2.226   8.417  1.3158  1.3362  0.0020
  125OSM   H16G13408   2.888   2.220   8.551 -2.0060 -0.2904  1.1135
  125OSM   C17F13409   2.773   2.047   8.557  0.8549  0.3303 -0.6370
  125OSM   H17F13410   2.855   1.981   8.592  0.0451  0.1870  1.0956
  125OSM   H17G13411   2.692   1.993   8.503  0.1715  0.4507  0.2380
  125OSM   C18F13412   2.703   2.110   8.677 -0.1376 -0.4946 -0.3525
  125OSM   H18F13413   2.651   2.045   8.751 -0.4624 -0.0787 -0.2077
  125OSM   H18G13414   2.638   2.197   8.654  3.0094  1.9651 -0.5194
  125OSM   H18H13415   2.784   2.159   8.735  0.0385  1.0718 -1.8343
  126OSM      N13416   1.091   1.884   6.383 -0.0760 -0.4040 -0.0244
  126OSM    C1513417   1.199   1.778   6.393  0.1768  0.4311 -0.3363
  126OSM   H15A13418   1.230   1.735   6.299  1.3218 -0.2804  0.3487
  126OSM   H15B13419   1.161   1.700   6.457  2.3779 -0.2331  0.2380
  126OSM   H15C13420   1.284   1.819   6.446 -1.7509 -0.0461  3.5000
  126OSM    C1413421   1.131   1.996   6.294 -0.0710  0.0279 -0.1964
  126OSM   H14A13422   1.135   1.953   6.195  0.1068  1.6875 -0.9401
  126OSM   H14B13423   1.231   2.032   6.310  1.2294 -2.4663 -2.1004
  126OSM   H14C13424   1.063   2.080   6.287  1.5931  1.2802 -4.7256
  126OSM    C1313425   0.977   1.815   6.316  0.4944  0.1917 -0.0642
  126OSM   H13A13426   0.895   1.883   6.297  0.2150 -0.1620 -0.1444
  126OSM   H13B13427   0.950   1.730   6.377  4.0761  1.1879  3.2567
  126OSM   H13C13428   1.017   1.779   6.222  1.3798 -1.5898  0.9386
  126OSM    C1213429   1.058   1.943   6.520 -0.6104 -0.1296 -0.1691
  126OSM   H12A13430   0.984   2.020   6.506  1.2234  1.7033 -0.1249
  126OSM   H12B13431   1.150   1.982   6.560  1.0210 -1.5705 -2.2975
  126OSM    C1113432   1.010   1.848   6.639 -1.0287  0.3590  0.3567
  126OSM   H11A13433   0.994   1.901   6.735 -2.7402 -0.4147  0.5484
  126OSM   H11B13434   1.094   1.776   6.646 -0.9656  0.3590 -0.3324
  126OSM      P13435   0.754   1.840   6.576  0.0078 -0.2052  0.3357
  126OSM    O1313436   0.769   1.988   6.557  0.3486  0.3864 -0.4906
  126OSM    O1413437   0.688   1.763   6.467 -0.5505 -0.0299 -0.8155
  126OSM    O1113438   0.682   1.810   6.711 -0.2339  0.8381  0.1717
  126OSM    O1213439   0.893   1.780   6.608  0.1873  0.3603 -0.2487
  126OSM    C1S13440   0.756   1.829   6.835  0.2012 -0.0773  0.0246
  126OSM    H1S13441   0.786   1.936   6.837  1.8410 -0.4903  2.3308
  126OSM    H1T13442   0.832   1.751   6.854 -0.0121 -0.5496 -1.0032
  126OSM     NF13443   0.703   1.876   7.080  0.1784  0.2428  0.4657
  126OSM    HNF13444   0.725   1.813   7.154 -1.8096 -0.4176  0.5699
  126OSM    C2S13445   0.657   1.811   6.957 -0.1638  0.6650  0.2721
  126OSM    H2S13446   0.570   1.874   6.927  1.1882  2.0418 -0.9020
  126OSM    C3S13447   0.631   1.658   6.965  0.6827  0.2569  0.0129
  126OSM    H3S13448   0.716   1.594   6.996 -0.8241 -2.1259 -0.5084
  126OSM     O313449   0.590   1.589   6.842  0.1476 -0.7209 -0.4767
  126OSM    HO313450   0.610   1.658   6.779  0.0100  0.0143  0.2688
  126OSM    C4S13451   0.522   1.635   7.074  0.1426 -0.3746  0.0833
  126OSM    H4S13452   0.575   1.577   7.151 -0.7201 -0.5510  0.5530
  126OSM    C5S13453   0.393   1.668   7.095 -0.0714  0.2543  0.4477
  126OSM    H5S13454   0.345   1.719   7.010  1.4275  0.6923 -0.1638
  126OSM    C6S13455   0.315   1.643   7.221 -1.1520  0.1817 -0.4553
  126OSM    H6S13456   0.205   1.647   7.206 -0.9637  0.2367 -1.9320
  126OSM    H6T13457   0.353   1.711   7.299 -2.3704 -1.1632  1.3990
  126OSM    C7S13458   0.335   1.511   7.285 -0.7131 -0.1636  0.4137
  126OSM    H7S13459   0.443   1.505   7.308 -0.4395  3.5496  0.7957
  126OSM    H7T13460   0.294   1.431   7.220 -2.6350 -0.2901  1.6895
  126OSM    C8S13461   0.252   1.512   7.413  0.4709  0.9452 -0.5731
  126OSM    H8S13462   0.148   1.476   7.393  0.6542  1.2680 -2.2695
  126OSM    H8T13463   0.241   1.615   7.452 -2.9595 -0.0433  1.5537
  126OSM    C9S13464   0.322   1.421   7.516  0.1428  0.0821  0.7525
  126OSM    H9S13465   0.421   1.462   7.544  2.0842 -3.0155 -0.9653
  126OSM    H9T13466   0.336   1.320   7.471 -0.1392 -0.7106  2.3778
  126OSM   C10S13467   0.240   1.395   7.647  0.2719  0.1394  0.2321
  126OSM   H10S13468   0.142   1.346   7.627  0.3504  0.6420 -1.5579
  126OSM   H10T13469   0.220   1.500   7.675 -0.2948  0.1557 -0.2153
  126OSM   C11S13470   0.320   1.317   7.750 -0.2373  0.1813  0.2621
  126OSM   H11S13471   0.423   1.356   7.765  0.3465 -0.7613 -1.1325
  126OSM   H11T13472   0.328   1.210   7.722 -0.7794  0.4282 -0.9074
  126OSM   C12S13473   0.260   1.317   7.894  0.5995 -0.5340  0.6324
  126OSM   H12S13474   0.155   1.281   7.891  0.2698  0.2637  2.0062
  126OSM   H12T13475   0.259   1.426   7.913  1.9558 -0.1564 -1.1322
  126OSM   C13S13476   0.358   1.250   7.987 -0.5999 -0.1255 -0.5875
  126OSM   H13S13477   0.453   1.308   7.988 -0.2074 -0.7471  0.1214
  126OSM   H13T13478   0.385   1.147   7.954 -1.4724 -0.7852  0.6520
  126OSM   C14S13479   0.300   1.252   8.132 -0.0502  0.4107  0.1708
  126OSM   H14S13480   0.212   1.184   8.129 -0.8622  1.4577 -0.7190
  126OSM   H14T13481   0.270   1.358   8.146  0.5851  0.5122  0.8564
  126OSM   C15S13482   0.378   1.213   8.258 -0.1527  0.5823  0.5669
  126OSM   H15S13483   0.463   1.282   8.273  1.7618 -0.8188 -2.5968
  126OSM   H15T13484   0.431   1.115   8.249  1.8098  1.4661  1.8959
  126OSM   C16S13485   0.284   1.214   8.382  0.1112 -0.8069 -1.4924
  126OSM   H16S13486   0.194   1.152   8.360 -0.9324  0.1981 -0.1903
  126OSM   H16T13487   0.249   1.319   8.391 -2.1068 -1.6761  2.6915
  126OSM   C17S13488   0.339   1.168   8.521 -0.2958 -0.1624 -0.3360
  126OSM   H17S13489   0.437   1.220   8.537  0.2321 -1.6118  1.4199
  126OSM   H17T13490   0.368   1.061   8.513  1.8649  0.1892  1.5838
  126OSM   C18S13491   0.241   1.178   8.646 -0.4182  0.2714  1.1291
  126OSM   H18S13492   0.147   1.129   8.613  1.6155 -1.5599 -2.6736
  126OSM   H18T13493   0.221   1.285   8.666 -0.4127  0.8581 -1.5883
  126OSM   H18U13494   0.284   1.126   8.735 -0.8673 -0.6195  0.8415
  126OSM    C1F13495   0.684   2.004   7.109  0.1794  0.1250  0.0542
  126OSM     OF13496   0.680   2.089   7.019 -0.1972  0.2682 -0.3720
  126OSM    C2F13497   0.677   2.032   7.261 -0.0432 -0.4794 -0.7320
  126OSM    H2F13498   0.663   1.934   7.311  1.0873 -0.6543 -0.7297
  126OSM    H2G13499   0.577   2.079   7.272  0.1697 -0.0651 -0.5540
  126OSM    C3F13500   0.800   2.117   7.300  0.6515  0.4045 -0.5414
  126OSM    H3F13501   0.798   2.202   7.229 -1.6848  2.0669  1.3484
  126OSM    H3G13502   0.886   2.047   7.299 -1.3472 -2.2172 -0.4268
  126OSM    C4F13503   0.784   2.181   7.442  0.2798 -0.0698  0.8026
  126OSM    H4F13504   0.680   2.219   7.449 -0.4015 -1.9173  1.0136
  126OSM    H4G13505   0.860   2.262   7.445  0.3171  0.0680 -1.7985
  126OSM    C5F13506   0.816   2.076   7.550 -0.3732  0.4486 -0.1746
  126OSM    H5F13507   0.925   2.057   7.559 -0.2193  0.2240 -2.1912
  126OSM    H5G13508   0.763   1.982   7.525  0.7856 -0.7008  1.3916
  126OSM    C6F13509   0.762   2.123   7.683 -0.1664  0.0479 -0.0487
  126OSM    H6F13510   0.653   2.141   7.677 -0.4723 -0.7499  2.1613
  126OSM    H6G13511   0.804   2.219   7.720 -0.9118  0.9849 -1.5487
  126OSM    C7F13512   0.796   2.023   7.797 -0.3650  0.2417 -0.6967
  126OSM    H7F13513   0.905   2.010   7.813 -0.7668 -0.7100  1.7688
  126OSM    H7G13514   0.748   1.926   7.771 -0.7058 -0.0857  1.0068
  126OSM    C8F13515   0.748   2.065   7.941 -0.3976 -0.0755 -0.8830
  126OSM    H8F13516   0.762   1.989   8.020 -0.2402  0.1435 -0.6968
  126OSM    H8G13517   0.638   2.077   7.934 -0.4567  0.8795  1.1461
  126OSM    C9F13518   0.801   2.195   7.990 -0.1241  0.4378  0.4203
  126OSM    H9F13519   0.752   2.272   7.928  0.1229 -0.8080 -1.4150
  126OSM   C10F13520   0.901   2.226   8.076  0.3622 -1.4816  0.8543
  126OSM   H10F13521   0.913   2.333   8.098 -0.7108 -1.1221 -0.2064
  126OSM   C11F13522   0.997   2.135   8.147 -0.0417  0.4172 -0.2592
  126OSM   H11F13523   1.102   2.147   8.112  0.4859 -2.8838 -0.1427
  126OSM   H11G13524   0.975   2.028   8.126 -0.3433  0.5185 -0.4748
  126OSM   C12F13525   1.011   2.168   8.304  0.4723  0.1022 -0.6053
  126OSM   H12F13526   1.066   2.076   8.335  4.1893  2.3655  0.1909
  126OSM   H12G13527   0.909   2.170   8.348  0.2698 -0.5154 -1.0451
  126OSM   C13F13528   1.098   2.290   8.350 -0.0440 -0.2561 -0.3995
  126OSM   H13F13529   1.045   2.376   8.302  0.6233 -0.5503 -1.7274
  126OSM   H13G13530   1.201   2.276   8.310  0.9135  1.9386  1.0690
  126OSM   C14F13531   1.119   2.281   8.506 -0.2278 -0.1944 -0.3479
  126OSM   H14F13532   1.163   2.182   8.531  1.1429  0.0678 -1.5947
  126OSM   H14G13533   1.020   2.295   8.553 -0.3841  2.9926 -1.4132
  126OSM   C15F13534   1.226   2.390   8.559  0.6450 -0.2218  0.5067
  126OSM   H15F13535   1.188   2.492   8.540  3.6214  0.4388 -3.1957
  126OSM   H15G13536   1.322   2.388   8.503 -0.4078 -0.6005 -1.3502
  126OSM   C16F13537   1.251   2.383   8.710 -0.1622  0.6902  0.3420
  126OSM   H16F13538   1.284   2.280   8.736  1.6364  0.6293 -1.8336
  126OSM   H16G13539   1.150   2.405   8.750  0.8619  2.8188  1.9615
  126OSM   C17F13540   1.360   2.486   8.758 -0.3604 -0.2864 -0.5433
  126OSM   H17F13541   1.450   2.500   8.694  1.5156 -4.3436  0.8953
  126OSM   H17G13542   1.382   2.447   8.859 -1.9857  3.0015  1.2638
  126OSM   C18F13543   1.307   2.626   8.778  0.4023  0.1901  0.0694
  126OSM   H18F13544   1.285   2.676   8.682 -1.0347 -1.0473 -0.2789
  126OSM   H18G13545   1.387   2.679   8.835 -1.6723  0.6771  2.6956
  126OSM   H18H13546   1.222   2.631   8.849 -0.3055 -2.0036 -0.5344
  127OSM      N13547   6.670   0.194   6.204  0.0628 -0.2197 -0.0944
  127OSM    C1513548   6.813   0.175   6.245  0.7379 -0.6899  0.0294
  127OSM   H15A13549   6.815   0.106   6.328 -1.3805 -0.9736 -0.1089
  127OSM   H15B13550   6.862   0.268   6.270  0.7342 -0.6281 -0.1869
  127OSM   H15C13551   6.864   0.129   6.161  1.3042  1.8896 -1.1410
  127OSM    C1413552   6.593   0.249   6.325 -0.6590  0.1807 -0.4282
  127OSM   H14A13553   6.618   0.183   6.407  0.9286  0.2228 -0.8417
  127OSM   H14B13554   6.486   0.246   6.312 -0.9111  2.4512  0.6996
  127OSM   H14C13555   6.623   0.352   6.335  2.2849 -0.6149 -0.1878
  127OSM    C1313556   6.660   0.303   6.097 -0.1442 -0.3493  0.3219
  127OSM   H13A13557   6.677   0.405   6.126  0.0047  0.0680 -1.1198
  127OSM   H13B13558   6.562   0.300   6.051  0.1924 -1.2752 -0.3945
  127OSM   H13C13559   6.716   0.268   6.011  0.8450 -0.1261  0.8676
  127OSM    C1213560   6.596   0.071   6.160  0.1937 -0.6194 -0.3596
  127OSM   H12A13561   6.498   0.099   6.124  0.0985  1.1162  1.1003
  127OSM   H12B13562   6.580   0.015   6.251  0.3601  1.3096  0.9031
  127OSM    C1113563   6.664  -0.026   6.060  0.3057 -0.1271  0.8630
  127OSM   H11A13564   6.709   0.033   5.976  2.2122 -0.0286  1.9027
  127OSM   H11B13565   6.584  -0.088   6.015  1.1185 -0.0555 -0.7922
  127OSM      P13566   6.739  -0.222   6.208 -0.1008 -0.4036 -0.0085
  127OSM    O1313567   6.670  -0.166   6.329  0.2075 -0.0990  0.5425
  127OSM    O1413568   6.677  -0.341   6.145 -0.0411  0.7670  0.5559
  127OSM    O1113569   6.887  -0.262   6.244  0.0606  0.4940  1.0168
  127OSM    O1213570   6.772  -0.109   6.103  0.3505  0.3715 -0.8366
  127OSM    C1S13571   6.952  -0.199   6.353 -0.3208  0.6027  0.6239
  127OSM    H1S13572   6.936  -0.089   6.351 -0.0467  0.6414  0.4128
  127OSM    H1T13573   7.063  -0.205   6.347 -0.3680  1.4360 -2.2113
  127OSM     NF13574   7.007  -0.172   6.601 -0.3060  0.2318 -0.1501
  127OSM    HNF13575   7.089  -0.217   6.636 -0.5037 -0.0930 -0.0952
  127OSM    C2S13576   6.924  -0.245   6.502 -0.3130  0.7933  0.0134
  127OSM    H2S13577   6.814  -0.225   6.506  0.1571  3.6499  1.3888
  127OSM    C3S13578   6.935  -0.397   6.528  0.5179 -0.7246  0.2755
  127OSM    H3S13579   7.037  -0.440   6.518  0.1943 -2.2520  2.6402
  127OSM     O313580   6.848  -0.483   6.446 -0.4388 -0.4853 -0.0407
  127OSM    HO313581   6.809  -0.432   6.375 -0.9173  0.3962  0.8379
  127OSM    C4S13582   6.885  -0.427   6.671 -0.0631 -0.1740 -0.0042
  127OSM    H4S13583   6.776  -0.417   6.682  0.1031  0.9453  0.8050
  127OSM    C5S13584   6.960  -0.484   6.770  0.5584  0.1239 -0.0312
  127OSM    H5S13585   7.063  -0.519   6.759 -0.1956 -1.6011 -2.5795
  127OSM    C6S13586   6.895  -0.521   6.904  0.1567  0.2541  0.2864
  127OSM    H6S13587   6.951  -0.602   6.955 -0.6834 -1.1989 -0.9975
  127OSM    H6T13588   6.801  -0.574   6.878  0.7008 -0.4516 -0.2893
  127OSM    C7S13589   6.886  -0.403   6.998  0.2592 -0.6206  0.0077
  127OSM    H7S13590   6.819  -0.322   6.961  0.9106 -0.4552 -0.8592
  127OSM    H7T13591   6.987  -0.360   7.013  2.3617 -4.6592 -1.2059
  127OSM    C8S13592   6.840  -0.449   7.139 -0.6214 -0.3094 -0.6466
  127OSM    H8S13593   6.817  -0.557   7.154  0.7802 -0.5261  0.2038
  127OSM    H8T13594   6.749  -0.388   7.158 -0.6046 -1.0414  2.2371
  127OSM    C9S13595   6.935  -0.411   7.252 -0.9126  0.3611 -0.3141
  127OSM    H9S13596   6.953  -0.303   7.233 -1.7247 -0.0104 -3.9463
  127OSM    H9T13597   7.027  -0.470   7.232 -2.4600 -1.7139 -1.6992
  127OSM   C10S13598   6.883  -0.424   7.392  0.2103 -0.2116  0.1930
  127OSM   H10S13599   6.864  -0.531   7.413 -1.7913 -0.0428 -0.5258
  127OSM   H10T13600   6.788  -0.368   7.401  1.9813  2.8765  1.2275
  127OSM   C11S13601   6.982  -0.364   7.495  0.7131  0.0550  0.8712
  127OSM   H11S13602   7.008  -0.258   7.478  0.0802  0.0416 -0.2607
  127OSM   H11T13603   7.075  -0.426   7.488 -0.3267 -1.5588  0.7070
  127OSM   C12S13604   6.930  -0.380   7.632  0.7250 -1.0193 -0.3619
  127OSM   H12S13605   6.915  -0.485   7.665  0.9527 -0.8143  0.4079
  127OSM   H12T13606   6.830  -0.333   7.649  1.6623  0.4038  1.7544
  127OSM   C13S13607   7.027  -0.312   7.745  0.2273  0.1197  0.2514
  127OSM   H13S13608   7.061  -0.211   7.713  3.4113 -1.5364 -2.2618
  127OSM   H13T13609   7.117  -0.377   7.753 -0.0504 -0.1814  0.9647
  127OSM   C14S13610   6.961  -0.319   7.889 -0.0079 -0.3147 -0.8211
  127OSM   H14S13611   6.957  -0.423   7.928 -0.6770  0.6741  1.9616
  127OSM   H14T13612   6.857  -0.283   7.876  0.5627  1.8867  0.3011
  127OSM   C15S13613   7.032  -0.230   7.993 -0.2712 -0.4410 -0.4301
  127OSM   H15S13614   7.027  -0.128   7.950  0.7780  0.5214  1.6144
  127OSM   H15T13615   7.138  -0.259   8.009 -0.3543 -1.7978 -2.0452
  127OSM   C16S13616   6.970  -0.240   8.128 -0.5441  0.1825  0.3629
  127OSM   H16S13617   7.007  -0.337   8.165  0.6194 -0.6878 -2.7757
  127OSM   H16T13618   6.859  -0.248   8.120 -0.4877 -0.6005  0.2870
  127OSM   C17S13619   7.011  -0.115   8.212 -0.0803 -0.5015 -0.5053
  127OSM   H17S13620   6.969  -0.025   8.163  0.2529  1.3353  2.3347
  127OSM   H17T13621   7.121  -0.100   8.227 -0.3737  0.8401  0.5528
  127OSM   C18S13622   6.930  -0.115   8.340  0.7885 -1.3818  0.3776
  127OSM   H18S13623   6.936  -0.211   8.397  3.1088 -1.3824  0.2465
  127OSM   H18T13624   6.821  -0.108   8.318  0.9825  1.3090  0.0001
  127OSM   H18U13625   6.961  -0.033   8.408 -0.3366 -1.1283  0.6076
  127OSM    C1F13626   6.979  -0.045   6.636 -1.3299  0.5315  0.3968
  127OSM     OF13627   6.881   0.017   6.602 -0.4205  0.2717 -0.1558
  127OSM    C2F13628   7.087   0.018   6.725 -0.1648 -0.6284 -0.3459
  127OSM    H2F13629   7.038   0.112   6.756 -0.1333 -0.3006 -1.2730
  127OSM    H2G13630   7.183   0.034   6.672  0.4466 -0.7832  0.6867
  127OSM    C3F13631   7.134  -0.060   6.855  0.4731 -0.7380 -0.3002
  127OSM    H3F13632   7.229  -0.019   6.896 -0.2027  0.4048  0.1609
  127OSM    H3G13633   7.160  -0.165   6.829 -0.2785 -0.6094 -1.6455
  127OSM    C4F13634   7.035  -0.060   6.967  0.0088  0.0711  0.0314
  127OSM    H4F13635   7.056  -0.134   7.048 -1.8159  0.4760  0.9262
  127OSM    H4G13636   6.931  -0.086   6.938  0.0776 -0.8293  0.5490
  127OSM    C5F13637   7.011   0.070   7.044 -0.0803 -0.5970 -0.0810
  127OSM    H5F13638   6.963   0.138   6.970  2.6864  0.8193 -0.6860
  127OSM    H5G13639   7.109   0.115   7.071 -0.9086  0.8558  0.5929
  127OSM    C6F13640   6.941   0.058   7.180 -0.1469  0.2419  0.3611
  127OSM    H6F13641   6.950   0.148   7.245  3.7504 -0.7032  1.4155
  127OSM    H6G13642   7.000  -0.014   7.241 -1.4843 -2.3755 -1.2380
  127OSM    C7F13643   6.793   0.014   7.180 -0.1805 -0.2412 -0.6665
  127OSM    H7F13644   6.795  -0.089   7.138  3.0073 -0.1187 -1.0306
  127OSM    H7G13645   6.739   0.083   7.111  0.1789  0.2265 -0.4877
  127OSM    C8F13646   6.720   0.017   7.320 -0.5501  0.4043  0.4162
  127OSM    H8F13647   6.612  -0.006   7.320 -0.3824 -0.5581  1.9858
  127OSM    H8G13648   6.722   0.124   7.348 -1.0421  0.5119  0.0335
  127OSM    C9F13649   6.790  -0.065   7.428  0.1739 -0.5971  0.0939
  127OSM    H9F13650   6.822  -0.163   7.389 -0.7640 -0.0440 -2.2355
  127OSM   C10F13651   6.809  -0.032   7.557 -0.5056 -0.3626 -0.1376
  127OSM   H10F13652   6.864  -0.104   7.621 -1.6253 -0.4432  0.7670
  127OSM   C11F13653   6.773   0.093   7.630  0.5600 -0.0878 -0.2603
  127OSM   H11F13654   6.806   0.178   7.566  0.4511 -1.2739 -1.9679
  127OSM   H11G13655   6.833   0.108   7.722  1.0979 -2.2800 -0.2045
  127OSM   C12F13656   6.624   0.111   7.664 -0.5922  0.6203 -0.0190
  127OSM   H12F13657   6.555   0.123   7.577 -1.0806  2.5566  0.5997
  127OSM   H12G13658   6.624   0.209   7.715 -0.5470 -0.1818  1.5814
  127OSM   C13F13659   6.558   0.013   7.763 -0.1691 -0.3087  0.3784
  127OSM   H13F13660   6.562  -0.085   7.710  0.0619 -1.4062  2.3066
  127OSM   H13G13661   6.451   0.037   7.783 -0.1746  0.1483 -0.1911
  127OSM   C14F13662   6.643  -0.002   7.896  0.3051  0.2412 -0.4653
  127OSM   H14F13663   6.751  -0.021   7.880  0.5829 -0.8207  2.1564
  127OSM   H14G13664   6.600  -0.095   7.940 -1.5868  1.4481  0.3658
  127OSM   C15F13665   6.623   0.113   7.998  0.2440  1.4582 -0.0964
  127OSM   H15F13666   6.515   0.111   8.022  0.3964  0.5766  0.5729
  127OSM   H15G13667   6.650   0.210   7.950  0.3988  0.3526 -2.3953
  127OSM   C16F13668   6.700   0.086   8.131  0.2791 -0.4955 -0.0718
  127OSM   H16F13669   6.804   0.059   8.104 -0.4972 -0.9309 -3.0241
  127OSM   H16G13670   6.663   0.000   8.190  0.1070 -0.1731  0.2934
  127OSM   C17F13671   6.706   0.215   8.219 -0.4137 -0.4502 -0.1985
  127OSM   H17F13672   6.763   0.190   8.311  0.8955 -0.7336 -1.0603
  127OSM   H17G13673   6.606   0.258   8.240 -0.3920 -0.2496 -0.4891
  127OSM   C18F13674   6.784   0.334   8.164 -0.4044  0.2654 -0.0541
  127OSM   H18F13675   6.791   0.409   8.246 -3.2290  1.4838 -0.8075
  127OSM   H18G13676   6.737   0.389   8.080 -0.8006  2.2607  1.3938
  127OSM   H18H13677   6.882   0.301   8.122 -1.7236 -1.4955 -1.9481
  128OSM      N13678   3.051   3.153   5.888 -0.1893 -0.0371 -0.6616
  128OSM    C1513679   3.055   3.283   5.814 -0.1101  0.1007  0.4013
  128OSM   H15A13680   2.960   3.333   5.803 -0.9561 -1.3607  0.7679
  128OSM   H15B13681   3.099   3.265   5.717 -3.0939 -1.7092 -0.7537
  128OSM   H15C13682   3.120   3.343   5.876  0.6299 -1.2494  0.9764
  128OSM    C1413683   2.981   3.052   5.804  0.7026  0.0113  0.3242
  128OSM   H14A13684   2.980   2.954   5.849  2.5693 -0.0380  0.3242
  128OSM   H14B13685   3.040   3.037   5.714  1.5274 -1.2954  1.0489
  128OSM   H14C13686   2.878   3.081   5.791  1.6297  3.7132 -0.0687
  128OSM    C1313687   3.186   3.099   5.906 -0.8667  1.1153  0.1086
  128OSM   H13A13688   3.243   3.075   5.817  0.7742 -0.6400  1.5392
  128OSM   H13B13689   3.187   3.011   5.969  1.1041 -0.4324 -1.9048
  128OSM   H13C13690   3.252   3.165   5.961 -0.1035 -0.9203  1.7714
  128OSM    C1213691   2.981   3.176   6.023  0.2331 -0.0019 -0.1203
  128OSM   H12A13692   2.893   3.234   6.003  1.0832  1.3407 -0.1161
  128OSM   H12B13693   3.036   3.246   6.085 -2.3649  1.2674  0.8727
  128OSM    C1113694   2.940   3.065   6.129  0.6965 -0.6285 -0.4126
  128OSM   H11A13695   2.864   2.995   6.088  2.0091 -1.8958 -0.7850
  128OSM   H11B13696   2.892   3.110   6.218 -0.7197 -1.3104 -0.7995
  128OSM      P13697   3.161   3.027   6.264  0.3700 -0.0960  0.3998
  128OSM    O1313698   3.176   2.926   6.365  0.6672 -0.1148 -0.0435
  128OSM    O1413699   3.283   3.071   6.189 -0.6177  0.4765  0.1807
  128OSM    O1113700   3.111   3.160   6.334  0.1276 -0.8906  0.4310
  128OSM    O1213701   3.051   2.988   6.164 -0.4755  0.1360 -0.6154
  128OSM    C1S13702   3.015   3.163   6.437  0.1646  0.4281 -0.0168
  128OSM    H1S13703   2.976   3.060   6.452  2.2471 -0.6736 -1.6095
  128OSM    H1T13704   2.933   3.226   6.397 -1.6230 -0.3854  2.0871
  128OSM     NF13705   2.939   3.236   6.663 -0.3569 -0.6463  0.4202
  128OSM    HNF13706   2.897   3.327   6.670 -0.6078 -0.6995 -0.2962
  128OSM    C2S13707   3.056   3.229   6.575 -0.0617  0.4896  0.2866
  128OSM    H2S13708   3.127   3.158   6.624 -0.1068 -0.1494 -0.5417
  128OSM    C3S13709   3.142   3.355   6.545  0.5022 -0.1813 -0.3154
  128OSM    H3S13710   3.075   3.415   6.478 -1.7115  0.8394  2.6075
  128OSM     O313711   3.266   3.317   6.483 -0.3193  0.0619 -0.1335
  128OSM    HO313712   3.213   3.273   6.415  1.7031  0.9419 -2.4216
  128OSM    C4S13713   3.175   3.439   6.664 -0.1704 -0.0213 -0.9318
  128OSM    H4S13714   3.224   3.380   6.743  0.4533  1.4571 -0.1631
  128OSM    C5S13715   3.169   3.567   6.693  0.8242  0.2707  0.3296
  128OSM    H5S13716   3.134   3.637   6.616 -1.5386 -0.3816  0.7222
  128OSM    C6S13717   3.205   3.626   6.832 -0.3787  0.2920 -0.6273
  128OSM    H6S13718   3.258   3.723   6.828 -1.3763  0.8561 -0.3280
  128OSM    H6T13719   3.284   3.559   6.874 -2.5315 -1.3257  1.0376
  128OSM    C7S13720   3.097   3.631   6.940  0.4623 -0.2337 -0.2251
  128OSM    H7S13721   3.044   3.534   6.949 -1.2016  0.6994  0.5240
  128OSM    H7T13722   3.019   3.705   6.911  1.4698  1.1205  0.3776
  128OSM    C8S13723   3.152   3.668   7.080  0.3684  0.4689 -0.6372
  128OSM    H8S13724   3.204   3.766   7.073  0.9068  0.1786 -0.8020
  128OSM    H8T13725   3.232   3.591   7.092 -0.6496 -0.4354  0.5897
  128OSM    C9S13726   3.053   3.670   7.190  0.3695 -0.0773  0.1044
  128OSM    H9S13727   3.010   3.580   7.239 -0.8497  0.7304  0.5857
  128OSM    H9T13728   2.963   3.723   7.152  0.4260 -0.5203 -0.6751
  128OSM   C10S13729   3.106   3.760   7.309 -0.8880  0.8555  0.0422
  128OSM   H10S13730   3.131   3.858   7.263 -2.3644  0.7782 -0.9716
  128OSM   H10T13731   3.199   3.716   7.351  0.5290  1.5844 -2.1403
  128OSM   C11S13732   3.013   3.777   7.425  0.3794  0.3763  0.1602
  128OSM   H11S13733   2.996   3.684   7.484 -1.1507  2.2025  2.8450
  128OSM   H11T13734   2.913   3.809   7.388  0.7906 -0.8289 -2.1465
  128OSM   C12S13735   3.062   3.872   7.530  0.7531  0.2408 -0.2299
  128OSM   H12S13736   3.048   3.975   7.490  2.2405  1.0358  1.1802
  128OSM   H12T13737   3.170   3.849   7.546  0.5262  0.1128  1.1955
  128OSM   C13S13738   3.003   3.847   7.666 -0.0967  0.0880 -0.1027
  128OSM   H13S13739   2.892   3.843   7.660 -0.3442 -2.2239  3.5109
  128OSM   H13T13740   3.015   3.936   7.731 -3.3695 -0.0475  0.8713
  128OSM   C14S13741   3.065   3.736   7.754  0.1329 -0.2820 -0.0202
  128OSM   H14S13742   3.172   3.765   7.759  0.0252  0.0682  0.2805
  128OSM   H14T13743   3.043   3.636   7.711  0.0649 -0.9710  1.5289
  128OSM   C15S13744   3.010   3.739   7.899  0.7532  0.1452  0.4995
  128OSM   H15S13745   2.900   3.741   7.887  0.7388 -0.4218  0.4679
  128OSM   H15T13746   3.043   3.826   7.959  0.2439 -0.4442  1.6870
  128OSM   C16S13747   3.048   3.620   7.991  0.2184  0.3954 -0.5310
  128OSM   H16S13748   3.000   3.525   7.961 -0.2152  0.1909  0.7344
  128OSM   H16T13749   3.015   3.644   8.094 -0.2290 -1.3756 -0.2460
  128OSM   C17S13750   3.201   3.608   8.014 -0.4645 -0.0609  0.4710
  128OSM   H17S13751   3.258   3.702   8.032  0.2162 -0.6731  1.6723
  128OSM   H17T13752   3.253   3.570   7.924  1.3869  0.5233  1.2445
  128OSM   C18S13753   3.232   3.512   8.131  1.1648 -0.5051  0.1319
  128OSM   H18S13754   3.138   3.503   8.190  3.0400 -0.8746  3.3295
  128OSM   H18T13755   3.308   3.559   8.197  0.4809  0.3624  0.3205
  128OSM   H18U13756   3.253   3.415   8.082  0.1114 -0.7935  0.2227
  128OSM    C1F13757   2.880   3.131   6.721 -0.1686 -1.0559 -0.3706
  128OSM     OF13758   2.919   3.021   6.702  0.2295  0.0017  0.5744
  128OSM    C2F13759   2.775   3.163   6.817  1.0217  0.0377 -0.4786
  128OSM    H2F13760   2.680   3.171   6.760 -0.4626 -1.1959  1.6692
  128OSM    H2G13761   2.792   3.258   6.873  1.1517  0.0194 -0.4874
  128OSM    C3F13762   2.752   3.051   6.922 -0.1458 -0.6445 -0.1111
  128OSM    H3F13763   2.854   3.016   6.952  0.2796  0.8941  0.3037
  128OSM    H3G13764   2.709   2.968   6.862  1.5960 -0.9498 -1.0042
  128OSM    C4F13765   2.666   3.089   7.043 -0.2377  0.9801 -0.0730
  128OSM    H4F13766   2.559   3.069   7.019 -0.2226 -0.3140  0.8196
  128OSM    H4G13767   2.673   3.199   7.060 -2.8649  0.9776  1.5917
  128OSM    C5F13768   2.708   3.005   7.162  0.3528  0.1149 -0.0184
  128OSM    H5F13769   2.817   2.986   7.178  0.0981 -2.0031 -0.6136
  128OSM    H5G13770   2.671   2.904   7.136 -0.0590  0.0157  0.9099
  128OSM    C6F13771   2.653   3.049   7.305 -0.2618  0.9897 -0.1462
  128OSM    H6F13772   2.544   3.026   7.305  0.3446 -2.2806 -0.3083
  128OSM    H6G13773   2.671   3.156   7.328  0.1687  0.7387  0.7101
  128OSM    C7F13774   2.719   2.967   7.410 -0.0799 -0.0895 -0.0387
  128OSM    H7F13775   2.830   2.976   7.410 -0.1651  1.0681 -0.7220
  128OSM    H7G13776   2.713   2.860   7.379  2.6096  0.1348 -1.6300
  128OSM    C8F13777   2.660   2.989   7.546 -0.0531 -1.0187  0.4884
  128OSM    H8F13778   2.566   2.929   7.548 -0.5874 -0.2008  0.4331
  128OSM    H8G13779   2.634   3.097   7.556  0.6877 -1.0228  2.9395
  128OSM    C9F13780   2.731   2.964   7.669 -0.5546  0.3674 -0.3629
  128OSM    H9F13781   2.830   3.011   7.670  0.1441 -1.0047 -1.0653
  128OSM   C10F13782   2.683   2.899   7.778  0.3936 -0.6169 -0.6779
  128OSM   H10F13783   2.748   2.878   7.863  1.0473  1.3714 -0.6335
  128OSM   C11F13784   2.547   2.830   7.786 -0.1540  0.7836  0.0022
  128OSM   H11F13785   2.566   2.725   7.754 -1.1879  0.3633  0.7230
  128OSM   H11G13786   2.467   2.868   7.719 -1.1876 -1.5425 -0.1937
  128OSM   C12F13787   2.504   2.831   7.936 -0.2291 -0.2834  0.0492
  128OSM   H12F13788   2.401   2.790   7.946 -0.0771 -1.0730 -1.2957
  128OSM   H12G13789   2.510   2.934   7.977 -1.5767  0.1212 -0.6915
  128OSM   C13F13790   2.595   2.746   8.028  0.3489 -0.0966  0.2025
  128OSM   H13F13791   2.567   2.779   8.130  0.8149  0.7142  0.0801
  128OSM   H13G13792   2.703   2.767   8.016  0.3285  0.5874  1.1171
  128OSM   C14F13793   2.567   2.593   8.009  0.1219  0.1167  0.5449
  128OSM   H14F13794   2.594   2.578   7.902  0.6998  1.7900  0.4372
  128OSM   H14G13795   2.463   2.565   8.036  1.0232 -3.9232  0.5069
  128OSM   C15F13796   2.661   2.497   8.089  0.7649 -0.4250  0.0078
  128OSM   H15F13797   2.766   2.527   8.071  0.8445 -0.1572  0.8790
  128OSM   H15G13798   2.650   2.395   8.048 -0.4741  0.3596 -1.7564
  128OSM   C16F13799   2.637   2.518   8.240 -0.0820 -0.2714  0.6210
  128OSM   H16F13800   2.634   2.626   8.264  0.6645 -0.1695  0.3025
  128OSM   H16G13801   2.726   2.472   8.289  1.7350  1.7273 -0.6332
  128OSM   C17F13802   2.513   2.449   8.286 -0.4587  0.3035  0.4957
  128OSM   H17F13803   2.512   2.346   8.244 -0.7815  0.0811  1.0360
  128OSM   H17G13804   2.430   2.499   8.231 -0.4815 -0.4711 -0.1927
  128OSM   C18F13805   2.488   2.437   8.436  0.3542  0.3454 -0.5834
  128OSM   H18F13806   2.399   2.374   8.457 -1.2617  3.4214  2.9008
  128OSM   H18G13807   2.465   2.533   8.486 -1.0536  0.9603 -2.3077
  128OSM   H18H13808   2.566   2.384   8.495 -0.2159 -1.9988 -1.8259
  129OSM      N13809   0.209   6.197   6.089  0.3536 -0.5625 -0.2935
  129OSM    C1513810   0.228   6.282   5.962 -0.2017 -0.5037  0.4108
  129OSM   H15A13811   0.334   6.303   5.961 -0.5279  1.3670  0.9941
  129OSM   H15B13812   0.181   6.379   5.963  0.3363 -0.1116 -2.2836
  129OSM   H15C13813   0.203   6.234   5.868  0.8262 -0.5220  0.1306
  129OSM    C1413814   0.059   6.178   6.118  0.0118  0.1553  0.3236
  129OSM   H14A13815   0.039   6.110   6.199 -3.7195  2.8651  1.9509
  129OSM   H14B13816   0.014   6.145   6.026 -2.0315  1.3695  0.8269
  129OSM   H14C13817   0.020   6.276   6.143  0.9372  0.0945  2.1825
  129OSM    C1313818   0.273   6.067   6.075 -0.7682 -0.0147 -0.0907
  129OSM   H13A13819   0.247   6.022   5.981  1.4768 -1.2494 -0.1716
  129OSM   H13B13820   0.256   5.997   6.156 -0.1999 -2.7856 -2.2366
  129OSM   H13C13821   0.380   6.082   6.072 -0.7837 -0.0205 -0.6187
  129OSM    C1213822   0.274   6.276   6.199 -0.5681 -0.8717  0.2586
  129OSM   H12A13823   0.246   6.235   6.295 -0.1494 -1.8287 -0.0130
  129OSM   H12B13824   0.238   6.378   6.195 -0.6722 -0.9151  0.0781
  129OSM    C1113825   0.430   6.297   6.195  1.0175 -0.6965 -0.3924
  129OSM   H11A13826   0.453   6.369   6.277  0.4539 -0.6873 -0.2336
  129OSM   H11B13827   0.446   6.348   6.098 -1.2178 -1.7557 -1.3792
  129OSM      P13828   0.647   6.186   6.245 -0.1046 -0.3008  0.4027
  129OSM    O1313829   0.722   6.081   6.171  0.4121  0.3876 -0.2837
  129OSM    O1413830   0.697   6.324   6.228 -0.4478  0.0137  0.2275
  129OSM    O1113831   0.651   6.145   6.400  0.1584  0.2605  0.3798
  129OSM    O1213832   0.502   6.175   6.191  0.4897  0.0549  1.0571
  129OSM    C1S13833   0.544   6.057   6.441  0.2118  0.1705 -0.0374
  129OSM    H1S13834   0.536   5.962   6.384 -0.5257  0.2758 -0.1235
  129OSM    H1T13835   0.444   6.106   6.436  1.3179  2.5276 -0.2891
  129OSM     NF13836   0.487   5.884   6.628 -0.0221 -0.1921 -0.0963
  129OSM    HNF13837   0.436   5.909   6.710  0.3743  0.4535 -0.0363
  129OSM    C2S13838   0.562   6.008   6.591  1.2324 -0.0020  1.2558
  129OSM    H2S13839   0.669   5.978   6.593  1.1988 -0.9709 -2.7034
  129OSM    C3S13840   0.533   6.128   6.689 -0.7109 -0.2155 -0.9001
  129OSM    H3S13841   0.422   6.132   6.697 -0.5973 -0.6149  1.3164
  129OSM     O313842   0.589   6.251   6.653 -0.8817 -0.4578 -0.3920
  129OSM    HO313843   0.618   6.242   6.563 -0.3695  1.1491 -0.4196
  129OSM    C4S13844   0.587   6.097   6.836 -0.9427 -0.0590  0.0742
  129OSM    H4S13845   0.693   6.068   6.835 -1.0983 -0.7578  1.4531
  129OSM    C5S13846   0.513   6.093   6.949  0.1831  1.0954 -0.1961
  129OSM    H5S13847   0.404   6.100   6.937 -0.1242 -2.1698 -0.3417
  129OSM    C6S13848   0.565   6.044   7.084  0.1771  0.0149 -0.0622
  129OSM    H6S13849   0.675   6.033   7.087  0.0943 -0.7030  1.4150
  129OSM    H6T13850   0.506   5.951   7.101 -2.4300  1.7408  1.1058
  129OSM    C7S13851   0.522   6.140   7.198  0.1892 -0.1706  0.3440
  129OSM    H7S13852   0.412   6.148   7.199  0.1904  0.6201 -1.5023
  129OSM    H7T13853   0.552   6.245   7.178  2.8432 -0.9184 -0.0585
  129OSM    C8S13854   0.579   6.109   7.341 -0.6904  0.4330  0.4372
  129OSM    H8S13855   0.688   6.087   7.336 -0.9186 -0.5825 -0.4601
  129OSM    H8T13856   0.524   6.021   7.382  1.3504 -0.3388  1.7205
  129OSM    C9S13857   0.565   6.220   7.434  0.4002  0.2365  0.4240
  129OSM    H9S13858   0.471   6.278   7.423  0.0076 -0.8072 -2.4157
  129OSM    H9T13859   0.649   6.290   7.411 -0.2774  2.1660  3.2341
  129OSM   C10S13860   0.588   6.183   7.577 -0.4344  0.2988  1.0037
  129OSM   H10S13861   0.675   6.115   7.588 -0.0056  1.1929  3.9900
  129OSM   H10T13862   0.508   6.115   7.613  0.2989  0.0227  2.1486
  129OSM   C11S13863   0.613   6.298   7.668 -0.9922  0.0888 -0.0110
  129OSM   H11S13864   0.526   6.365   7.652 -1.0583  0.1454  0.5653
  129OSM   H11T13865   0.700   6.363   7.645 -2.1408  1.4614 -0.5806
  129OSM   C12S13866   0.629   6.252   7.812  0.0123  0.1903 -0.8984
  129OSM   H12S13867   0.720   6.192   7.832  0.5647  1.7126  1.6601
  129OSM   H12T13868   0.542   6.187   7.834  1.1609 -1.8317 -2.0735
  129OSM   C13S13869   0.621   6.368   7.915  0.6414  0.3317 -0.2648
  129OSM   H13S13870   0.523   6.421   7.907  0.8839  0.7070 -0.8397
  129OSM   H13T13871   0.701   6.443   7.897  0.9624  0.4196  1.3875
  129OSM   C14S13872   0.650   6.318   8.057  0.0110 -0.3532 -0.2161
  129OSM   H14S13873   0.736   6.248   8.056 -1.4261 -2.2465  0.5370
  129OSM   H14T13874   0.566   6.250   8.082 -0.3069  0.6323  1.5269
  129OSM   C15S13875   0.676   6.438   8.163  0.4173  0.1819  0.3857
  129OSM   H15S13876   0.572   6.475   8.174 -0.3776 -1.5200 -0.9208
  129OSM   H15T13877   0.743   6.518   8.127  0.5309 -0.4847 -0.9539
  129OSM   C16S13878   0.694   6.379   8.300 -0.1653  0.0426  0.0793
  129OSM   H16S13879   0.799   6.340   8.298  0.3558  1.4016 -0.5801
  129OSM   H16T13880   0.620   6.299   8.319 -1.2368  0.1975 -2.8877
  129OSM   C17S13881   0.678   6.489   8.406 -0.3335 -0.1149 -0.0717
  129OSM   H17S13882   0.599   6.560   8.374 -0.2473 -0.5365 -1.3078
  129OSM   H17T13883   0.773   6.543   8.388 -0.4984 -0.3110 -1.7448
  129OSM   C18S13884   0.681   6.437   8.549  0.8004 -0.7546  0.1781
  129OSM   H18S13885   0.757   6.356   8.538  1.3912  0.0008 -1.6483
  129OSM   H18T13886   0.587   6.394   8.590  0.1570  1.7033  1.4867
  129OSM   H18U13887   0.719   6.513   8.621 -0.7269 -1.1368  1.4539
  129OSM    C1F13888   0.511   5.765   6.574  0.3408 -0.1388  0.6000
  129OSM     OF13889   0.589   5.755   6.481  0.0881 -0.6747 -0.6821
  129OSM    C2F13890   0.436   5.641   6.622  0.0105  0.0581  0.0015
  129OSM    H2F13891   0.464   5.563   6.548 -0.7401  0.0072 -0.2443
  129OSM    H2G13892   0.326   5.658   6.628 -0.0531 -0.0617 -0.7489
  129OSM    C3F13893   0.488   5.602   6.762  0.1952  0.1476 -0.4619
  129OSM    H3F13894   0.460   5.684   6.832 -3.0617 -0.3732 -1.0007
  129OSM    H3G13895   0.597   5.586   6.754  0.0353 -0.2776 -2.2403
  129OSM    C4F13896   0.442   5.468   6.812  0.3939  1.0310 -0.9239
  129OSM    H4F13897   0.473   5.383   6.748  1.5038  0.6531  0.0845
  129OSM    H4G13898   0.331   5.468   6.813  0.3222  3.6980 -1.2594
  129OSM    C5F13899   0.496   5.437   6.953  0.6409  0.7382 -0.0273
  129OSM    H5F13900   0.606   5.447   6.967  0.5133  1.1767  0.7297
  129OSM    H5G13901   0.477   5.332   6.984  0.9009  0.1414 -1.7998
  129OSM    C6F13902   0.451   5.536   7.061 -0.8516 -0.1788  0.4919
  129OSM    H6F13903   0.344   5.559   7.043  0.2920  3.3593 -3.3731
  129OSM    H6G13904   0.513   5.628   7.049  2.9024 -2.3728  1.4338
  129OSM    C7F13905   0.475   5.483   7.199 -0.7948 -0.0886  0.5152
  129OSM    H7F13906   0.584   5.467   7.215 -0.5900  0.5292 -0.2120
  129OSM    H7G13907   0.448   5.375   7.205  1.3243 -0.7419 -0.5342
  129OSM    C8F13908   0.428   5.553   7.325 -1.3398  0.1318  0.2979
  129OSM    H8F13909   0.325   5.594   7.315 -1.9209 -1.0289  1.2655
  129OSM    H8G13910   0.484   5.649   7.321 -2.4305  0.9521  2.5445
  129OSM    C9F13911   0.432   5.481   7.454 -0.1562  0.2013  0.4362
  129OSM    H9F13912   0.355   5.403   7.462 -1.9317  1.9089  0.8970
  129OSM   C10F13913   0.512   5.506   7.558 -0.3398  0.2916  0.0102
  129OSM   H10F13914   0.513   5.438   7.644  0.6039  0.5796  0.2409
  129OSM   C11F13915   0.617   5.615   7.558  0.0863 -0.2065 -0.1001
  129OSM   H11F13916   0.589   5.685   7.476  3.2822 -0.4341 -1.5277
  129OSM   H11G13917   0.717   5.580   7.524  1.1475  1.6875  0.8912
  129OSM   C12F13918   0.636   5.699   7.689 -0.3644 -0.1124 -0.4562
  129OSM   H12F13919   0.651   5.634   7.778  0.6242  0.7241  0.0027
  129OSM   H12G13920   0.546   5.766   7.691 -0.8397 -0.5933  3.7862
  129OSM   C13F13921   0.759   5.792   7.685  0.1847  0.1862  0.7301
  129OSM   H13F13922   0.780   5.842   7.588  2.6237 -1.2077  0.4394
  129OSM   H13G13923   0.855   5.735   7.686  0.4386  0.3806 -2.1944
  129OSM   C14F13924   0.767   5.896   7.803 -0.0807  0.4870  0.4197
  129OSM   H14F13925   0.689   5.975   7.795 -0.1390  0.2928 -1.3124
  129OSM   H14G13926   0.863   5.951   7.791  1.1011 -1.7698 -1.2234
  129OSM   C15F13927   0.757   5.826   7.939  0.5437 -0.0451 -0.5194
  129OSM   H15F13928   0.829   5.743   7.949  0.7473 -0.2701 -3.1771
  129OSM   H15G13929   0.655   5.783   7.944  0.8982 -0.8558 -0.0777
  129OSM   C16F13930   0.773   5.913   8.070  0.7594  0.4958  0.2846
  129OSM   H16F13931   0.756   5.871   8.171  2.9320 -0.2009  0.4165
  129OSM   H16G13932   0.704   5.999   8.061  0.2520  0.2260  1.4865
  129OSM   C17F13933   0.920   5.972   8.080  0.5585  0.3676 -0.2159
  129OSM   H17F13934   0.912   6.059   8.011 -0.1816  0.7229  0.3057
  129OSM   H17G13935   0.978   5.884   8.044  0.0780 -0.2835  0.5426
  129OSM   C18F13936   0.969   6.026   8.211  0.1619  0.9895 -0.1413
  129OSM   H18F13937   1.069   6.074   8.210 -0.2061  1.7708 -0.1454
  129OSM   H18G13938   0.972   5.946   8.288 -0.2388 -0.2733 -1.3741
  129OSM   H18H13939   0.896   6.093   8.261  0.9355  2.5700 -1.0521
  130OSM      N13940   3.582   1.862   6.257 -0.8446 -0.4390 -0.8446
  130OSM    C1513941   3.715   1.922   6.311  0.3218  0.2258 -0.2968
  130OSM   H15A13942   3.710   2.030   6.299 -3.2669  0.2036 -0.2124
  130OSM   H15B13943   3.801   1.889   6.256 -0.1081 -0.8392 -0.3524
  130OSM   H15C13944   3.733   1.909   6.417  0.7805  1.3365 -0.2190
  130OSM    C1413945   3.602   1.714   6.249  0.2828 -0.3482 -0.0892
  130OSM   H14A13946   3.684   1.684   6.186  0.3959  1.8512 -1.1020
  130OSM   H14B13947   3.511   1.665   6.217 -0.5880  0.7806  0.5893
  130OSM   H14C13948   3.619   1.671   6.346 -1.3089 -0.4593  0.1605
  130OSM    C1313949   3.474   1.893   6.358 -0.3917 -0.1808  0.1362
  130OSM   H13A13950   3.382   1.838   6.343 -0.9663  1.0813 -1.1776
  130OSM   H13B13951   3.454   1.998   6.349  0.4275 -0.0395 -0.1606
  130OSM   H13C13952   3.512   1.864   6.455 -0.9376 -0.5628  0.2425
  130OSM    C1213953   3.546   1.908   6.117 -0.6313  0.2388 -0.4355
  130OSM   H12A13954   3.447   1.871   6.097 -1.2768  2.2260 -1.1102
  130OSM   H12B13955   3.623   1.861   6.057  1.1267  1.0053  1.0971
  130OSM    C1113956   3.568   2.053   6.094  0.3747 -0.4982  0.1379
  130OSM   H11A13957   3.558   2.068   5.984  0.7601 -1.0371  0.0227
  130OSM   H11B13958   3.671   2.074   6.128  0.3901 -2.2389  1.3058
  130OSM      P13959   3.497   2.262   6.233  0.0933  0.0420  0.2597
  130OSM    O1313960   3.538   2.354   6.119 -0.3017  0.6656  0.1052
  130OSM    O1413961   3.381   2.305   6.315 -0.4928  0.2860  0.4180
  130OSM    O1113962   3.631   2.234   6.320  0.0784 -0.2740 -0.2786
  130OSM    O1213963   3.465   2.127   6.165  0.4826  0.7514  0.4470
  130OSM    C1S13964   3.655   2.327   6.428 -0.0654 -0.0142 -0.5839
  130OSM    H1S13965   3.570   2.345   6.497  1.0654 -2.7788  1.7757
  130OSM    H1T13966   3.673   2.429   6.389 -1.9083  0.3911 -0.4564
  130OSM     NF13967   3.752   2.353   6.662  0.0511 -0.2122 -1.7188
  130OSM    HNF13968   3.811   2.432   6.674  0.5687  0.0315 -4.8419
  130OSM    C2S13969   3.760   2.281   6.538  0.2477 -0.1127 -0.5736
  130OSM    H2S13970   3.736   2.179   6.575  1.0639  0.4419  1.6180
  130OSM    C3S13971   3.903   2.273   6.485 -0.3805  0.8167 -0.9389
  130OSM    H3S13972   3.941   2.375   6.463  0.4762  0.4592 -1.1561
  130OSM     O313973   3.898   2.205   6.357  0.5308 -0.3797 -0.0692
  130OSM    HO313974   3.806   2.228   6.343  0.1195 -0.9321  1.5769
  130OSM    C4S13975   3.995   2.210   6.582 -1.2763  0.4867 -0.3640
  130OSM    H4S13976   4.059   2.280   6.638  1.3543 -2.5670  0.7017
  130OSM    C5S13977   3.996   2.077   6.606  0.6758 -0.5274  0.6287
  130OSM    H5S13978   3.926   2.008   6.556  0.7398  0.0846 -0.3464
  130OSM    C6S13979   4.069   2.013   6.719 -0.4053 -0.2038 -0.7519
  130OSM    H6S13980   4.161   1.964   6.679 -0.0126  0.2951 -0.4590
  130OSM    H6T13981   4.004   1.937   6.767  4.4545 -2.5062  3.1292
  130OSM    C7S13982   4.120   2.105   6.840 -0.3635 -0.0457  0.2552
  130OSM    H7S13983   4.187   2.183   6.797 -0.2600 -0.5967 -0.5960
  130OSM    H7T13984   4.180   2.038   6.906 -0.1131  1.9392  2.1560
  130OSM    C8S13985   4.016   2.166   6.931 -1.2689  0.2510 -0.1343
  130OSM    H8S13986   3.952   2.082   6.967  0.4783 -0.9601  0.2423
  130OSM    H8T13987   3.945   2.239   6.886 -0.7501  2.2154  2.0655
  130OSM    C9S13988   4.077   2.229   7.059 -0.1674 -0.2172  0.8144
  130OSM    H9S13989   4.173   2.279   7.033 -1.1670  0.7669 -1.2105
  130OSM    H9T13990   4.091   2.137   7.119  0.8689 -0.5807  0.0475
  130OSM   C10S13991   3.979   2.339   7.108  0.1938  0.2821  0.6705
  130OSM   H10S13992   3.876   2.296   7.110  0.3815 -0.5413 -2.5376
  130OSM   H10T13993   3.974   2.413   7.026  1.8097 -1.1058 -0.7374
  130OSM   C11S13994   4.019   2.400   7.239 -0.0401 -0.2121  0.4229
  130OSM   H11S13995   4.011   2.510   7.228  4.2083  0.4039  1.6912
  130OSM   H11T13996   4.123   2.379   7.270  0.1162  1.2072  0.9485
  130OSM   C12S13997   3.932   2.341   7.359 -0.0464  0.8059 -0.1007
  130OSM   H12S13998   3.926   2.232   7.339  1.4129  1.1234 -2.6856
  130OSM   H12T13999   3.828   2.379   7.359 -0.2915  0.1866 -1.1706
  130OSM   C13S14000   4.002   2.374   7.495 -0.5900 -0.0620  0.1304
  130OSM   H13S14001   4.104   2.328   7.493 -0.8545 -0.6592  0.0950
  130OSM   H13T14002   3.952   2.335   7.586 -0.8106  0.2825  0.1544
  130OSM   C14S14003   4.016   2.525   7.515  0.6675 -0.2826 -0.1626
  130OSM   H14S14004   3.917   2.574   7.503  0.8445  0.0267 -0.3916
  130OSM   H14T14005   4.088   2.558   7.437 -0.0868 -0.0858 -0.7848
  130OSM   C15S14006   4.069   2.566   7.653  0.2198 -0.1407 -0.3692
  130OSM   H15S14007   4.136   2.484   7.685  0.9815  0.2316 -0.9803
  130OSM   H15T14008   3.994   2.581   7.734  1.7778  0.9273  0.9402
  130OSM   C16S14009   4.142   2.701   7.650 -0.0726  0.0022  1.0575
  130OSM   H16S14010   4.070   2.767   7.598 -0.1036 -1.7845 -1.3617
  130OSM   H16T14011   4.228   2.676   7.583 -0.9714 -1.8317  0.5264
  130OSM   C17S14012   4.188   2.743   7.796  0.5673  0.6502  0.3230
  130OSM   H17S14013   4.239   2.656   7.842 -0.8579 -0.4867 -0.1505
  130OSM   H17T14014   4.090   2.755   7.845  0.8839  2.0950  0.6346
  130OSM   C18S14015   4.269   2.873   7.790 -0.0378  0.7961 -0.2141
  130OSM   H18S14016   4.324   2.894   7.884  1.0178  2.1579 -1.1022
  130OSM   H18T14017   4.196   2.947   7.751 -2.8782 -1.5380  0.3130
  130OSM   H18U14018   4.351   2.866   7.716 -0.5041  2.2921 -0.9132
  130OSM    C1F14019   3.650   2.324   6.745 -0.2516  1.3598  0.0825
  130OSM     OF14020   3.563   2.245   6.711 -0.0996 -0.2699  0.5465
  130OSM    C2F14021   3.643   2.399   6.873  0.4460  0.1216 -0.8129
  130OSM    H2F14022   3.564   2.476   6.863 -0.3775 -0.8276 -1.9088
  130OSM    H2G14023   3.739   2.443   6.905  0.6523 -0.5354 -0.5103
  130OSM    C3F14024   3.593   2.309   6.991  0.4247 -0.1161 -0.5214
  130OSM    H3F14025   3.660   2.222   7.007 -0.9083 -1.1147 -0.2403
  130OSM    H3G14026   3.492   2.274   6.960  0.0765  0.1568  0.2917
  130OSM    C4F14027   3.570   2.384   7.129 -0.4181 -0.7922 -0.0035
  130OSM    H4F14028   3.499   2.470   7.126 -0.0865 -0.4743  0.9097
  130OSM    H4G14029   3.658   2.438   7.169 -2.6033  2.4698  0.8456
  130OSM    C5F14030   3.500   2.287   7.224 -0.2508 -1.0217  0.0684
  130OSM    H5F14031   3.553   2.190   7.229 -0.2830 -1.0963 -0.9199
  130OSM    H5G14032   3.398   2.269   7.184 -1.6134  0.1424  2.7281
  130OSM    C6F14033   3.506   2.344   7.370  0.0517 -0.2276  0.9043
  130OSM    H6F14034   3.458   2.443   7.359 -0.4125 -0.6300 -1.1393
  130OSM    H6G14035   3.614   2.344   7.396  0.6655  0.6667 -1.3942
  130OSM    C7F14036   3.433   2.262   7.474 -0.3527 -0.0830  0.5241
  130OSM    H7F14037   3.490   2.168   7.492  0.9458  0.8616  1.5257
  130OSM    H7G14038   3.335   2.241   7.425  0.1195  0.8214 -0.8820
  130OSM    C8F14039   3.423   2.325   7.608 -0.0647  0.2755 -0.2229
  130OSM    H8F14040   3.350   2.268   7.669 -1.5418  0.3247 -1.8693
  130OSM    H8G14041   3.367   2.421   7.604  0.7246  0.9386  2.5564
  130OSM    C9F14042   3.554   2.358   7.669  0.2589 -0.3049  0.1673
  130OSM    H9F14043   3.587   2.461   7.648 -2.0894  0.1863 -1.5025
  130OSM   C10F14044   3.647   2.285   7.731 -0.4128 -0.1071  0.6699
  130OSM   H10F14045   3.742   2.339   7.747 -0.0400 -0.0701 -1.3694
  130OSM   C11F14046   3.637   2.141   7.760 -0.4478 -0.5729  0.1197
  130OSM   H11F14047   3.543   2.099   7.719 -0.9227  0.4573  0.1271
  130OSM   H11G14048   3.627   2.133   7.871 -4.1912  0.5750 -0.0012
  130OSM   C12F14049   3.761   2.070   7.701  0.4996  0.4180 -0.7327
  130OSM   H12F14050   3.782   1.989   7.773 -1.2631  1.4934  1.0866
  130OSM   H12G14051   3.850   2.137   7.704  0.4564  0.4552 -0.0750
  130OSM   C13F14052   3.743   2.041   7.552 -0.0957  0.4683  1.0006
  130OSM   H13F14053   3.729   2.140   7.503  2.8607  1.2727  1.6231
  130OSM   H13G14054   3.649   1.986   7.531 -0.3443  0.6976  1.4988
  130OSM   C14F14055   3.864   1.969   7.490  0.1721  0.4980  0.1371
  130OSM   H14F14056   3.867   1.882   7.559  0.2955 -0.1028 -0.6194
  130OSM   H14G14057   3.952   2.031   7.520 -0.0808  0.3041  1.3346
  130OSM   C15F14058   3.855   1.937   7.338 -0.7130 -0.3830  0.4993
  130OSM   H15F14059   3.838   2.027   7.275  1.8499 -0.3887 -0.3184
  130OSM   H15G14060   3.775   1.863   7.322 -1.3330  0.3742  0.0383
  130OSM   C16F14061   3.977   1.861   7.270  0.8132  0.1886  0.5376
  130OSM   H16F14062   3.999   1.768   7.326 -0.8463 -0.4858  0.1015
  130OSM   H16G14063   4.065   1.930   7.272  0.4925  0.5851  1.4935
  130OSM   C17F14064   3.928   1.828   7.123  0.2220 -0.3519  0.2057
  130OSM   H17F14065   3.876   1.921   7.092 -2.2222 -1.6123  0.2473
  130OSM   H17G14066   3.851   1.751   7.146  2.0696 -1.9305  1.4209
  130OSM   C18F14067   4.016   1.785   7.012 -0.2142 -0.7125  0.5926
  130OSM   H18F14068   4.077   1.694   7.032 -0.5001 -1.5835 -2.1069
  130OSM   H18G14069   4.094   1.861   6.992 -0.5780 -0.7146 -0.9847
  130OSM   H18H14070   3.956   1.748   6.926  0.1169 -3.2498  1.3529
  131OSM      N14071   1.330   4.475   5.619 -0.0337  0.2758 -0.0594
  131OSM    C1514072   1.414   4.444   5.744  0.8071 -0.3507  0.9266
  131OSM   H15A14073   1.374   4.353   5.787 -0.0785 -0.1094  0.6405
  131OSM   H15B14074   1.393   4.523   5.814  2.2575  1.5319 -0.6468
  131OSM   H15C14075   1.519   4.442   5.719  0.2133 -1.6378 -1.8894
  131OSM    C1414076   1.379   4.389   5.506 -0.5584  0.2024  0.1323
  131OSM   H14A14077   1.369   4.285   5.533  0.5416  0.4032  1.3704
  131OSM   H14B14078   1.483   4.404   5.483 -1.2254 -0.3352 -4.1196
  131OSM   H14C14079   1.337   4.418   5.410  1.1337  1.9638 -0.1345
  131OSM    C1314080   1.185   4.446   5.652  0.1632  0.3313 -0.1730
  131OSM   H13A14081   1.183   4.341   5.678  1.0754 -0.0095 -1.3746
  131OSM   H13B14082   1.117   4.474   5.573 -1.4088 -1.1761  0.5837
  131OSM   H13C14083   1.147   4.490   5.743 -0.7012 -0.3485 -0.1911
  131OSM    C1214084   1.329   4.620   5.583 -0.1630  0.1903 -0.0014
  131OSM   H12A14085   1.284   4.628   5.485  2.1990 -0.3804 -1.2095
  131OSM   H12B14086   1.432   4.653   5.576  0.4667 -1.6938 -0.1366
  131OSM    C1114087   1.248   4.724   5.671 -0.1295 -0.1918 -0.1312
  131OSM   H11A14088   1.138   4.709   5.660  0.0121 -1.1363 -0.2831
  131OSM   H11B14089   1.265   4.828   5.636 -1.4877  0.0284 -0.2121
  131OSM      P14090   1.205   4.719   5.928 -0.4368  0.5354  0.0619
  131OSM    O1314091   1.067   4.768   5.901 -0.1725 -0.3692  0.3615
  131OSM    O1414092   1.216   4.581   5.985 -0.0002  0.2767  0.4009
  131OSM    O1114093   1.274   4.823   6.033  0.3293 -0.3895  0.4060
  131OSM    O1214094   1.291   4.727   5.806 -0.3950  0.2608  0.0051
  131OSM    C1S14095   1.213   4.849   6.158 -0.1192  0.0459 -0.2734
  131OSM    H1S14096   1.103   4.851   6.144 -0.2400 -0.3025  0.5183
  131OSM    H1T14097   1.235   4.955   6.184  1.8561 -0.4502  0.3202
  131OSM     NF14098   1.199   4.800   6.401  0.7312  0.2215 -0.2165
  131OSM    HNF14099   1.244   4.857   6.469 -2.4386  2.5075  0.1776
  131OSM    C2S14100   1.269   4.768   6.275 -0.1796  0.5891 -0.5915
  131OSM    H2S14101   1.260   4.661   6.248  2.7111  0.2454 -0.5064
  131OSM    C3S14102   1.428   4.798   6.280  0.3375 -0.2719 -0.1580
  131OSM    H3S14103   1.434   4.908   6.292  0.3715 -0.2063 -0.7332
  131OSM     O314104   1.495   4.774   6.160  0.4705  0.1239  0.0132
  131OSM    HO314105   1.425   4.787   6.096  0.3033 -0.2172  0.1248
  131OSM    C4S14106   1.501   4.724   6.387 -0.1699  0.2604  0.3481
  131OSM    H4S14107   1.459   4.624   6.399 -0.0256 -0.1668 -2.3109
  131OSM    C5S14108   1.598   4.772   6.469 -1.0570 -0.3758 -0.5418
  131OSM    H5S14109   1.634   4.872   6.443  0.3917 -1.0529 -1.2949
  131OSM    C6S14110   1.679   4.696   6.576 -0.2516  0.2863  0.2967
  131OSM    H6S14111   1.780   4.743   6.569  2.0573 -4.4658 -2.7080
  131OSM    H6T14112   1.703   4.589   6.563 -0.9365  0.2478 -0.7111
  131OSM    C7S14113   1.622   4.725   6.712 -0.9220  0.2205 -0.0259
  131OSM    H7S14114   1.513   4.702   6.715 -0.1552 -4.1695  2.2575
  131OSM    H7T14115   1.641   4.835   6.714  1.9921 -0.1993 -0.2833
  131OSM    C8S14116   1.693   4.656   6.823  0.1137 -0.7716 -0.8396
  131OSM    H8S14117   1.802   4.674   6.819 -0.1739  1.5905  0.2237
  131OSM    H8T14118   1.673   4.547   6.816 -0.3465 -0.9213  1.7075
  131OSM    C9S14119   1.643   4.706   6.961 -0.2101 -0.6524 -0.6351
  131OSM    H9S14120   1.534   4.685   6.971 -0.3481  0.7927  1.4525
  131OSM    H9T14121   1.655   4.816   6.973  1.5624 -0.6679 -1.9612
  131OSM   C10S14122   1.709   4.618   7.068 -0.1598 -0.2588 -0.4096
  131OSM   H10S14123   1.813   4.602   7.034 -0.6217 -0.7883 -1.6342
  131OSM   H10T14124   1.670   4.514   7.071 -1.9884  0.3943  0.2470
  131OSM   C11S14125   1.725   4.676   7.216  0.1951  0.2180 -0.0638
  131OSM   H11S14126   1.625   4.663   7.263  0.2305 -4.5875 -0.8158
  131OSM   H11T14127   1.753   4.783   7.205  1.6178 -0.1815 -0.5582
  131OSM   C12S14128   1.828   4.604   7.310  0.3089  0.1383 -0.3142
  131OSM   H12S14129   1.926   4.612   7.259  0.7642 -0.0815  0.5079
  131OSM   H12T14130   1.807   4.495   7.306  0.3593  0.1198 -0.0958
  131OSM   C13S14131   1.835   4.646   7.458 -0.5106 -0.2385  0.0460
  131OSM   H13S14132   1.844   4.756   7.471 -2.8386  0.1817 -1.3076
  131OSM   H13T14133   1.921   4.593   7.503 -0.3120  2.2984  2.9209
  131OSM   C14S14134   1.712   4.605   7.549  0.2847 -0.0421  0.5093
  131OSM   H14S14135   1.698   4.495   7.543  0.6179 -0.1303  1.2910
  131OSM   H14T14136   1.618   4.645   7.504 -2.0092 -2.5562  2.7088
  131OSM   C15S14137   1.730   4.641   7.698 -0.0483 -0.1232  0.5500
  131OSM   H15S14138   1.743   4.751   7.690  0.4877 -0.3443 -2.5836
  131OSM   H15T14139   1.824   4.597   7.738  0.2920 -2.3406 -2.3882
  131OSM   C16S14140   1.603   4.607   7.767  0.0656  0.7048 -0.8976
  131OSM   H16S14141   1.602   4.496   7.779  4.3944  0.6345  0.6700
  131OSM   H16T14142   1.517   4.651   7.713 -1.7181 -1.3576  0.1149
  131OSM   C17S14143   1.603   4.653   7.921  0.0646 -0.5402 -0.2067
  131OSM   H17S14144   1.612   4.763   7.906  1.0885 -0.7951 -1.7315
  131OSM   H17T14145   1.692   4.608   7.969 -0.1277 -0.6862  0.0191
  131OSM   C18S14146   1.476   4.625   8.007  0.4764  0.7599  0.1946
  131OSM   H18S14147   1.495   4.669   8.107  1.3684 -0.6356  0.6823
  131OSM   H18T14148   1.475   4.517   8.036  1.0170  0.6181 -0.3077
  131OSM   H18U14149   1.384   4.672   7.967 -0.0326  0.4149  0.9413
  131OSM    C1F14150   1.073   4.763   6.414  0.3547 -0.2170 -1.0205
  131OSM     OF14151   1.022   4.684   6.338 -0.2508 -0.2302 -0.7242
  131OSM    C2F14152   0.990   4.812   6.522  0.2738  0.2203  0.1182
  131OSM    H2F14153   0.890   4.845   6.489 -0.4686  0.0899  2.1017
  131OSM    H2G14154   1.041   4.905   6.556 -1.5723  0.3802  2.7205
  131OSM    C3F14155   0.987   4.727   6.650  1.0310 -0.0083 -0.4114
  131OSM    H3F14156   0.941   4.628   6.630  0.2832  0.5196 -1.3937
  131OSM    H3G14157   0.912   4.785   6.708 -1.6520 -2.2131 -1.4702
  131OSM    C4F14158   1.128   4.710   6.718 -0.4739 -0.5016 -0.1099
  131OSM    H4F14159   1.152   4.813   6.753 -1.4177 -0.8254  1.5623
  131OSM    H4G14160   1.209   4.671   6.653  0.5037 -0.2759  0.9315
  131OSM    C5F14161   1.113   4.621   6.837  0.4080  0.8561 -0.2715
  131OSM    H5F14162   1.083   4.518   6.808 -1.4808  0.5496  2.4144
  131OSM    H5G14163   1.026   4.657   6.896 -1.7421 -2.6168 -1.0115
  131OSM    C6F14164   1.232   4.596   6.927 -0.8000  0.6699 -0.7310
  131OSM    H6F14165   1.278   4.689   6.967 -0.1875  0.1585 -0.2136
  131OSM    H6G14166   1.308   4.545   6.864 -2.7185 -1.7766 -1.2026
  131OSM    C7F14167   1.197   4.505   7.053 -0.0003 -0.1604  0.0207
  131OSM    H7F14168   1.124   4.427   7.023  0.9906 -0.8117 -0.7404
  131OSM    H7G14169   1.150   4.566   7.133 -0.4870  0.8128 -0.9838
  131OSM    C8F14170   1.326   4.432   7.105  0.0543  0.4131  0.7619
  131OSM    H8F14171   1.406   4.495   7.149  0.9232 -0.7652  0.9188
  131OSM    H8G14172   1.389   4.392   7.022  0.2931  1.3021  0.5070
  131OSM    C9F14173   1.315   4.317   7.205  0.3829  0.2857  0.1962
  131OSM    H9F14174   1.330   4.223   7.150 -0.5625  1.2924 -1.9181
  131OSM   C10F14175   1.293   4.316   7.337 -0.0439  0.4107 -0.0210
  131OSM   H10F14176   1.288   4.220   7.390  3.5686 -0.5632 -1.1563
  131OSM   C11F14177   1.274   4.440   7.422 -0.7738  0.3094  0.4255
  131OSM   H11F14178   1.167   4.465   7.439 -1.4215 -1.4809 -0.7968
  131OSM   H11G14179   1.322   4.524   7.368  1.6890 -1.4023 -0.2305
  131OSM   C12F14180   1.358   4.421   7.558  0.0045  0.5082 -0.7122
  131OSM   H12F14181   1.377   4.520   7.605  0.7247  0.5142 -0.9989
  131OSM   H12G14182   1.459   4.379   7.538 -0.1319 -0.2496  0.1524
  131OSM   C13F14183   1.285   4.337   7.665 -0.2690  0.2707 -0.0402
  131OSM   H13F14184   1.261   4.237   7.620  0.4462 -1.5995  3.4178
  131OSM   H13G14185   1.192   4.385   7.701 -1.5676 -2.1150  0.0090
  131OSM   C14F14186   1.366   4.304   7.793 -0.0763 -0.4199 -0.6736
  131OSM   H14F14187   1.368   4.401   7.846  0.9945 -0.4350 -0.6677
  131OSM   H14G14188   1.468   4.266   7.773  1.3245  1.6146  1.9742
  131OSM   C15F14189   1.301   4.188   7.873 -0.1894  0.1845 -0.1327
  131OSM   H15F14190   1.286   4.099   7.808 -3.4822  1.5278 -1.4552
  131OSM   H15G14191   1.202   4.232   7.899  0.8038  1.6488  1.3652
  131OSM   C16F14192   1.379   4.142   7.999  0.4107  0.2448 -0.1203
  131OSM   H16F14193   1.404   4.217   8.077  1.8929 -0.0530 -0.2711
  131OSM   H16G14194   1.476   4.102   7.962  0.8038  0.2942  0.8293
  131OSM   C17F14195   1.301   4.035   8.085  0.2430 -0.2719  0.0551
  131OSM   H17F14196   1.263   3.958   8.014 -3.3845  0.3560  1.1043
  131OSM   H17G14197   1.215   4.086   8.134 -0.0912  0.8158 -1.5934
  131OSM   C18F14198   1.391   3.974   8.191  0.0954  0.6106 -0.0237
  131OSM   H18F14199   1.416   4.047   8.271  1.7941  0.8351 -0.7022
  131OSM   H18G14200   1.495   3.950   8.160  0.4245  1.0719  0.7041
  131OSM   H18H14201   1.344   3.880   8.226 -1.1345  0.6736 -1.3984
  132OSM      N14202   3.572   6.007   5.995 -0.6276  0.2686  0.4097
  132OSM    C1514203   3.479   5.986   5.877  0.6301  0.0498 -0.0707
  132OSM   H15A14204   3.470   5.883   5.846  2.4375 -0.1559 -0.0010
  132OSM   H15B14205   3.494   6.040   5.785 -0.0989 -0.6378 -0.6164
  132OSM   H15C14206   3.379   6.017   5.905  0.3563 -0.5880 -0.3168
  132OSM    C1414207   3.713   5.962   5.945  0.6025 -0.0714 -0.9013
  132OSM   H14A14208   3.761   6.023   5.870  0.5969 -0.9825 -1.6741
  132OSM   H14B14209   3.712   5.865   5.898  1.1798 -0.1617 -0.7360
  132OSM   H14C14210   3.788   5.967   6.023  0.4487 -0.4787 -0.7238
  132OSM    C1314211   3.591   6.149   6.018  0.0672 -0.0110  0.3262
  132OSM   H13A14212   3.498   6.198   6.045 -1.5207 -1.4934 -2.0593
  132OSM   H13B14213   3.631   6.197   5.930 -1.1993 -1.3483 -1.0282
  132OSM   H13C14214   3.663   6.178   6.093 -0.1935  2.5034 -0.3089
  132OSM    C1214215   3.531   5.932   6.121 -0.3214 -0.9608 -0.0744
  132OSM   H12A14216   3.540   5.827   6.096 -0.6205 -1.3590  1.4118
  132OSM   H12B14217   3.424   5.944   6.119 -0.4218 -1.0348 -4.0667
  132OSM    C1114218   3.589   5.968   6.264  0.3802 -0.1343  0.3067
  132OSM   H11A14219   3.535   5.908   6.341  0.9902  0.3001  1.0915
  132OSM   H11B14220   3.562   6.075   6.277 -1.8746 -0.7540  1.2310
  132OSM      P14221   3.844   6.018   6.313  0.3600  0.0553  0.1149
  132OSM    O1314222   3.963   5.933   6.315  0.1488  0.2076  0.1281
  132OSM    O1414223   3.840   6.136   6.220  0.0667 -0.5005 -0.2033
  132OSM    O1114224   3.809   6.060   6.461  0.4251  0.5587 -0.3981
  132OSM    O1214225   3.725   5.929   6.264 -0.2919 -0.6607 -0.2021
  132OSM    C1S14226   3.784   5.960   6.558  0.1484 -0.3045  0.7522
  132OSM    H1S14227   3.881   5.914   6.586  0.4955  0.0694  0.1675
  132OSM    H1T14228   3.716   5.880   6.520  0.5513  0.4786 -1.8269
  132OSM     NF14229   3.691   5.936   6.787  0.0051 -0.4432  0.2831
  132OSM    HNF14230   3.593   5.921   6.795 -0.1093  0.1294 -0.0049
  132OSM    C2S14231   3.729   6.032   6.689 -0.3525 -0.5959  0.0781
  132OSM    H2S14232   3.811   6.099   6.724 -1.4322  0.6678  0.2520
  132OSM    C3S14233   3.609   6.128   6.639  0.1020  0.3332 -0.8470
  132OSM    H3S14234   3.529   6.075   6.583 -0.2210  0.5187 -0.5654
  132OSM     O314235   3.640   6.228   6.540  0.0859  0.2904 -0.6016
  132OSM    HO314236   3.724   6.199   6.505  0.0512  0.0951 -0.5238
  132OSM    C4S14237   3.539   6.190   6.765 -0.1965 -0.4693  0.0513
  132OSM    H4S14238   3.453   6.135   6.806 -1.9170  2.3389  0.5097
  132OSM    C5S14239   3.557   6.320   6.810 -0.6982 -0.0713  0.4258
  132OSM    H5S14240   3.624   6.392   6.761 -0.3988 -0.3453  0.4297
  132OSM    C6S14241   3.473   6.375   6.923  0.1388  0.0504 -0.6034
  132OSM    H6S14242   3.365   6.347   6.922  0.0835  0.2600 -0.5646
  132OSM    H6T14243   3.487   6.484   6.907 -3.1610  0.4996 -1.1446
  132OSM    C7S14244   3.537   6.320   7.055 -0.1314  0.3295  0.4601
  132OSM    H7S14245   3.648   6.329   7.048  0.0887 -2.5726 -3.1355
  132OSM    H7T14246   3.509   6.213   7.066 -0.5253  0.3386 -0.3765
  132OSM    C8S14247   3.484   6.395   7.175 -0.2196 -0.7127  0.6886
  132OSM    H8S14248   3.373   6.401   7.176 -0.1862  0.7625  3.2620
  132OSM    H8T14249   3.527   6.497   7.173 -1.2676 -0.2516  0.8897
  132OSM    C9S14250   3.521   6.325   7.308  0.3285 -0.0482  0.0141
  132OSM    H9S14251   3.632   6.322   7.309  0.3237 -1.7962 -0.9399
  132OSM    H9T14252   3.482   6.221   7.306  2.4995 -0.9171 -1.5161
  132OSM   C10S14253   3.476   6.408   7.427 -0.7467  0.1320  0.3124
  132OSM   H10S14254   3.367   6.391   7.439 -0.6590 -0.1713  0.7095
  132OSM   H10T14255   3.492   6.515   7.401  1.0270 -0.5384 -1.5984
  132OSM   C11S14256   3.560   6.384   7.557  0.0514 -0.0687 -0.6389
  132OSM   H11S14257   3.661   6.427   7.538  0.4976 -0.5945  0.4360
  132OSM   H11T14258   3.582   6.279   7.586  1.1560  0.1553 -0.6296
  132OSM   C12S14259   3.503   6.454   7.691 -0.1072 -0.3958 -0.5534
  132OSM   H12S14260   3.394   6.430   7.689  0.3610 -2.7599 -1.4810
  132OSM   H12T14261   3.518   6.563   7.683 -0.3859 -0.3251 -0.1494
  132OSM   C13S14262   3.553   6.388   7.821  0.2255 -0.0035  0.6967
  132OSM   H13S14263   3.661   6.413   7.831  0.0674  1.6125 -1.1290
  132OSM   H13T14264   3.558   6.279   7.801  1.8972  0.2154 -0.3024
  132OSM   C14S14265   3.475   6.417   7.941  0.1157 -0.3325 -0.3581
  132OSM   H14S14266   3.377   6.367   7.927  0.2659 -0.2454 -1.8494
  132OSM   H14T14267   3.460   6.527   7.947  0.4208 -0.2457 -1.0906
  132OSM   C15S14268   3.541   6.364   8.070 -0.0144  0.3481 -0.7951
  132OSM   H15S14269   3.638   6.416   8.083  0.1766 -0.0043 -0.7797
  132OSM   H15T14270   3.576   6.259   8.060  1.3685  0.7339 -0.2617
  132OSM   C16S14271   3.466   6.374   8.199 -0.0235 -0.3194 -0.5338
  132OSM   H16S14272   3.388   6.295   8.206 -0.7732  0.5485  1.9565
  132OSM   H16T14273   3.415   6.472   8.201  0.4621 -0.0508  2.3608
  132OSM   C17S14274   3.551   6.376   8.327  0.3748  0.0906 -0.0516
  132OSM   H17S14275   3.491   6.376   8.420  0.1449 -1.9279 -0.1468
  132OSM   H17T14276   3.618   6.464   8.315  0.5812 -0.2842 -1.9307
  132OSM   C18S14277   3.644   6.252   8.332 -0.7740 -0.3421 -0.5323
  132OSM   H18S14278   3.583   6.161   8.314 -0.7394 -0.3062 -0.8349
  132OSM   H18T14279   3.687   6.240   8.434  0.3126 -1.5393 -1.0960
  132OSM   H18U14280   3.727   6.272   8.261  0.0619 -0.7996  0.2910
  132OSM    C1F14281   3.774   5.850   6.837  0.6750  0.1959 -0.1225
  132OSM     OF14282   3.892   5.863   6.825 -0.0252  0.5437 -0.5148
  132OSM    C2F14283   3.707   5.726   6.892  0.1179 -0.1545  0.2787
  132OSM    H2F14284   3.676   5.660   6.808 -1.7759 -1.5377  1.9872
  132OSM    H2G14285   3.617   5.754   6.950  0.8199  2.1428  0.3610
  132OSM    C3F14286   3.794   5.640   6.988 -0.7933 -0.1963 -0.3772
  132OSM    H3F14287   3.816   5.709   7.072 -0.2874  2.4056 -2.5151
  132OSM    H3G14288   3.894   5.614   6.947 -0.2747 -0.4280  0.9761
  132OSM    C4F14289   3.721   5.518   7.029 -0.4411 -0.0187 -0.6274
  132OSM    H4F14290   3.677   5.477   6.936 -1.0301 -0.4421 -0.1668
  132OSM    H4G14291   3.641   5.534   7.105 -0.6621  1.3172 -1.1087
  132OSM    C5F14292   3.819   5.415   7.097  0.0951 -0.1664  0.3959
  132OSM    H5F14293   3.907   5.410   7.029  0.0079  1.7452  0.0810
  132OSM    H5G14294   3.762   5.320   7.102  0.1718 -0.2954 -0.8330
  132OSM    C6F14295   3.877   5.456   7.229 -0.4702 -0.6786 -0.1351
  132OSM    H6F14296   3.859   5.563   7.251  2.3877  0.0129 -0.7671
  132OSM    H6G14297   3.986   5.432   7.235 -0.3855 -0.1026  1.0289
  132OSM    C7F14298   3.812   5.373   7.346 -0.4919  0.0800  0.0440
  132OSM    H7F14299   3.823   5.269   7.307  1.3747  1.5949 -4.1166
  132OSM    H7G14300   3.705   5.402   7.341 -0.0097  1.7989 -1.3747
  132OSM    C8F14301   3.874   5.394   7.482 -0.4303 -0.0203 -0.4550
  132OSM    H8F14302   3.800   5.370   7.561  0.0494  0.5067  0.1683
  132OSM    H8G14303   3.875   5.504   7.502  1.8478  0.0343 -0.6346
  132OSM    C9F14304   4.012   5.341   7.520 -0.1714  0.0431 -0.1457
  132OSM    H9F14305   4.094   5.414   7.515  1.8035 -1.8557  2.0569
  132OSM   C10F14306   4.028   5.217   7.572  0.5745  0.2928 -0.0481
  132OSM   H10F14307   4.125   5.178   7.605 -1.0000 -0.1026  5.1244
  132OSM   C11F14308   3.915   5.114   7.585  0.3112  0.1765  0.2339
  132OSM   H11F14309   3.938   5.030   7.515  1.3515 -0.2393  1.0401
  132OSM   H11G14310   3.814   5.156   7.565  0.5304  0.1118 -1.0545
  132OSM   C12F14311   3.885   5.067   7.729 -0.0092 -0.1816  0.0548
  132OSM   H12F14312   3.979   5.047   7.785  1.0351  0.7517 -1.2922
  132OSM   H12G14313   3.835   4.969   7.716  2.0348 -1.2617 -0.0350
  132OSM   C13F14314   3.796   5.174   7.800 -0.8876  0.1651 -0.5001
  132OSM   H13F14315   3.694   5.172   7.756 -0.2308  2.5643 -2.2912
  132OSM   H13G14316   3.847   5.271   7.786  2.6715 -1.3018  0.9678
  132OSM   C14F14317   3.780   5.152   7.950  0.1377  0.4750 -0.5906
  132OSM   H14F14318   3.872   5.151   8.012 -1.3941 -0.4897  1.7782
  132OSM   H14G14319   3.731   5.052   7.948  0.6478  0.2108  0.0598
  132OSM   C15F14320   3.688   5.258   8.010  0.4578 -0.2774  0.4084
  132OSM   H15F14321   3.585   5.247   7.970 -0.7140 -0.7952  3.3011
  132OSM   H15G14322   3.731   5.358   7.987 -1.2966  0.9729  2.1909
  132OSM   C16F14323   3.675   5.243   8.166  0.0109 -0.0712 -0.2889
  132OSM   H16F14324   3.625   5.336   8.198  0.9101  0.5636 -0.6826
  132OSM   H16G14325   3.775   5.237   8.214 -0.6855  1.2763  1.4017
  132OSM   C17F14326   3.589   5.128   8.207  0.0004  0.3536 -0.0695
  132OSM   H17F14327   3.626   5.032   8.167 -2.9020 -1.6389  1.5913
  132OSM   H17G14328   3.491   5.142   8.156 -0.9103 -0.8666  1.2418
  132OSM   C18F14329   3.574   5.119   8.360 -0.4043 -0.0219  0.4094
  132OSM   H18F14330   3.669   5.107   8.416 -2.4260 -1.9582  3.7755
  132OSM   H18G14331   3.521   5.024   8.381 -0.2422  0.0529  1.2096
  132OSM   H18H14332   3.528   5.207   8.411  1.3526  0.3082  1.5296
  133OSM      N14333   4.549   6.066   5.960 -0.1479  1.0188 -0.4433
  133OSM    C1514334   4.693   6.041   5.957 -0.2104  0.0251  0.1713
  133OSM   H15A14335   4.728   5.962   6.022 -0.7397 -1.4920 -1.3333
  133OSM   H15B14336   4.748   6.131   5.982  0.3252 -0.5526  1.1147
  133OSM   H15C14337   4.716   6.016   5.855 -0.8833  0.8242 -0.1867
  133OSM    C1414338   4.510   6.192   5.897 -0.7532  0.1902  0.4600
  133OSM   H14A14339   4.573   6.276   5.923  1.3535 -1.1053 -0.2047
  133OSM   H14B14340   4.415   6.232   5.927 -0.7296 -1.7722  3.6701
  133OSM   H14C14341   4.532   6.183   5.792 -1.0418 -1.3484  0.5031
  133OSM    C1314342   4.480   5.950   5.882 -0.7329  0.0005 -0.6090
  133OSM   H13A14343   4.490   5.850   5.923 -0.9863 -0.4178 -1.5442
  133OSM   H13B14344   4.516   5.942   5.781  0.1242 -1.5006 -0.2174
  133OSM   H13C14345   4.375   5.975   5.883 -0.6264  0.4554 -0.7662
  133OSM    C1214346   4.506   6.067   6.105  0.2112 -1.4166  0.7706
  133OSM   H12A14347   4.573   6.136   6.154  0.5410 -0.7608 -0.5750
  133OSM   H12B14348   4.528   5.969   6.145 -1.0430 -1.9189  0.2801
  133OSM    C1114349   4.354   6.097   6.137 -0.4649 -0.6913 -0.6574
  133OSM   H11A14350   4.329   6.046   6.233 -0.0119 -1.3058 -0.8618
  133OSM   H11B14351   4.293   6.041   6.063 -1.7435  2.3087 -2.0541
  133OSM      P14352   4.384   6.354   6.208 -0.4338  0.3565 -0.2190
  133OSM    O1314353   4.517   6.305   6.255 -0.1363 -0.8347  0.1005
  133OSM    O1414354   4.376   6.484   6.133 -0.6941 -0.2218  0.2094
  133OSM    O1114355   4.289   6.360   6.337 -0.4284 -0.3393  0.4183
  133OSM    O1214356   4.312   6.234   6.125 -0.4924  0.0887  0.3776
  133OSM    C1S14357   4.264   6.245   6.419  0.4440 -0.6154  0.4494
  133OSM    H1S14358   4.360   6.189   6.429  1.6626  1.0531 -1.2041
  133OSM    H1T14359   4.182   6.184   6.376 -1.1400  1.0979  0.9239
  133OSM     NF14360   4.239   6.197   6.660  0.2738  0.0007 -0.3579
  133OSM    HNF14361   4.170   6.127   6.674  1.9714 -1.4672  1.1183
  133OSM    C2S14362   4.209   6.292   6.556 -0.6399 -0.4647  0.2755
  133OSM    H2S14363   4.261   6.383   6.592 -0.2180 -0.5274 -0.1581
  133OSM    C3S14364   4.062   6.334   6.543  0.1207 -0.2008 -0.0909
  133OSM    H3S14365   4.004   6.244   6.513  1.0790 -0.4659 -1.2088
  133OSM     O314366   4.038   6.429   6.441  0.0893  0.0763  0.1321
  133OSM    HO314367   4.116   6.437   6.386 -1.0187  1.8038 -1.2974
  133OSM    C4S14368   4.018   6.384   6.671  0.2823 -0.8148 -1.0202
  133OSM    H4S14369   3.952   6.318   6.728 -1.9514 -0.1336 -2.6945
  133OSM    C5S14370   4.053   6.507   6.726 -0.4940  0.3773  0.3016
  133OSM    H5S14371   4.106   6.566   6.650  1.0575 -1.5278 -0.1951
  133OSM    C6S14372   4.020   6.568   6.857  0.3881  0.3434 -0.2336
  133OSM    H6S14373   4.045   6.676   6.864 -1.4261  0.7512  0.6384
  133OSM    H6T14374   4.068   6.521   6.946 -3.8801 -1.2890  1.4851
  133OSM    C7S14375   3.865   6.567   6.892  0.1910 -0.4346 -0.5893
  133OSM    H7S14376   3.830   6.463   6.911  0.5300 -0.4247  0.1112
  133OSM    H7T14377   3.822   6.606   6.797 -1.4392 -1.0775 -0.1582
  133OSM    C8S14378   3.823   6.649   7.017 -0.2383 -0.3250 -0.1002
  133OSM    H8S14379   3.717   6.683   7.024 -0.4664 -0.7820 -1.1210
  133OSM    H8T14380   3.881   6.743   7.005  0.4915 -0.7450  0.0914
  133OSM    C9S14381   3.852   6.583   7.150  0.4396  1.1703 -0.5628
  133OSM    H9S14382   3.951   6.534   7.158 -1.5748 -3.2555  0.5734
  133OSM    H9T14383   3.787   6.492   7.157  0.6970  0.9674 -0.7764
  133OSM   C10S14384   3.831   6.678   7.261 -0.6004  0.1852  0.3668
  133OSM   H10S14385   3.728   6.720   7.253 -1.7584 -2.5122 -0.0887
  133OSM   H10T14386   3.906   6.759   7.265  1.7584 -1.8775  0.8771
  133OSM   C11S14387   3.859   6.616   7.400  1.1705  0.1356  0.7658
  133OSM   H11S14388   3.957   6.565   7.409  1.5588  0.6789 -0.2448
  133OSM   H11T14389   3.780   6.537   7.405  0.8737  0.2036 -1.7863
  133OSM   C12S14390   3.843   6.709   7.520 -0.3600 -0.2264  0.3475
  133OSM   H12S14391   3.735   6.732   7.531 -0.3735  0.5019 -1.0791
  133OSM   H12T14392   3.894   6.807   7.511  0.3477 -0.5591  0.7126
  133OSM   C13S14393   3.888   6.639   7.657  0.0499  0.1959 -0.4508
  133OSM   H13S14394   3.985   6.589   7.638 -0.1400 -1.4305  2.2260
  133OSM   H13T14395   3.812   6.560   7.677  0.0069  0.7072  1.6252
  133OSM   C14S14396   3.901   6.729   7.775 -0.2498 -0.3106 -0.3856
  133OSM   H14S14397   3.827   6.811   7.772 -0.1283 -0.1979 -2.6623
  133OSM   H14T14398   4.003   6.772   7.770 -0.4914  0.3571  0.3857
  133OSM   C15S14399   3.893   6.644   7.904  0.1741 -0.4424 -0.2334
  133OSM   H15S14400   3.977   6.572   7.896  0.4689 -0.0569 -0.6573
  133OSM   H15T14401   3.791   6.600   7.910  0.1198 -0.1164  2.5837
  133OSM   C16S14402   3.907   6.723   8.043 -0.2213 -0.2932  0.3312
  133OSM   H16S14403   3.810   6.776   8.058 -0.5206 -0.3202 -1.2715
  133OSM   H16T14404   3.987   6.800   8.047 -1.1491  0.6521  1.3925
  133OSM   C17S14405   3.921   6.622   8.154  0.2264 -0.5614  0.1026
  133OSM   H17S14406   4.017   6.567   8.141  0.3093 -0.1704 -1.1146
  133OSM   H17T14407   3.833   6.554   8.147 -1.1394  1.1149  0.2965
  133OSM   C18S14408   3.935   6.672   8.296  0.1091  0.2413 -0.3503
  133OSM   H18S14409   3.930   6.783   8.297 -2.3812  0.2119  2.2507
  133OSM   H18T14410   4.032   6.631   8.331 -0.7396 -1.8300 -0.2849
  133OSM   H18U14411   3.867   6.632   8.374  1.5394 -1.5969  0.0397
  133OSM    C1F14412   4.365   6.173   6.699  0.0425  0.7166 -1.4998
  133OSM     OF14413   4.455   6.236   6.651 -0.0367  0.0381  0.4853
  133OSM    C2F14414   4.389   6.054   6.787 -0.3240  0.7324  0.1112
  133OSM    H2F14415   4.395   5.959   6.730 -0.1001  0.9753 -0.2759
  133OSM    H2G14416   4.303   6.058   6.857 -0.1364  0.8473  0.3375
  133OSM    C3F14417   4.531   6.062   6.860  0.3241 -0.2339  0.3710
  133OSM    H3F14418   4.538   6.148   6.931 -2.5852 -0.6946  1.3385
  133OSM    H3G14419   4.609   6.078   6.783  1.3392 -0.7044  1.2879
  133OSM    C4F14420   4.548   5.941   6.955  0.1626 -0.7347 -0.2898
  133OSM    H4F14421   4.547   5.849   6.891  0.5398 -0.0037 -1.3704
  133OSM    H4G14422   4.453   5.921   7.009  0.3319  0.9957  0.7025
  133OSM    C5F14423   4.677   5.941   7.045 -0.5844  0.1854 -0.0465
  133OSM    H5F14424   4.685   6.026   7.116 -0.0488 -1.6608  2.2160
  133OSM    H5G14425   4.748   5.955   6.961 -0.8739  0.8004 -0.1972
  133OSM    C6F14426   4.703   5.818   7.135 -0.2496  0.1296 -0.1493
  133OSM    H6F14427   4.811   5.824   7.161 -0.8824  1.3019  2.4898
  133OSM    H6G14428   4.673   5.736   7.066  0.1054 -0.3493  0.2635
  133OSM    C7F14429   4.610   5.813   7.255 -0.3745 -0.0679  0.5767
  133OSM    H7F14430   4.521   5.871   7.223 -0.5902 -0.6987  0.0000
  133OSM    H7G14431   4.646   5.875   7.340 -1.1807  1.8576 -0.4134
  133OSM    C8F14432   4.572   5.674   7.307  0.6468 -0.0830 -0.7745
  133OSM    H8F14433   4.559   5.594   7.231  2.2840 -0.7419 -0.3984
  133OSM    H8G14434   4.472   5.672   7.356  1.5079 -2.0913  1.0605
  133OSM    C9F14435   4.673   5.632   7.413  0.2005  0.0102 -0.5630
  133OSM    H9F14436   4.758   5.570   7.382 -0.1496 -0.8905  0.2008
  133OSM   C10F14437   4.675   5.678   7.542 -0.4534  0.8124  0.2822
  133OSM   H10F14438   4.752   5.638   7.610 -2.5461  1.4662  3.2065
  133OSM   C11F14439   4.571   5.770   7.608 -0.5177 -0.2713  0.7758
  133OSM   H11F14440   4.487   5.794   7.540 -1.3021 -1.7801  1.1695
  133OSM   H11G14441   4.625   5.847   7.668 -1.7615 -1.4459  3.5471
  133OSM   C12F14442   4.501   5.682   7.712  0.7440 -0.3933  0.0348
  133OSM   H12F14443   4.573   5.647   7.789  0.0431 -2.8393 -0.3604
  133OSM   H12G14444   4.462   5.593   7.660  1.7729 -1.2113  0.6282
  133OSM   C13F14445   4.386   5.751   7.786 -0.4084  0.3083  0.1964
  133OSM   H13F14446   4.298   5.779   7.723  0.2082 -1.0233 -1.3318
  133OSM   H13G14447   4.414   5.846   7.837 -3.1120  0.3133  1.8573
  133OSM   C14F14448   4.345   5.672   7.913 -0.1469 -0.0106  0.0621
  133OSM   H14F14449   4.274   5.730   7.975  1.3267  0.9296  0.9261
  133OSM   H14G14450   4.430   5.635   7.974 -0.0279  0.9124  0.4570
  133OSM   C15F14451   4.257   5.546   7.871 -0.9884  0.1632  1.0540
  133OSM   H15F14452   4.296   5.502   7.777 -1.7963  0.2825  0.6533
  133OSM   H15G14453   4.155   5.577   7.838 -0.3006  1.0137 -0.3696
  133OSM   C16F14454   4.256   5.429   7.968  0.0230 -0.1234  0.3928
  133OSM   H16F14455   4.243   5.464   8.072  0.1994 -0.2292  0.4510
  133OSM   H16G14456   4.352   5.372   7.970  0.0162 -0.4735 -2.9531
  133OSM   C17F14457   4.149   5.324   7.934 -0.0139 -0.0768 -0.1111
  133OSM   H17F14458   4.157   5.276   7.834 -1.4111  0.6551 -0.6040
  133OSM   H17G14459   4.050   5.375   7.942 -0.6485 -1.3783  0.8312
  133OSM   C18F14460   4.145   5.208   8.033 -0.7352 -0.4877 -0.1718
  133OSM   H18F14461   4.235   5.143   8.023  0.1208  0.7264 -0.6793
  133OSM   H18G14462   4.053   5.151   8.008 -1.4716  0.7185 -0.2943
  133OSM   H18H14463   4.146   5.243   8.138  1.4225  1.5626 -0.7814
  134OSM      N14464   3.596   3.010   6.428  0.0863 -0.5294  0.4551
  134OSM    C1514465   3.626   2.920   6.313  0.8032 -0.9887  0.1590
  134OSM   H15A14466   3.698   2.970   6.250 -0.9119  1.1310 -0.2360
  134OSM   H15B14467   3.532   2.897   6.266 -0.0278 -0.3445  1.4457
  134OSM   H15C14468   3.659   2.824   6.349 -0.2306 -1.1093  0.8357
  134OSM    C1414469   3.510   3.115   6.366  0.0201 -0.6608  0.1756
  134OSM   H14A14470   3.424   3.070   6.318  0.1209 -0.0143 -0.6365
  134OSM   H14B14471   3.561   3.174   6.291  0.2897 -1.2766 -0.1312
  134OSM   H14C14472   3.474   3.175   6.448 -2.0093 -1.1572 -0.3002
  134OSM    C1314473   3.507   2.928   6.514 -0.2941  0.2325  0.3605
  134OSM   H13A14474   3.481   2.980   6.604 -0.8120 -0.2892  0.5129
  134OSM   H13B14475   3.553   2.832   6.533 -0.6285 -0.3875 -1.6401
  134OSM   H13C14476   3.415   2.921   6.457  0.7733  1.3744 -1.6361
  134OSM    C1214477   3.721   3.065   6.501  0.0201 -0.2814 -0.6469
  134OSM   H12A14478   3.681   3.120   6.585  1.7669  1.3229 -0.8014
  134OSM   H12B14479   3.772   3.134   6.436  1.8204 -0.6696  0.2611
  134OSM    C1114480   3.819   2.966   6.569 -0.3639  0.0462  0.5627
  134OSM   H11A14481   3.763   2.891   6.627 -0.2729 -0.6910 -0.2699
  134OSM   H11B14482   3.889   3.014   6.641  0.5283 -1.3179  0.6447
  134OSM      P14483   3.999   2.947   6.373 -0.4518  0.1402 -0.0426
  134OSM    O1314484   4.000   2.853   6.257  0.2132  0.0741 -0.0660
  134OSM    O1414485   3.975   3.088   6.333 -0.1624 -0.0324  0.1681
  134OSM    O1114486   4.133   2.933   6.452 -0.0716  0.5914  0.3060
  134OSM    O1214487   3.889   2.893   6.471 -0.3780  0.7110 -0.2336
  134OSM    C1S14488   4.181   3.017   6.552 -0.2845 -0.0678 -0.5798
  134OSM    H1S14489   4.117   3.020   6.643  2.1498 -1.2987  1.2867
  134OSM    H1T14490   4.196   3.124   6.523 -2.1119  0.4115  0.1149
  134OSM     NF14491   4.348   3.057   6.724 -0.3985  0.1245 -0.0172
  134OSM    HNF14492   4.415   3.132   6.719 -0.0423 -0.2717 -1.8849
  134OSM    C2S14493   4.318   2.978   6.610  0.4095 -0.2704  0.6755
  134OSM    H2S14494   4.312   2.871   6.640  2.1462 -0.9224 -1.0841
  134OSM    C3S14495   4.423   2.978   6.502 -0.3513 -1.2735  0.5422
  134OSM    H3S14496   4.447   3.083   6.476  0.5686 -1.4120  0.8095
  134OSM     O314497   4.385   2.900   6.392 -0.6884  0.2175  0.1279
  134OSM    HO314498   4.290   2.912   6.390 -0.4885  1.8743 -0.6340
  134OSM    C4S14499   4.560   2.938   6.547  0.0132  0.7028  0.1637
  134OSM    H4S14500   4.625   3.014   6.594  1.0898 -0.3586  0.4526
  134OSM    C5S14501   4.626   2.819   6.544  0.9097 -0.3071  0.1124
  134OSM    H5S14502   4.566   2.739   6.497 -1.4011  1.7354 -0.5805
  134OSM    C6S14503   4.760   2.787   6.599 -0.4894 -0.0001 -0.2586
  134OSM    H6S14504   4.833   2.871   6.598  1.7303 -1.8195  0.8512
  134OSM    H6T14505   4.811   2.717   6.529 -0.2344  0.6170 -0.7025
  134OSM    C7S14506   4.759   2.720   6.743  0.3297 -0.3090 -0.1218
  134OSM    H7S14507   4.860   2.687   6.776  0.1213  0.9567  2.0088
  134OSM    H7T14508   4.696   2.629   6.740  2.0075 -1.4930 -1.2276
  134OSM    C8S14509   4.709   2.825   6.836  0.7853  0.2964 -0.7904
  134OSM    H8S14510   4.619   2.881   6.804  0.3528  0.1408  0.1197
  134OSM    H8T14511   4.784   2.907   6.844 -1.8910  2.7524  2.0502
  134OSM    C9S14512   4.677   2.779   6.987 -0.2928 -0.3081  0.0805
  134OSM    H9S14513   4.620   2.685   6.972  0.4938 -1.1777  2.1218
  134OSM    H9T14514   4.621   2.863   7.032 -1.1114 -0.2945 -0.9430
  134OSM   C10S14515   4.811   2.749   7.068  0.6088 -0.5628  0.2031
  134OSM   H10S14516   4.874   2.840   7.061 -0.6267  0.2912 -0.0875
  134OSM   H10T14517   4.871   2.669   7.020  1.1506 -0.5962  0.9183
  134OSM   C11S14518   4.781   2.740   7.216 -0.0041  0.1768 -0.9182
  134OSM   H11S14519   4.717   2.654   7.244 -0.1218  0.6783  0.4009
  134OSM   H11T14520   4.724   2.830   7.245 -0.9696 -0.6538 -0.1572
  134OSM   C12S14521   4.909   2.745   7.302  0.5684  1.1613  0.5823
  134OSM   H12S14522   4.968   2.831   7.265  1.7799  0.2085  0.2154
  134OSM   H12T14523   4.955   2.644   7.293  1.9318  1.8800 -1.1282
  134OSM   C13S14524   4.882   2.770   7.451  0.2570  0.3387 -0.2787
  134OSM   H13S14525   4.852   2.671   7.493 -1.2354  1.7174  2.1917
  134OSM   H13T14526   4.805   2.848   7.473 -0.3721  0.3158 -2.2274
  134OSM   C14S14527   5.009   2.823   7.519  0.3834 -0.2797 -0.2877
  134OSM   H14S14528   5.040   2.910   7.457 -1.7016  1.7101  1.2980
  134OSM   H14T14529   5.085   2.742   7.525 -2.6255 -3.1953  1.6661
  134OSM   C15S14530   4.986   2.876   7.656 -0.4585  1.0551  0.0268
  134OSM   H15S14531   4.879   2.908   7.658 -1.3675 -1.7001 -0.7517
  134OSM   H15T14532   5.037   2.972   7.681  0.4290  0.4982  0.3995
  134OSM   C16S14533   5.036   2.777   7.770  0.1900 -0.5906  0.0171
  134OSM   H16S14534   5.145   2.761   7.761 -0.1400 -2.8913 -0.5929
  134OSM   H16T14535   4.999   2.673   7.753  2.0504 -1.0060 -1.9250
  134OSM   C17S14536   5.003   2.824   7.911 -0.5056 -0.1129 -0.2584
  134OSM   H17S14537   4.896   2.845   7.929  0.0483  0.8384  2.4481
  134OSM   H17T14538   5.069   2.913   7.924  0.3125 -0.3983 -2.1738
  134OSM   C18S14539   5.044   2.719   8.013  0.1530  0.6067 -0.3909
  134OSM   H18S14540   5.148   2.684   7.999 -0.5741 -2.5285  1.1284
  134OSM   H18T14541   4.978   2.630   7.998  0.9100 -0.3050  1.3496
  134OSM   H18U14542   5.023   2.750   8.118  4.0946 -2.3694  1.5162
  134OSM    C1F14543   4.284   3.030   6.845  0.0140 -0.1368 -0.6904
  134OSM     OF14544   4.192   2.957   6.854  0.0397  0.2281  0.0950
  134OSM    C2F14545   4.320   3.116   6.951 -0.2501  0.3834 -0.1282
  134OSM    H2F14546   4.292   3.223   6.941  0.4338  0.6825  1.0062
  134OSM    H2G14547   4.427   3.104   6.976 -0.8668  0.2175  2.7642
  134OSM    C3F14548   4.239   3.089   7.087 -0.4129  0.5154 -0.1567
  134OSM    H3F14549   4.271   2.987   7.119  0.0844  0.5812 -0.4358
  134OSM    H3G14550   4.131   3.079   7.063 -0.4389 -1.0246  0.4870
  134OSM    C4F14551   4.266   3.184   7.201 -0.0120 -0.2514  0.9691
  134OSM    H4F14552   4.214   3.275   7.164 -0.5160 -1.1659 -0.6317
  134OSM    H4G14553   4.374   3.207   7.209 -0.1019  0.7331 -0.2910
  134OSM    C5F14554   4.203   3.148   7.338 -0.0866  0.4610 -0.0839
  134OSM    H5F14555   4.268   3.070   7.383 -0.2578 -0.6506 -1.6437
  134OSM    H5G14556   4.108   3.091   7.327  0.0809  0.0013  0.7660
  134OSM    C6F14557   4.175   3.262   7.427 -0.2152  0.0654 -0.3590
  134OSM    H6F14558   4.109   3.334   7.374  0.9997 -0.8131 -3.2494
  134OSM    H6G14559   4.269   3.321   7.426 -0.7942  1.0021 -0.8724
  134OSM    C7F14560   4.132   3.228   7.571 -0.0074 -0.0842  1.2157
  134OSM    H7F14561   4.212   3.170   7.622  0.6529  1.5906  2.1467
  134OSM    H7G14562   4.047   3.158   7.553  2.3552 -3.0093  0.4420
  134OSM    C8F14563   4.087   3.348   7.655  0.3121 -0.6384  0.0825
  134OSM    H8F14564   4.013   3.316   7.731  0.8974 -1.6915  0.2354
  134OSM    H8G14565   4.039   3.424   7.590  0.2993 -0.1755  0.6253
  134OSM    C9F14566   4.208   3.417   7.715  0.0802 -0.0334 -0.7883
  134OSM    H9F14567   4.288   3.443   7.644  0.2152 -0.4680 -0.7944
  134OSM   C10F14568   4.217   3.462   7.845  0.4544  0.1176  0.2971
  134OSM   H10F14569   4.303   3.520   7.881 -0.1786 -0.0230  2.1123
  134OSM   C11F14570   4.117   3.453   7.960 -0.1506 -0.8065  0.2872
  134OSM   H11F14571   4.046   3.368   7.954  2.6028 -3.4767  2.6123
  134OSM   H11G14572   4.065   3.552   7.965  0.3653 -0.3628 -1.8324
  134OSM   C12F14573   4.173   3.449   8.102 -0.8329 -0.0065  0.2707
  134OSM   H12F14574   4.099   3.453   8.185 -1.5153  0.0348 -0.3268
  134OSM   H12G14575   4.243   3.533   8.120 -0.6472 -0.0501 -0.2481
  134OSM   C13F14576   4.247   3.314   8.133 -0.2076  0.4229  0.0722
  134OSM   H13F14577   4.302   3.324   8.229  2.2849  0.2390 -1.2658
  134OSM   H13G14578   4.324   3.293   8.055 -0.0085 -0.7475  0.5533
  134OSM   C14F14579   4.144   3.194   8.144 -0.1329 -0.5201  0.6377
  134OSM   H14F14580   4.084   3.188   8.050 -2.1938  3.0561  1.5282
  134OSM   H14G14581   4.060   3.221   8.212 -1.1812 -1.7095 -0.1231
  134OSM   C15F14582   4.210   3.066   8.181 -0.0929  0.1447 -0.5672
  134OSM   H15F14583   4.277   3.080   8.268  1.4683  1.0378 -1.8604
  134OSM   H15G14584   4.278   3.044   8.096 -0.8957  1.0348 -1.4787
  134OSM   C16F14585   4.115   2.948   8.195  0.7947 -1.0228  0.5384
  134OSM   H16F14586   4.165   2.849   8.188  0.9210 -1.1712  2.8326
  134OSM   H16G14587   4.037   2.948   8.116  0.4865  3.2762  0.6235
  134OSM   C17F14588   4.051   2.937   8.332 -0.1327 -0.0782 -0.3716
  134OSM   H17F14589   4.010   3.037   8.360  1.4270  0.2363  0.9080
  134OSM   H17G14590   4.128   2.912   8.408 -3.6396  0.3518  3.6766
  134OSM   C18F14591   3.935   2.839   8.344  0.3780 -0.5275 -0.3306
  134OSM   H18F14592   3.968   2.735   8.325 -1.0507 -0.6292 -2.6255
  134OSM   H18G14593   3.851   2.862   8.275  0.8863 -0.4069 -0.9162
  134OSM   H18H14594   3.891   2.839   8.446  2.0773 -2.1584  0.4772
  135OSM      N14595   4.678   2.322   6.509 -0.6336 -0.3557 -0.1972
  135OSM    C1514596   4.785   2.344   6.607  0.2518  0.3379  0.2114
  135OSM   H15A14597   4.845   2.432   6.591  1.0495 -0.0225  1.0848
  135OSM   H15B14598   4.847   2.256   6.602 -0.5436 -0.1579 -2.2886
  135OSM   H15C14599   4.744   2.355   6.707 -0.1600  1.8031 -0.0877
  135OSM    C1414600   4.663   2.453   6.439  0.3775  1.0128  0.1398
  135OSM   H14A14601   4.581   2.438   6.371  1.6532 -0.3475 -1.1758
  135OSM   H14B14602   4.752   2.473   6.382  0.7288  2.4086  1.1171
  135OSM   H14C14603   4.640   2.534   6.507  0.3588  1.7105 -0.6935
  135OSM    C1314604   4.741   2.223   6.418  0.3216 -0.4312  0.0747
  135OSM   H13A14605   4.675   2.197   6.337 -0.1382 -1.1015  0.6618
  135OSM   H13B14606   4.772   2.138   6.477  0.7937 -0.8411 -0.7499
  135OSM   H13C14607   4.829   2.267   6.372 -0.2205  0.0891 -0.4811
  135OSM    C1214608   4.544   2.266   6.559  0.5266  0.2767 -0.4879
  135OSM   H12A14609   4.506   2.344   6.622  4.1046  3.5152 -1.9602
  135OSM   H12B14610   4.552   2.180   6.625  0.6599  0.8277  0.2214
  135OSM    C1114611   4.434   2.233   6.452  0.0498 -0.4320 -0.1040
  135OSM   H11A14612   4.341   2.204   6.506  0.5716 -0.4782  0.7885
  135OSM   H11B14613   4.472   2.143   6.398  1.2064 -0.3327  0.5210
  135OSM      P14614   4.300   2.449   6.383 -0.6060  0.0258  0.1242
  135OSM    O1314615   4.374   2.565   6.322 -0.4035  0.4639  0.3484
  135OSM    O1414616   4.170   2.418   6.316  0.3921  0.0065 -0.2258
  135OSM    O1114617   4.290   2.465   6.540 -0.3797  0.4707 -0.1781
  135OSM    O1214618   4.402   2.334   6.364  0.2666  0.2645  0.6447
  135OSM    C1S14619   4.207   2.575   6.591 -0.1929  0.0365  0.3233
  135OSM    H1S14620   4.103   2.565   6.553  0.5636 -0.6037 -1.7120
  135OSM    H1T14621   4.238   2.675   6.555 -0.9192 -0.8126 -2.9627
  135OSM     NF14622   4.098   2.668   6.798  0.5953 -0.2417  0.7282
  135OSM    HNF14623   4.129   2.751   6.843 -2.6795  0.6996  1.4800
  135OSM    C2S14624   4.196   2.574   6.750 -0.1086 -0.1732  0.8633
  135OSM    H2S14625   4.160   2.475   6.786 -0.4262 -1.1340 -1.8691
  135OSM    C3S14626   4.337   2.603   6.817  0.9258 -0.3684  1.3966
  135OSM    H3S14627   4.362   2.711   6.802 -2.4220  0.5450  1.6513
  135OSM     O314628   4.444   2.526   6.767 -0.2651  0.1432  0.3237
  135OSM    HO314629   4.425   2.524   6.673  1.3294  0.6393 -0.0499
  135OSM    C4S14630   4.332   2.575   6.963  0.7569 -0.4023 -0.2607
  135OSM    H4S14631   4.317   2.468   6.984 -3.0773 -0.0013 -0.2364
  135OSM    C5S14632   4.332   2.660   7.070  0.3947 -0.3980  0.1408
  135OSM    H5S14633   4.345   2.768   7.052  1.4219 -0.7163 -1.1577
  135OSM    C6S14634   4.332   2.610   7.210 -0.6069 -0.0637 -0.1620
  135OSM    H6S14635   4.362   2.503   7.211 -0.9764 -0.1781  1.3533
  135OSM    H6T14636   4.229   2.616   7.252 -0.6172  0.3494 -0.2464
  135OSM    C7S14637   4.415   2.700   7.310  0.7668  1.3379  0.1898
  135OSM    H7S14638   4.366   2.798   7.332  1.1984  1.9623 -1.5265
  135OSM    H7T14639   4.510   2.729   7.261  1.7466  0.0165  1.2259
  135OSM    C8S14640   4.454   2.622   7.432 -0.0041  0.4452  0.5189
  135OSM    H8S14641   4.514   2.537   7.393 -1.3539  1.1604 -3.6583
  135OSM    H8T14642   4.369   2.584   7.493  0.8998 -0.0470  1.4995
  135OSM    C9S14643   4.538   2.710   7.521 -0.6596  0.2358 -0.0177
  135OSM    H9S14644   4.491   2.801   7.565 -0.8529  0.2063 -0.1640
  135OSM    H9T14645   4.625   2.756   7.470 -0.4227  1.4796  1.4282
  135OSM   C10S14646   4.599   2.626   7.636 -0.1353 -0.1312 -0.2695
  135OSM   H10S14647   4.679   2.559   7.598 -0.3008 -1.4006  1.4935
  135OSM   H10T14648   4.514   2.564   7.670  1.2071 -0.8049  2.0842
  135OSM   C11S14649   4.657   2.716   7.751 -0.4028  0.1388  0.1773
  135OSM   H11S14650   4.581   2.796   7.762 -0.8970 -0.4790  1.4319
  135OSM   H11T14651   4.752   2.760   7.713 -0.7746  0.6249 -0.1994
  135OSM   C12S14652   4.688   2.640   7.882  0.0390  0.4123  0.5364
  135OSM   H12S14653   4.758   2.697   7.947  0.1812  1.7432 -0.7460
  135OSM   H12T14654   4.746   2.547   7.865 -0.4358  0.2905 -0.4746
  135OSM   C13S14655   4.562   2.580   7.954  0.5749  0.2359  0.2244
  135OSM   H13S14656   4.499   2.523   7.882  0.6829 -0.9185  1.0237
  135OSM   H13T14657   4.503   2.662   8.001 -0.0152 -0.0009 -0.1004
  135OSM   C14S14658   4.598   2.488   8.078  0.1144  0.3758 -0.0641
  135OSM   H14S14659   4.668   2.544   8.143  1.2168  0.1677 -1.0195
  135OSM   H14T14660   4.644   2.394   8.039  0.2208  0.8503 -1.1106
  135OSM   C15S14661   4.480   2.441   8.162 -0.4551 -0.1480 -0.2895
  135OSM   H15S14662   4.402   2.392   8.100 -2.2377 -0.5473  2.1293
  135OSM   H15T14663   4.444   2.538   8.201  1.6915  2.0409 -3.2600
  135OSM   C16S14664   4.524   2.354   8.279 -0.0501 -0.4236 -0.5411
  135OSM   H16S14665   4.603   2.289   8.236 -1.1682 -2.0577 -0.2627
  135OSM   H16T14666   4.446   2.281   8.310 -0.4584  0.0742 -0.3917
  135OSM   C17S14667   4.592   2.423   8.400 -0.0842  0.2343  0.9665
  135OSM   H17S14668   4.522   2.469   8.473 -0.0515 -0.6123  1.5425
  135OSM   H17T14669   4.671   2.494   8.367  1.4570 -1.5929  0.5409
  135OSM   C18S14670   4.672   2.313   8.475  0.5362 -0.5597 -0.0827
  135OSM   H18S14671   4.700   2.348   8.577  0.9108 -1.0510 -0.0150
  135OSM   H18T14672   4.766   2.279   8.427  0.7150  0.0407 -0.1702
  135OSM   H18U14673   4.619   2.216   8.477 -0.5672  0.0236  1.1519
  135OSM    C1F14674   3.968   2.656   6.802 -0.6678 -0.3025 -0.4338
  135OSM     OF14675   3.917   2.555   6.762  0.2066  0.2968 -0.4468
  135OSM    C2F14676   3.889   2.775   6.863 -0.1167  1.0697  0.1445
  135OSM    H2F14677   3.805   2.815   6.803 -1.7689 -2.4626 -0.1812
  135OSM    H2G14678   3.956   2.863   6.873 -0.4890  1.3270  0.4480
  135OSM    C3F14679   3.833   2.726   6.993  0.6979 -1.0011 -0.7556
  135OSM    H3F14680   3.899   2.670   7.063 -0.9940 -1.0366  0.8828
  135OSM    H3G14681   3.747   2.661   6.966 -0.9497  0.8140 -0.0856
  135OSM    C4F14682   3.783   2.852   7.071 -0.2810  0.5049  0.0982
  135OSM    H4F14683   3.734   2.935   7.014  0.6055  0.6232 -0.5139
  135OSM    H4G14684   3.870   2.897   7.122 -0.5829 -0.4364  1.4696
  135OSM    C5F14685   3.690   2.826   7.187  0.7954 -0.2945 -0.2543
  135OSM    H5F14686   3.592   2.799   7.143 -0.4908  2.3246  0.8140
  135OSM    H5G14687   3.655   2.922   7.230 -0.4042 -0.1061 -1.6027
  135OSM    C6F14688   3.729   2.729   7.298  0.0227  0.2613 -0.3894
  135OSM    H6F14689   3.822   2.758   7.351 -0.9635  0.8197  1.1014
  135OSM    H6G14690   3.752   2.629   7.254  2.5934 -0.5251  2.4186
  135OSM    C7F14691   3.622   2.711   7.403 -0.0981 -0.7758 -0.1178
  135OSM    H7F14692   3.658   2.630   7.470  1.1329  1.0558  1.5378
  135OSM    H7G14693   3.529   2.668   7.360 -1.5069  1.9756 -0.0516
  135OSM    C8F14694   3.590   2.829   7.494  0.1427 -0.1284  0.1245
  135OSM    H8F14695   3.516   2.810   7.575  2.4705 -0.0006  2.4037
  135OSM    H8G14696   3.561   2.913   7.428 -1.8063 -0.8341  0.0186
  135OSM    C9F14697   3.707   2.878   7.572 -0.2353  0.6537  0.4432
  135OSM    H9F14698   3.769   2.963   7.540  0.0648  0.7794  1.3355
  135OSM   C10F14699   3.755   2.822   7.687  0.5054  0.2979 -0.0289
  135OSM   H10F14700   3.846   2.860   7.737  0.9156 -1.3382  0.5261
  135OSM   C11F14701   3.706   2.691   7.750  0.3964 -0.3026 -0.1443
  135OSM   H11F14702   3.768   2.606   7.716 -2.2483 -1.5786 -2.1174
  135OSM   H11G14703   3.602   2.667   7.717 -0.3225 -0.0674  1.7774
  135OSM   C12F14704   3.698   2.715   7.907 -0.5902  0.4455 -0.9411
  135OSM   H12F14705   3.639   2.806   7.931  1.3880  1.3141  1.0590
  135OSM   H12G14706   3.804   2.739   7.931  0.2538 -1.6706 -2.2598
  135OSM   C13F14707   3.666   2.589   7.989  0.4742 -0.3566 -0.5857
  135OSM   H13F14708   3.740   2.509   7.967  1.1532  0.0269  0.2208
  135OSM   H13G14709   3.564   2.571   7.951  0.1249 -1.7402  0.9004
  135OSM   C14F14710   3.641   2.611   8.135  0.5745  0.2801 -0.2498
  135OSM   H14F14711   3.557   2.678   8.164 -0.2196 -0.7946  0.0069
  135OSM   H14G14712   3.731   2.660   8.177  1.9835 -0.5536 -2.1673
  135OSM   C15F14713   3.596   2.488   8.220 -0.7652  0.5630 -0.5487
  135OSM   H15F14714   3.581   2.516   8.326 -2.2102 -1.2540 -0.2160
  135OSM   H15G14715   3.686   2.422   8.222 -2.2301 -1.5086  0.5761
  135OSM   C16F14716   3.474   2.420   8.171  0.5280 -0.1914  0.8111
  135OSM   H16F14717   3.497   2.374   8.072  0.3488 -0.5614  0.9427
  135OSM   H16G14718   3.403   2.500   8.141 -0.6957 -1.7029 -0.4516
  135OSM   C17F14719   3.402   2.318   8.263  0.2845  0.9900 -0.3797
  135OSM   H17F14720   3.315   2.285   8.202 -1.9762  2.6545  1.7290
  135OSM   H17G14721   3.367   2.363   8.358 -2.0337 -1.5342  0.0795
  135OSM   C18F14722   3.489   2.195   8.299 -0.2509  0.4674  0.5926
  135OSM   H18F14723   3.432   2.113   8.347  3.2451 -1.4797  1.8315
  135OSM   H18G14724   3.573   2.215   8.369  1.0796 -2.0893 -0.1369
  135OSM   H18H14725   3.529   2.140   8.210 -1.0570  0.0191  0.4943
  136OSM      N14726   3.527   4.008   5.830  0.8806  0.1634  0.1306
  136OSM    C1514727   3.469   4.145   5.796  0.0551  0.0507  0.1375
  136OSM   H15A14728   3.481   4.163   5.690  1.4507 -2.0735 -0.1277
  136OSM   H15B14729   3.515   4.230   5.845  1.1829 -0.6101  0.2577
  136OSM   H15C14730   3.363   4.150   5.818 -0.1201 -3.1399  0.4080
  136OSM    C1414731   3.473   3.913   5.727 -0.5314  0.3132  0.0636
  136OSM   H14A14732   3.506   3.812   5.740  0.9198  0.4986 -1.6833
  136OSM   H14B14733   3.510   3.938   5.628 -0.3509  1.6079  0.4398
  136OSM   H14C14734   3.365   3.911   5.732 -0.5599  0.5259 -0.3850
  136OSM    C1314735   3.677   4.015   5.819 -0.3711 -0.1713 -0.4378
  136OSM   H13A14736   3.711   4.079   5.900 -0.8853  0.5021 -0.7475
  136OSM   H13B14737   3.702   4.054   5.722 -1.9062  0.4213 -0.6219
  136OSM   H13C14738   3.737   3.926   5.827  0.9511  0.8527  4.7166
  136OSM    C1214739   3.488   3.969   5.969  0.1867 -0.3202 -0.1151
  136OSM   H12A14740   3.380   3.973   5.976  0.2817 -0.2047  2.1772
  136OSM   H12B14741   3.536   4.044   6.030  0.0447  0.0387 -0.4428
  136OSM    C1114742   3.515   3.824   6.008  0.3234  0.4521 -0.5637
  136OSM   H11A14743   3.518   3.812   6.118  0.3206  0.1363 -0.5985
  136OSM   H11B14744   3.617   3.794   5.975  2.1496 -0.4111  4.8831
  136OSM      P14745   3.273   3.753   6.052  0.4958 -0.4743  0.3489
  136OSM    O1314746   3.227   3.895   6.037  0.0346 -0.1045  0.5737
  136OSM    O1414747   3.175   3.651   6.009  0.4400 -0.3011 -0.6796
  136OSM    O1114748   3.323   3.725   6.196 -0.3030 -0.7690  0.1883
  136OSM    O1214749   3.408   3.735   5.966 -0.3363  0.3486  0.3775
  136OSM    C1S14750   3.250   3.799   6.295 -0.2137  0.4333  0.2710
  136OSM    H1S14751   3.145   3.765   6.306 -0.2619  0.6973  0.6574
  136OSM    H1T14752   3.250   3.910   6.287 -0.4922  0.6388  2.3992
  136OSM     NF14753   3.272   3.901   6.539  0.6263  1.1190  0.4169
  136OSM    HNF14754   3.346   3.957   6.577  2.3814 -0.9290  0.1838
  136OSM    C2S14755   3.313   3.792   6.443 -0.4525 -0.1482 -0.2044
  136OSM    H2S14756   3.285   3.693   6.485  0.3677 -0.4829 -0.4313
  136OSM    C3S14757   3.474   3.778   6.446 -0.2721  0.1233  0.6673
  136OSM    H3S14758   3.520   3.871   6.407  0.2035 -0.0384  0.8378
  136OSM     O314759   3.511   3.667   6.363 -0.1008  0.0682 -0.0940
  136OSM    HO314760   3.432   3.652   6.311  0.1930  1.3481 -0.9521
  136OSM    C4S14761   3.530   3.760   6.588  0.0823  0.3114  0.6694
  136OSM    H4S14762   3.557   3.854   6.637  0.7891  2.2132 -2.9699
  136OSM    C5S14763   3.547   3.641   6.653 -0.0916  0.3330 -0.3829
  136OSM    H5S14764   3.516   3.548   6.604  0.4464  1.3595 -2.8257
  136OSM    C6S14765   3.581   3.614   6.795 -1.2048 -0.2208 -0.4710
  136OSM    H6S14766   3.687   3.582   6.792 -0.4313  1.8417  1.5961
  136OSM    H6T14767   3.518   3.533   6.837  0.0706 -0.4343  1.0954
  136OSM    C7S14768   3.565   3.736   6.891 -0.3901  0.0294  0.3164
  136OSM    H7S14769   3.465   3.780   6.872 -0.5895 -0.4371  0.2716
  136OSM    H7T14770   3.635   3.820   6.871 -2.0274  1.2135 -0.6969
  136OSM    C8S14771   3.570   3.678   7.032 -0.1817 -0.1707  0.0998
  136OSM    H8S14772   3.665   3.621   7.040 -0.5512 -0.7857  0.1668
  136OSM    H8T14773   3.491   3.603   7.052  0.6632 -1.0834  0.0405
  136OSM    C9S14774   3.548   3.786   7.141  0.1664 -0.0420  0.1561
  136OSM    H9S14775   3.443   3.821   7.131 -0.6461 -2.6537 -1.8350
  136OSM    H9T14776   3.624   3.867   7.142 -0.1137  0.2208  1.2227
  136OSM   C10S14777   3.558   3.730   7.288 -0.1222  0.5418  0.0149
  136OSM   H10S14778   3.663   3.706   7.314 -0.1396  1.1707  0.6738
  136OSM   H10T14779   3.499   3.639   7.313  1.5450 -0.2458  1.2955
  136OSM   C11S14780   3.525   3.841   7.393  0.1214 -0.2440 -0.2761
  136OSM   H11S14781   3.419   3.864   7.370 -0.4868 -0.5271  2.0636
  136OSM   H11T14782   3.596   3.927   7.394  1.5762 -1.3925  1.5702
  136OSM   C12S14783   3.511   3.777   7.534 -0.4809  0.3285 -0.4984
  136OSM   H12S14784   3.597   3.711   7.558 -0.5560  0.7770  1.0942
  136OSM   H12T14785   3.425   3.708   7.547  0.5185 -0.5227  2.3633
  136OSM   C13S14786   3.489   3.890   7.640 -0.1400 -0.2299 -0.5536
  136OSM   H13S14787   3.391   3.937   7.617  0.7020  2.3313  0.7593
  136OSM   H13T14788   3.571   3.964   7.636  0.0077 -0.2154  1.8093
  136OSM   C14S14789   3.486   3.846   7.787 -0.3764  0.7360  0.4488
  136OSM   H14S14790   3.391   3.789   7.793  1.4028 -2.3898  1.6302
  136OSM   H14T14791   3.496   3.932   7.856 -1.4488  1.7128 -0.5818
  136OSM   C15S14792   3.602   3.754   7.822 -0.5927 -0.1803  0.0078
  136OSM   H15S14793   3.692   3.813   7.795 -0.8661  1.2398  2.0165
  136OSM   H15T14794   3.604   3.662   7.760  1.0516 -1.2393  1.5437
  136OSM   C16S14795   3.622   3.722   7.971 -0.1143  0.0974 -0.1082
  136OSM   H16S14796   3.530   3.693   8.024  1.0053 -1.7018  0.9556
  136OSM   H16T14797   3.648   3.819   8.019  0.9842 -0.3710  0.2865
  136OSM   C17S14798   3.732   3.615   7.998  0.6207 -0.5262 -0.6168
  136OSM   H17S14799   3.815   3.644   7.930 -0.8041  0.6782 -1.9270
  136OSM   H17T14800   3.700   3.514   7.967  0.9772 -0.7842 -0.1641
  136OSM   C18S14801   3.764   3.610   8.143 -0.0248  0.5766 -1.0949
  136OSM   H18S14802   3.779   3.509   8.188  0.8257  1.5019  0.8044
  136OSM   H18T14803   3.697   3.669   8.209  1.3946 -1.4247  2.4162
  136OSM   H18U14804   3.862   3.663   8.151 -0.9732  2.2308  0.0841
  136OSM    C1F14805   3.145   3.921   6.575  0.8539  0.4357  0.0167
  136OSM     OF14806   3.045   3.857   6.542 -0.6110 -0.0224  0.0012
  136OSM    C2F14807   3.121   4.037   6.666  0.6358 -0.2300  0.3012
  136OSM    H2F14808   3.026   4.079   6.628  0.4061 -1.7536 -0.9231
  136OSM    H2G14809   3.200   4.115   6.650  0.6675 -0.5694 -1.3884
  136OSM    C3F14810   3.108   3.990   6.818 -0.8349 -0.6043  0.6946
  136OSM    H3F14811   3.213   3.974   6.849 -0.4286  2.0127  0.8529
  136OSM    H3G14812   3.047   3.897   6.821 -1.2555 -0.3745 -0.3613
  136OSM    C4F14813   3.030   4.090   6.903 -0.5389  0.2691 -0.1839
  136OSM    H4F14814   2.922   4.064   6.893 -0.2439 -0.4057 -1.8377
  136OSM    H4G14815   3.053   4.195   6.873 -1.5486  0.5913  0.1052
  136OSM    C5F14816   3.079   4.078   7.050 -0.4499  0.5296 -0.1663
  136OSM    H5F14817   3.189   4.087   7.036 -0.3237 -1.4883 -0.7685
  136OSM    H5G14818   3.046   3.980   7.092 -2.8391  1.4209  0.1879
  136OSM    C6F14819   3.013   4.175   7.144 -0.0654  0.1014 -1.1631
  136OSM    H6F14820   3.033   4.276   7.104  1.1381 -0.1722 -1.2985
  136OSM    H6G14821   3.061   4.163   7.244  0.5744 -2.3309 -1.6796
  136OSM    C7F14822   2.858   4.164   7.161  0.1318 -0.0754  0.1721
  136OSM    H7F14823   2.839   4.063   7.203  0.5457 -0.3311 -0.2445
  136OSM    H7G14824   2.807   4.162   7.062 -0.3589  0.2916  0.4103
  136OSM    C8F14825   2.812   4.288   7.247 -0.5210  0.1071  0.0386
  136OSM    H8F14826   2.859   4.380   7.207 -0.6491  0.0573 -0.2279
  136OSM    H8G14827   2.863   4.266   7.343 -0.3787  0.4946  0.0512
  136OSM    C9F14828   2.661   4.301   7.279  0.1429  0.0384  1.1048
  136OSM    H9F14829   2.599   4.292   7.189  1.9733  1.6922 -0.4150
  136OSM   C10F14830   2.613   4.329   7.402  0.1366  0.1461 -0.4442
  136OSM   H10F14831   2.506   4.326   7.427 -0.1285  1.8578 -1.2513
  136OSM   C11F14832   2.697   4.350   7.524  0.1174 -0.0143  0.3529
  136OSM   H11F14833   2.651   4.433   7.580  0.7191  1.5242 -1.3442
  136OSM   H11G14834   2.799   4.388   7.504  0.1403  0.8258  1.9155
  136OSM   C12F14835   2.698   4.230   7.618 -1.1649 -0.0828 -0.3156
  136OSM   H12F14836   2.697   4.129   7.573  0.0016 -0.7140  0.9720
  136OSM   H12G14837   2.593   4.232   7.654 -1.3505 -0.9176 -0.8151
  136OSM   C13F14838   2.789   4.231   7.744 -0.0292 -0.1937 -0.1251
  136OSM   H13F14839   2.781   4.332   7.789  0.9637 -1.0206  2.0169
  136OSM   H13G14840   2.895   4.209   7.719  0.1926 -0.7698  1.2091
  136OSM   C14F14841   2.754   4.127   7.852  0.2463  0.3819 -0.1551
  136OSM   H14F14842   2.789   4.028   7.816 -1.8407  0.0430 -1.3702
  136OSM   H14G14843   2.648   4.100   7.868  0.4351 -0.3443 -0.0960
  136OSM   C15F14844   2.807   4.153   7.996 -0.5022  0.0571  0.2045
  136OSM   H15F14845   2.746   4.111   8.079  0.0911  0.4535  0.8603
  136OSM   H15G14846   2.772   4.256   8.022 -3.0772 -0.2603 -1.6145
  136OSM   C16F14847   2.962   4.143   8.003 -0.0311  0.3437  0.0167
  136OSM   H16F14848   2.997   4.224   7.936 -0.2493  0.3293 -0.1149
  136OSM   H16G14849   2.983   4.040   7.967  1.7208  1.1010 -1.2697
  136OSM   C17F14850   3.022   4.157   8.144  0.0165 -0.5344  0.0484
  136OSM   H17F14851   2.998   4.073   8.212  0.3435  0.7530  1.8339
  136OSM   H17G14852   2.981   4.248   8.194  0.0215 -1.8372  2.5953
  136OSM   C18F14853   3.171   4.183   8.140  0.5640 -0.4224  0.3882
  136OSM   H18F14854   3.206   4.264   8.072 -3.4686  1.1441 -0.0923
  136OSM   H18G14855   3.211   4.096   8.084  1.0156  0.5341 -0.8413
  136OSM   H18H14856   3.219   4.177   8.240 -1.0788 -0.9129  1.1775
  137OSM      N14857   5.056   1.902   6.033 -0.5341  0.7950  0.7191
  137OSM    C1514858   5.199   1.888   5.989 -0.2794  0.3041  0.2584
  137OSM   H15A14859   5.243   1.979   5.952  2.5113  0.2770  3.0703
  137OSM   H15B14860   5.198   1.805   5.919  2.2899  0.8245 -0.5085
  137OSM   H15C14861   5.261   1.861   6.073  0.2603 -0.0891 -0.2569
  137OSM    C1414862   4.978   1.923   5.904 -0.3947  0.1600 -0.1220
  137OSM   H14A14863   5.046   1.972   5.836 -1.4993 -0.2216 -1.5693
  137OSM   H14B14864   4.890   1.985   5.910  0.0031  0.8475 -1.0636
  137OSM   H14C14865   4.959   1.835   5.844 -1.3224 -0.4939  1.0854
  137OSM    C1314866   5.014   1.784   6.102  0.1455  0.2282 -0.4883
  137OSM   H13A14867   4.909   1.780   6.128  0.9878  0.9005  3.5697
  137OSM   H13B14868   5.062   1.777   6.198 -2.1028  2.4890  0.9140
  137OSM   H13C14869   5.041   1.692   6.053  1.7944  1.0623 -1.1975
  137OSM    C1214870   5.043   2.014   6.129 -0.0451 -0.3563 -0.3646
  137OSM   H12A14871   4.940   2.046   6.137  0.5565  1.7473 -0.5165
  137OSM   H12B14872   5.094   2.102   6.093  0.7142  0.8262  3.2932
  137OSM    C1114873   5.097   2.002   6.278  0.4430 -0.3515  0.2193
  137OSM   H11A14874   5.046   1.915   6.326  2.1550 -0.7951  1.3300
  137OSM   H11B14875   5.077   2.097   6.331  1.4444 -0.4818  0.8548
  137OSM      P14876   5.291   1.973   6.430  0.1740  0.2154 -0.3560
  137OSM    O1314877   5.440   1.984   6.424  0.3154  0.4158  0.0570
  137OSM    O1414878   5.220   2.072   6.515 -0.0198 -0.2207 -0.3835
  137OSM    O1114879   5.253   1.828   6.487 -0.2028 -0.5211 -0.1892
  137OSM    O1214880   5.237   1.975   6.286  0.1371 -0.3255 -0.1046
  137OSM    C1S14881   5.294   1.788   6.617 -0.2419  0.0828 -0.4634
  137OSM    H1S14882   5.370   1.853   6.665 -0.1609 -0.0815 -0.3684
  137OSM    H1T14883   5.334   1.685   6.613 -0.4330 -0.0350  0.6150
  137OSM     NF14884   5.221   1.753   6.845 -0.3167 -0.0450  0.2865
  137OSM    HNF14885   5.178   1.674   6.888 -0.1041 -0.0968  0.4057
  137OSM    C2S14886   5.172   1.792   6.711 -0.6308 -0.8748 -0.6845
  137OSM    H2S14887   5.145   1.899   6.707  0.2720 -0.6340 -0.6385
  137OSM    C3S14888   5.058   1.705   6.654  0.3180 -0.3403 -0.0792
  137OSM    H3S14889   5.104   1.616   6.604  0.7563  0.3062 -0.8554
  137OSM     O314890   4.990   1.764   6.541 -0.0617 -0.2027  0.3936
  137OSM    HO314891   5.060   1.815   6.499 -1.9612  1.5533 -0.8544
  137OSM    C4S14892   4.957   1.673   6.766  0.1313  0.0471  1.2157
  137OSM    H4S14893   4.885   1.754   6.789  1.2133  0.6137  2.7731
  137OSM    C5S14894   4.942   1.553   6.821  1.0075  0.4134  0.3493
  137OSM    H5S14895   5.018   1.477   6.798 -0.9711 -2.0219  1.4911
  137OSM    C6S14896   4.852   1.525   6.936 -1.0723  0.3298 -0.1251
  137OSM    H6S14897   4.844   1.414   6.940  2.2037  0.0147  0.5035
  137OSM    H6T14898   4.756   1.561   6.894 -0.6501 -1.1651 -2.6358
  137OSM    C7S14899   4.883   1.592   7.068 -0.8026  0.8304  0.2329
  137OSM    H7S14900   4.900   1.702   7.065  2.1782  0.5869  2.9040
  137OSM    H7T14901   4.974   1.554   7.119 -0.9694 -0.8205 -0.6556
  137OSM    C8S14902   4.779   1.556   7.170 -0.0109  0.2211  0.0746
  137OSM    H8S14903   4.774   1.445   7.183  0.7927  0.0745 -0.8095
  137OSM    H8T14904   4.678   1.593   7.143 -0.8846 -2.1758 -0.2244
  137OSM    C9S14905   4.803   1.613   7.305 -0.0333  0.0465 -0.1160
  137OSM    H9S14906   4.806   1.723   7.290  0.9733 -0.1579 -1.7185
  137OSM    H9T14907   4.907   1.584   7.330 -0.0079  1.3065  1.4165
  137OSM   C10S14908   4.699   1.581   7.400  1.0168  0.3737  0.1005
  137OSM   H10S14909   4.686   1.470   7.404 -0.3224  0.5434  1.6954
  137OSM   H10T14910   4.601   1.621   7.366  1.3462  0.5750 -0.6264
  137OSM   C11S14911   4.733   1.626   7.548 -0.5865 -0.4328  0.1600
  137OSM   H11S14912   4.741   1.736   7.542 -1.8768 -0.4080 -2.1941
  137OSM   H11T14913   4.827   1.583   7.587  0.2088  3.2785  2.7707
  137OSM   C12S14914   4.620   1.604   7.651 -0.6800 -0.4639  0.6519
  137OSM   H12S14915   4.590   1.498   7.641 -0.7671 -0.5085  1.2902
  137OSM   H12T14916   4.527   1.656   7.622  0.0521 -0.5330 -2.0222
  137OSM   C13S14917   4.660   1.633   7.790 -0.3961  0.2503 -0.0221
  137OSM   H13S14918   4.767   1.611   7.804 -0.2431  0.3906 -0.8819
  137OSM   H13T14919   4.596   1.571   7.856 -0.3589  2.2142  1.9721
  137OSM   C14S14920   4.652   1.782   7.823 -0.7645  0.7016  0.0372
  137OSM   H14S14921   4.552   1.824   7.797 -0.9740  3.7213  4.4619
  137OSM   H14T14922   4.728   1.832   7.758 -0.2719  0.4453  0.4084
  137OSM   C15S14923   4.687   1.817   7.966 -0.2077 -0.0532 -0.2427
  137OSM   H15S14924   4.796   1.822   7.982  0.1732  3.2066 -2.7539
  137OSM   H15T14925   4.636   1.744   8.033  0.3733 -0.0503  0.2042
  137OSM   C16S14926   4.660   1.964   7.996  0.0071  0.4924  0.0991
  137OSM   H16S14927   4.553   1.982   7.973 -0.2821 -2.0148 -0.8644
  137OSM   H16T14928   4.718   2.027   7.925 -0.9779 -0.4145 -1.5767
  137OSM   C17S14929   4.688   2.002   8.142  0.6326 -0.6662 -0.3894
  137OSM   H17S14930   4.703   2.112   8.148 -3.3829  0.0124 -0.2135
  137OSM   H17T14931   4.790   1.962   8.160  0.3056 -1.8093 -0.9751
  137OSM   C18S14932   4.598   1.948   8.255 -0.4509 -0.5018  0.6451
  137OSM   H18S14933   4.591   1.837   8.257  1.0078 -0.6212  0.2630
  137OSM   H18T14934   4.502   2.001   8.266 -0.3489  0.4714 -2.2974
  137OSM   H18U14935   4.643   1.967   8.354  2.1706 -0.5318 -0.4455
  137OSM    C1F14936   5.277   1.838   6.928  0.6682  0.5274 -0.4154
  137OSM     OF14937   5.279   1.956   6.889  0.0696  0.0978 -0.2494
  137OSM    C2F14938   5.334   1.786   7.058 -0.2971 -0.5157 -0.0531
  137OSM    H2F14939   5.438   1.826   7.055 -0.1739 -0.8278 -0.0033
  137OSM    H2G14940   5.326   1.675   7.068 -0.9752 -0.4490  0.1994
  137OSM    C3F14941   5.267   1.849   7.184  0.0899 -0.2380  0.4311
  137OSM    H3F14942   5.265   1.959   7.168  0.7584 -0.2790 -0.0028
  137OSM    H3G14943   5.331   1.814   7.268  0.2745 -5.6076 -1.5436
  137OSM    C4F14944   5.125   1.816   7.198  1.3017 -0.3343 -0.3982
  137OSM    H4F14945   5.113   1.706   7.188 -0.3171 -0.1897 -0.3411
  137OSM    H4G14946   5.073   1.855   7.108  1.8496 -1.2805 -1.1521
  137OSM    C5F14947   5.066   1.870   7.332 -0.0443  0.4156  0.5719
  137OSM    H5F14948   4.956   1.871   7.318 -0.0397 -0.8233  0.3669
  137OSM    H5G14949   5.090   1.977   7.353 -3.7722  1.4109  0.5492
  137OSM    C6F14950   5.110   1.783   7.450 -0.0096 -0.0222 -0.4073
  137OSM    H6F14951   5.213   1.751   7.425 -0.7788 -0.3813 -3.4743
  137OSM    H6G14952   5.047   1.693   7.467  0.4658 -0.0369  1.4978
  137OSM    C7F14953   5.108   1.855   7.589 -0.6766  0.3453  0.0893
  137OSM    H7F14954   5.019   1.919   7.601 -0.6088 -0.0383  3.3415
  137OSM    H7G14955   5.200   1.914   7.605  0.1104 -0.9168  0.3161
  137OSM    C8F14956   5.099   1.752   7.708 -0.2445 -0.1125 -0.5290
  137OSM    H8F14957   5.036   1.669   7.669 -0.4296  0.0577 -0.5963
  137OSM    H8G14958   5.040   1.797   7.790  1.1893  1.4890 -0.3327
  137OSM    C9F14959   5.232   1.685   7.753  0.4334 -0.3724 -0.0215
  137OSM    H9F14960   5.300   1.655   7.672  2.4699 -0.5909  1.6716
  137OSM   C10F14961   5.261   1.652   7.878  0.0139  0.9182  0.3228
  137OSM   H10F14962   5.363   1.610   7.880 -1.3124 -2.8765 -1.1365
  137OSM   C11F14963   5.181   1.678   8.006 -0.3686 -0.7173 -0.0863
  137OSM   H11F14964   5.166   1.587   8.067 -0.7449  1.8073  4.0066
  137OSM   H11G14965   5.077   1.706   7.977  0.4014  0.1477 -2.2385
  137OSM   C12F14966   5.231   1.789   8.095 -0.1566  0.2831 -1.0769
  137OSM   H12F14967   5.263   1.874   8.032 -1.6104  0.2692 -1.8541
  137OSM   H12G14968   5.318   1.749   8.153 -1.8492 -1.3502  0.4652
  137OSM   C13F14969   5.131   1.837   8.204  0.5467 -1.0316 -1.0403
  137OSM   H13F14970   5.105   1.759   8.279  0.7693  0.8675  1.1229
  137OSM   H13G14971   5.043   1.862   8.141 -0.2102 -1.4413 -0.1686
  137OSM   C14F14972   5.181   1.966   8.278  0.7234 -0.0765  0.2209
  137OSM   H14F14973   5.161   2.059   8.222  2.1444  1.1208  1.6319
  137OSM   H14G14974   5.290   1.965   8.299  1.0435  1.5936 -1.1974
  137OSM   C15F14975   5.113   1.991   8.415  0.3010  0.1172  0.5873
  137OSM   H15F14976   5.131   1.908   8.486  2.8243  0.1707  0.0899
  137OSM   H15G14977   5.005   2.018   8.406 -0.4252 -1.4519  3.3183
  137OSM   C16F14978   5.166   2.120   8.481  0.9023  0.3217 -0.7827
  137OSM   H16F14979   5.136   2.210   8.422 -0.3583  0.1660 -0.4108
  137OSM   H16G14980   5.276   2.118   8.494  0.9088  0.1120 -0.8718
  137OSM   C17F14981   5.113   2.134   8.629 -0.0575 -0.1311 -0.0942
  137OSM   H17F14982   5.146   2.046   8.687  0.4699  0.5193  0.6134
  137OSM   H17G14983   5.003   2.128   8.621 -0.0510 -0.5099  0.0737
  137OSM   C18F14984   5.171   2.253   8.698  0.0223  0.0956  0.4816
  137OSM   H18F14985   5.165   2.340   8.631  0.2090  1.6374  2.3734
  137OSM   H18G14986   5.275   2.242   8.736 -0.0680  0.8692  0.9716
  137OSM   H18H14987   5.111   2.280   8.788 -0.5339 -2.5582  1.0052
  138OSM      N14988   0.124   3.505   5.829  0.3702  0.2678  0.4343
  138OSM    C1514989   0.198   3.385   5.876 -0.4510 -0.2351  0.4749
  138OSM   H15A14990   0.135   3.299   5.863  0.4145 -0.4661 -3.8428
  138OSM   H15B14991   0.238   3.386   5.976  1.4817  0.7700 -0.2401
  138OSM   H15C14992   0.278   3.379   5.803 -0.6623 -0.3335  0.2507
  138OSM    C1414993   0.048   3.458   5.709 -0.8294 -0.2875 -0.0925
  138OSM   H14A14994   0.115   3.401   5.646  1.2772  1.2075  0.6628
  138OSM   H14B14995  -0.002   3.532   5.648 -3.7463 -2.5191 -0.6328
  138OSM   H14C14996  -0.032   3.393   5.742 -0.2009 -0.7559  0.5440
  138OSM    C1314997   0.017   3.535   5.936 -0.5314  0.3738  0.0772
  138OSM   H13A14998   0.056   3.545   6.036 -2.2998 -2.6363  1.2258
  138OSM   H13B14999  -0.044   3.445   5.935  1.4947 -1.0695  0.4122
  138OSM   H13C15000  -0.036   3.626   5.913 -1.7929 -0.2646  0.3386
  138OSM    C1215001   0.214   3.621   5.791  0.2022 -0.0395  0.3414
  138OSM   H12A15002   0.156   3.711   5.774  1.6718  1.1944  1.4827
  138OSM   H12B15003   0.258   3.610   5.693 -1.4265 -0.7022 -0.3393
  138OSM    C1115004   0.329   3.663   5.882 -0.4703  0.6820  0.1101
  138OSM   H11A15005   0.399   3.732   5.831  1.0495 -1.1836 -0.4300
  138OSM   H11B15006   0.389   3.571   5.896  0.0766  1.1929  1.3111
  138OSM      P15007   0.227   3.856   6.019  0.0430 -0.5725 -0.1224
  138OSM    O1315008   0.341   3.955   6.017  0.5096 -0.6501  0.4476
  138OSM    O1415009   0.123   3.876   5.914  0.4801  0.6323 -0.3679
  138OSM    O1115010   0.160   3.875   6.158  0.8615 -0.0195  0.4421
  138OSM    O1215011   0.285   3.707   6.011  0.0995 -0.8300  0.3020
  138OSM    C1S15012   0.228   3.856   6.282 -0.3981  0.4862  0.2109
  138OSM    H1S15013   0.333   3.891   6.275 -1.1647  2.8408 -0.2988
  138OSM    H1T15014   0.238   3.745   6.287 -1.4531  0.1606 -2.6924
  138OSM     NF15015   0.229   3.906   6.529  0.2108  0.5145 -0.1928
  138OSM    HNF15016   0.226   3.819   6.579 -1.2933  0.4903 -0.2734
  138OSM    C2S15017   0.152   3.915   6.403  0.0592  0.2718  0.0615
  138OSM    H2S15018   0.124   4.021   6.383 -5.0374 -0.7217  0.6167
  138OSM    C3S15019   0.013   3.840   6.411 -0.6239 -0.9255 -0.4606
  138OSM    H3S15020   0.026   3.730   6.406 -0.7163 -0.9764  0.2214
  138OSM     O315021  -0.069   3.868   6.299  0.0409 -0.3113  0.0396
  138OSM    HO315022  -0.011   3.902   6.230  1.4879 -2.2305  0.2304
  138OSM    C4S15023  -0.054   3.874   6.543  0.2155 -0.0704 -0.4570
  138OSM    H4S15024  -0.096   3.976   6.544  0.4722  0.0320  0.6469
  138OSM    C5S15025  -0.081   3.795   6.654  0.1469  0.3411 -0.2173
  138OSM    H5S15026  -0.059   3.687   6.648  3.8909  1.0484 -1.9061
  138OSM    C6S15027  -0.156   3.843   6.779 -1.1117  0.4029 -0.2532
  138OSM    H6S15028  -0.240   3.775   6.804  0.0506 -0.9760  0.0302
  138OSM    H6T15029  -0.187   3.948   6.760 -0.9416  0.4781 -0.1162
  138OSM    C7S15030  -0.074   3.826   6.914 -0.7203 -0.3154 -0.2858
  138OSM    H7S15031   0.007   3.902   6.910  2.0219 -2.5169  4.3952
  138OSM    H7T15032  -0.021   3.729   6.928  0.6260  0.4459  0.1555
  138OSM    C8S15033  -0.161   3.859   7.034 -0.0032 -1.0983  0.3430
  138OSM    H8S15034  -0.234   3.775   7.044 -2.0017  0.3758 -1.0545
  138OSM    H8T15035  -0.233   3.941   7.015 -2.3585 -3.1604 -0.3035
  138OSM    C9S15036  -0.081   3.894   7.157 -0.1843  0.3418  0.4518
  138OSM    H9S15037  -0.041   3.997   7.145 -0.1600  0.2005 -0.9012
  138OSM    H9T15038   0.003   3.821   7.161  0.8203  1.4568  0.3365
  138OSM   C10S15039  -0.171   3.882   7.285  0.5659 -0.5928  0.0490
  138OSM   H10S15040  -0.221   3.783   7.279 -2.6713  0.9149 -0.1520
  138OSM   H10T15041  -0.248   3.957   7.256  2.1477  0.5552 -1.4300
  138OSM   C11S15042  -0.101   3.902   7.420 -0.1166 -0.1075 -0.1016
  138OSM   H11S15043  -0.068   4.008   7.433  0.1032 -0.3355  1.4544
  138OSM   H11T15044  -0.011   3.838   7.418  0.5615  0.7083  1.8146
  138OSM   C12S15045  -0.192   3.868   7.547  0.0508 -0.5999  0.9940
  138OSM   H12S15046  -0.246   3.771   7.547 -0.0213 -0.5774 -0.2520
  138OSM   H12T15047  -0.277   3.940   7.539  1.0730  0.5490  0.1512
  138OSM   C13S15048  -0.114   3.886   7.677  0.6413  0.3351 -0.5684
  138OSM   H13S15049  -0.071   3.987   7.687 -0.3874  0.8391 -1.0880
  138OSM   H13T15050  -0.031   3.813   7.667  1.1242  0.5868  1.3363
  138OSM   C14S15051  -0.200   3.863   7.805 -0.9287 -0.0266  0.0343
  138OSM   H14S15052  -0.235   3.758   7.803  1.2073 -0.8047  0.9930
  138OSM   H14T15053  -0.287   3.930   7.784  0.3247  1.6257 -0.0763
  138OSM   C15S15054  -0.125   3.879   7.941  0.5185 -0.5168  0.4251
  138OSM   H15S15055  -0.089   3.984   7.949 -1.5748  0.2401  0.5316
  138OSM   H15T15056  -0.031   3.821   7.949  1.5083  1.0170  0.3179
  138OSM   C16S15057  -0.209   3.835   8.059 -0.4565  0.2803 -0.7510
  138OSM   H16S15058  -0.240   3.729   8.050 -2.2327  0.6649  0.3872
  138OSM   H16T15059  -0.311   3.880   8.057 -1.0540 -0.8848  0.9367
  138OSM   C17S15060  -0.141   3.845   8.199 -0.1571  0.1479  0.1792
  138OSM   H17S15061  -0.230   3.827   8.263 -0.1349 -3.2389 -0.5631
  138OSM   H17T15062  -0.103   3.949   8.207  1.3298 -0.2286 -1.4098
  138OSM   C18S15063  -0.013   3.760   8.221  0.2846 -0.1694  0.2354
  138OSM   H18S15064   0.072   3.786   8.154  1.8270 -2.3533  1.2003
  138OSM   H18T15065  -0.036   3.652   8.209 -0.7216 -0.0496  0.9216
  138OSM   H18U15066   0.016   3.776   8.327 -2.4557  1.7604  0.8057
  138OSM    C1F15067   0.325   3.991   6.554 -0.7197 -0.5445  0.2643
  138OSM     OF15068   0.355   4.076   6.474 -0.2369 -0.0807  0.4154
  138OSM    C2F15069   0.402   3.993   6.685 -0.2326  0.4367  0.2328
  138OSM    H2F15070   0.426   4.094   6.725 -0.1305  0.4576  0.1192
  138OSM    H2G15071   0.500   3.943   6.676 -1.7780 -2.8463  0.3212
  138OSM    C3F15072   0.326   3.922   6.810 -0.1193  0.1146  0.0679
  138OSM    H3F15073   0.319   3.818   6.772  1.0338  0.7453 -2.0460
  138OSM    H3G15074   0.217   3.943   6.811  0.2951  2.6598  1.4632
  138OSM    C4F15075   0.394   3.914   6.945  0.2548  0.2721 -0.6139
  138OSM    H4F15076   0.409   4.021   6.968  1.9302  0.0595 -0.6017
  138OSM    H4G15077   0.495   3.872   6.926  0.5455 -0.8963  2.9411
  138OSM    C5F15078   0.303   3.852   7.051 -0.3695  0.1720 -0.8782
  138OSM    H5F15079   0.288   3.742   7.043 -2.2731  0.4774 -2.0959
  138OSM    H5G15080   0.202   3.896   7.042 -0.1418  0.3162 -3.2710
  138OSM    C6F15081   0.350   3.897   7.184  0.8102 -0.7938 -0.6635
  138OSM    H6F15082   0.343   4.008   7.184  0.7026 -0.7986 -1.0068
  138OSM    H6G15083   0.452   3.869   7.217  0.0829 -0.6272  1.9841
  138OSM    C7F15084   0.261   3.867   7.311  0.3064  0.2995 -0.6391
  138OSM    H7F15085   0.211   3.768   7.308 -4.3895  2.3938 -0.5995
  138OSM    H7G15086   0.170   3.931   7.314  0.3801  0.3926 -0.3469
  138OSM    C8F15087   0.328   3.901   7.446  0.2005 -0.7135 -0.1985
  138OSM    H8F15088   0.360   4.007   7.455  0.4701 -0.9456  1.8776
  138OSM    H8G15089   0.426   3.848   7.452  0.1588 -0.8337 -0.5283
  138OSM    C9F15090   0.252   3.867   7.573  0.4499 -0.0722  0.1194
  138OSM    H9F15091   0.188   3.779   7.558 -1.4610  1.2433  0.2180
  138OSM   C10F15092   0.250   3.932   7.696  0.8520  0.2776  0.5932
  138OSM   H10F15093   0.177   3.899   7.771  1.5116 -0.2202  1.0348
  138OSM   C11F15094   0.331   4.058   7.724 -0.0941 -0.2195  0.3812
  138OSM   H11F15095   0.369   4.108   7.632 -0.6713  0.7639  0.6594
  138OSM   H11G15096   0.424   4.033   7.780 -0.0614 -2.9469 -0.7572
  138OSM   C12F15097   0.238   4.173   7.780  0.2883  0.2052  0.4709
  138OSM   H12F15098   0.152   4.178   7.709  0.6323 -1.2918 -0.0982
  138OSM   H12G15099   0.280   4.275   7.779 -1.5508  1.0810 -2.9278
  138OSM   C13F15100   0.181   4.154   7.921 -0.1246 -0.0469  0.0347
  138OSM   H13F15101   0.263   4.141   7.995 -1.2730 -1.4073  1.1237
  138OSM   H13G15102   0.121   4.061   7.930 -0.9682  0.2896 -1.7214
  138OSM   C14F15103   0.083   4.269   7.953  0.0927 -0.1351  0.0976
  138OSM   H14F15104  -0.002   4.271   7.882  0.5821  2.0159 -0.4879
  138OSM   H14G15105   0.135   4.366   7.939 -1.1652  0.1994 -3.0059
  138OSM   C15F15106   0.016   4.259   8.094 -0.8380  0.0401 -0.4067
  138OSM   H15F15107  -0.053   4.172   8.097 -2.2113  1.1468  0.7125
  138OSM   H15G15108  -0.045   4.351   8.104 -2.8471 -1.2711 -0.0039
  138OSM   C16F15109   0.109   4.234   8.215  0.0689  0.0515  0.6724
  138OSM   H16F15110   0.187   4.313   8.223 -1.1287  1.1965  1.5020
  138OSM   H16G15111   0.169   4.143   8.199  1.2817  0.8301  0.6705
  138OSM   C17F15112   0.031   4.220   8.349 -0.7219 -0.6536  0.1537
  138OSM   H17F15113  -0.052   4.146   8.347 -2.6151  1.2417  2.1687
  138OSM   H17G15114  -0.019   4.317   8.370  3.3809  2.2239 -2.1054
  138OSM   C18F15115   0.114   4.182   8.471 -0.3014  0.6757 -0.1931
  138OSM   H18F15116   0.051   4.176   8.563  0.8768  0.2155  0.6153
  138OSM   H18G15117   0.200   4.253   8.481  1.4523 -1.3801  0.0472
  138OSM   H18H15118   0.158   4.080   8.469 -1.4041  0.1034  1.9952
  139OSM      N15119   4.837   4.183   6.019 -0.5516  0.0151 -0.3061
  139OSM    C1515120   4.690   4.151   6.000  0.0769 -0.7405  0.2415
  139OSM   H15A15121   4.667   4.093   5.912 -1.6675  0.5545 -0.2315
  139OSM   H15B15122   4.627   4.239   5.995  1.5670  0.3829  0.2358
  139OSM   H15C15123   4.665   4.094   6.088  2.6943 -0.5975  1.1643
  139OSM    C1415124   4.908   4.048   6.046  0.9264  0.2651  0.5067
  139OSM   H14A15125   4.849   4.002   6.124  0.2223  0.7689  0.2767
  139OSM   H14B15126   5.012   4.068   6.067  1.2995  0.1153 -1.0654
  139OSM   H14C15127   4.912   3.991   5.954  1.3679 -0.7285  1.1189
  139OSM    C1315128   4.898   4.263   5.913  0.1006  0.1333  0.5413
  139OSM   H13A15129   4.919   4.202   5.826 -1.4766  0.0858  0.1548
  139OSM   H13B15130   4.990   4.310   5.943 -0.1820  1.0821 -0.0215
  139OSM   H13C15131   4.839   4.350   5.885  1.3813  0.9420  0.2924
  139OSM    C1215132   4.838   4.259   6.150 -0.4340 -0.6300  0.0968
  139OSM   H12A15133   4.783   4.210   6.229 -0.9590 -2.1087 -1.1331
  139OSM   H12B15134   4.785   4.350   6.129  1.2118  1.1023  2.8322
  139OSM    C1115135   4.970   4.337   6.199 -0.5073  0.2454  0.1389
  139OSM   H11A15136   5.050   4.278   6.150 -1.6321 -1.1731 -0.0902
  139OSM   H11B15137   4.989   4.338   6.309 -0.0437  1.0542  0.0555
  139OSM      P15138   4.865   4.571   6.196  0.1319  0.4574  0.1158
  139OSM    O1315139   4.896   4.697   6.120 -0.0768 -0.1023 -0.3373
  139OSM    O1415140   4.728   4.523   6.179 -0.3137 -0.2113 -0.9760
  139OSM    O1115141   4.900   4.580   6.345  0.0959 -0.1692 -0.3989
  139OSM    O1215142   4.972   4.467   6.151 -0.4725  0.7481 -0.5885
  139OSM    C1S15143   4.916   4.711   6.401  0.5854  0.3896 -0.4311
  139OSM    H1S15144   4.817   4.761   6.398 -1.0420 -2.6727 -1.0474
  139OSM    H1T15145   4.993   4.774   6.350  0.8964  0.8358  0.5484
  139OSM     NF15146   4.974   4.839   6.618  0.4723  0.2574 -0.5072
  139OSM    HNF15147   5.068   4.861   6.643  0.4303 -1.2951  1.2348
  139OSM    C2S15148   4.963   4.705   6.552  0.0912 -1.3229  0.9145
  139OSM    H2S15149   4.888   4.645   6.607 -1.4980  0.1198  0.4027
  139OSM    C3S15150   5.096   4.626   6.562 -0.1865 -0.1596 -0.4935
  139OSM    H3S15151   5.177   4.692   6.524 -2.4558  1.9277 -2.0511
  139OSM     O315152   5.107   4.498   6.496  0.9368 -0.2827 -0.1583
  139OSM    HO315153   5.042   4.508   6.426  0.3168  0.6239  0.5113
  139OSM    C4S15154   5.126   4.613   6.712 -0.1401  0.3203  0.4998
  139OSM    H4S15155   5.171   4.700   6.762  0.7855  0.6797 -0.8944
  139OSM    C5S15156   5.101   4.497   6.778 -0.1651 -0.7447 -1.0419
  139OSM    H5S15157   5.048   4.419   6.722  0.2972 -1.5715 -0.3490
  139OSM    C6S15158   5.124   4.467   6.925 -0.1308  0.1924  0.3161
  139OSM    H6S15159   5.127   4.552   6.995 -0.8110  0.7875 -0.3518
  139OSM    H6T15160   5.224   4.422   6.938 -0.0649  0.4663  0.7436
  139OSM    C7S15161   5.015   4.383   6.974  0.2324 -0.0046 -0.6220
  139OSM    H7S15162   4.993   4.293   6.912 -0.0296 -0.8643  0.6996
  139OSM    H7T15163   4.923   4.446   6.967  0.5357  0.5219  0.1103
  139OSM    C8S15164   5.039   4.315   7.111 -0.3897 -0.8937  0.6983
  139OSM    H8S15165   5.140   4.269   7.106  0.3038  0.6607 -0.1871
  139OSM    H8T15166   4.971   4.231   7.138 -1.0765 -0.2125  1.1628
  139OSM    C9S15167   5.041   4.408   7.235  0.2136  0.0741  0.8801
  139OSM    H9S15168   4.938   4.433   7.269 -0.4937  0.7929 -1.5708
  139OSM    H9T15169   5.083   4.507   7.208 -0.2062 -0.3567 -1.6321
  139OSM   C10S15170   5.113   4.336   7.346  0.2619 -1.0210 -0.3100
  139OSM   H10S15171   5.221   4.331   7.319  0.3251 -1.8306  0.0873
  139OSM   H10T15172   5.073   4.233   7.355 -0.4431 -0.6268  1.3160
  139OSM   C11S15173   5.098   4.414   7.479  0.0819 -0.3341 -0.2264
  139OSM   H11S15174   4.990   4.411   7.504  0.4439 -1.4451  1.3100
  139OSM   H11T15175   5.121   4.523   7.469  1.3844 -0.5529  0.2473
  139OSM   C12S15176   5.158   4.343   7.598  0.0589 -0.3110 -0.8470
  139OSM   H12S15177   5.269   4.352   7.589  0.0684 -1.1925 -1.8117
  139OSM   H12T15178   5.145   4.232   7.593  1.4163 -0.5736  0.6825
  139OSM   C13S15179   5.123   4.405   7.735  0.0406 -1.0726  0.1093
  139OSM   H13S15180   5.012   4.412   7.744  0.0443  0.8726 -0.9653
  139OSM   H13T15181   5.168   4.506   7.742  1.1683 -1.5152 -0.5571
  139OSM   C14S15182   5.176   4.323   7.849 -0.5146  0.0414  0.2963
  139OSM   H14S15183   5.282   4.295   7.828 -0.6096  0.1630 -0.3397
  139OSM   H14T15184   5.114   4.231   7.853 -2.2235  1.1721  1.2926
  139OSM   C15S15185   5.179   4.389   7.983 -0.1635 -0.6324 -1.1271
  139OSM   H15S15186   5.079   4.417   8.022 -0.6591 -3.3215 -0.2700
  139OSM   H15T15187   5.242   4.480   7.976 -0.5997 -0.3787 -1.7522
  139OSM   C16S15188   5.249   4.309   8.096 -0.8660  0.0589 -0.2334
  139OSM   H16S15189   5.352   4.291   8.058  0.2990 -0.5022  2.8820
  139OSM   H16T15190   5.184   4.220   8.112  0.3479 -0.5772  1.5330
  139OSM   C17S15191   5.251   4.387   8.231 -0.2424 -0.1093  0.9774
  139OSM   H17S15192   5.149   4.412   8.266 -1.0970 -0.8652 -0.8318
  139OSM   H17T15193   5.299   4.486   8.219 -0.4317 -0.3692 -3.8860
  139OSM   C18S15194   5.336   4.315   8.339  0.0361 -0.3982 -0.0711
  139OSM   H18S15195   5.437   4.302   8.293 -0.5346  0.5600 -1.6928
  139OSM   H18T15196   5.291   4.215   8.356  1.3348 -1.0515 -0.2955
  139OSM   H18U15197   5.348   4.376   8.431  0.5832  1.5394 -1.3535
  139OSM    C1F15198   4.867   4.919   6.638  0.0750  0.3599 -0.2136
  139OSM     OF15199   4.759   4.885   6.588 -0.0297  0.6997  0.1931
  139OSM    C2F15200   4.880   5.041   6.732  0.0749  0.5656 -0.7857
  139OSM    H2F15201   4.811   5.117   6.689  0.2835 -0.7340 -3.6341
  139OSM    H2G15202   4.984   5.080   6.731  0.8063 -1.1602  1.0557
  139OSM    C3F15203   4.848   5.000   6.881  0.5641  0.1354  0.7147
  139OSM    H3F15204   4.744   4.961   6.875  0.7997 -0.4264  0.1966
  139OSM    H3G15205   4.845   5.100   6.929  1.1299  0.6209 -0.2262
  139OSM    C4F15206   4.952   4.917   6.954 -0.0556  0.4643 -0.2404
  139OSM    H4F15207   5.046   4.970   6.930 -0.3708 -0.2998 -3.6905
  139OSM    H4G15208   4.960   4.817   6.906 -1.2646 -0.9340  2.2946
  139OSM    C5F15209   4.924   4.901   7.109  0.6273  0.6255  0.5097
  139OSM    H5F15210   4.829   4.842   7.107  0.9114  0.1270  1.3645
  139OSM    H5G15211   4.899   5.004   7.143 -0.9291  0.3136  0.4176
  139OSM    C6F15212   5.034   4.817   7.174 -0.8048 -0.7440  0.5113
  139OSM    H6F15213   5.083   4.767   7.087  0.1144  0.9162  0.0360
  139OSM    H6G15214   4.991   4.743   7.245 -1.6186  0.1042  0.9177
  139OSM    C7F15215   5.146   4.889   7.252  0.0366  0.5137 -0.1306
  139OSM    H7F15216   5.182   4.968   7.182  0.0341  0.7826  0.1682
  139OSM    H7G15217   5.226   4.814   7.267  1.0217  0.9182 -2.6739
  139OSM    C8F15218   5.107   4.948   7.381 -0.2292 -0.2660 -0.1606
  139OSM    H8F15219   5.031   5.029   7.370  0.2955  0.0480 -1.7233
  139OSM    H8G15220   5.189   5.018   7.406 -1.1391  1.8339 -2.5906
  139OSM    C9F15221   5.069   4.859   7.495 -0.1872 -0.5199 -0.0952
  139OSM    H9F15222   4.987   4.791   7.467  0.7627 -0.5599 -3.1517
  139OSM   C10F15223   5.121   4.840   7.618  0.1480 -0.5892  0.3177
  139OSM   H10F15224   5.078   4.761   7.681  0.7901  0.1846  1.7733
  139OSM   C11F15225   5.233   4.922   7.680 -0.1734  0.3300  0.0546
  139OSM   H11F15226   5.177   4.972   7.762 -2.2725  0.8490 -1.6286
  139OSM   H11G15227   5.280   4.996   7.612 -0.4108  0.6094  0.1930
  139OSM   C12F15228   5.357   4.844   7.745 -0.3499  0.0802 -0.0260
  139OSM   H12F15229   5.429   4.919   7.783  1.0260 -0.6399 -1.1154
  139OSM   H12G15230   5.400   4.783   7.662 -2.5706  0.7072 -1.7011
  139OSM   C13F15231   5.316   4.758   7.866  0.1154  0.0435  0.8082
  139OSM   H13F15232   5.392   4.681   7.891 -0.0391 -0.6575 -0.7617
  139OSM   H13G15233   5.228   4.700   7.831 -0.7189  1.8860 -0.2498
  139OSM   C14F15234   5.286   4.834   7.989 -0.1081 -0.0965  0.4597
  139OSM   H14F15235   5.203   4.904   7.966 -2.1487 -2.6810 -0.5305
  139OSM   H14G15236   5.380   4.886   8.018  1.0236 -2.2731  0.9321
  139OSM   C15F15237   5.233   4.750   8.109 -0.2001  0.0260 -0.1791
  139OSM   H15F15238   5.302   4.665   8.127  2.5665  1.4501 -3.0124
  139OSM   H15G15239   5.130   4.714   8.086 -0.3447 -0.5899  1.3541
  139OSM   C16F15240   5.231   4.842   8.225  0.4650  0.1025  0.0271
  139OSM   H16F15241   5.177   4.935   8.196  2.0799  1.4589  1.1083
  139OSM   H16G15242   5.331   4.865   8.269  0.4497  1.0536 -0.4106
  139OSM   C17F15243   5.146   4.789   8.341  0.8307  0.7234 -0.2223
  139OSM   H17F15244   5.065   4.717   8.313  0.9422  0.9244 -1.0804
  139OSM   H17G15245   5.090   4.876   8.380 -0.6405  0.5105 -1.7152
  139OSM   C18F15246   5.226   4.726   8.458  0.4160  0.3427  0.3316
  139OSM   H18F15247   5.311   4.788   8.493  2.0474 -1.5466 -0.0356
  139OSM   H18G15248   5.266   4.629   8.421 -0.5481  1.0750 -2.9539
  139OSM   H18H15249   5.172   4.718   8.555  0.5997  0.3896  0.4386
  140OSM      N15250   5.231   0.005   6.051  0.2493  0.5872 -0.4480
  140OSM    C1515251   5.135  -0.101   6.001 -0.4786  0.5089 -0.2200
  140OSM   H15A15252   5.111  -0.089   5.896 -0.7404 -1.8717 -0.4850
  140OSM   H15B15253   5.045  -0.109   6.061  0.0371  0.2807  0.5316
  140OSM   H15C15254   5.189  -0.194   6.012  0.9553  1.1060 -1.7532
  140OSM    C1415255   5.354  -0.008   5.976  0.1363  0.0513  0.6102
  140OSM   H14A15256   5.377  -0.113   5.969 -0.4986 -0.1554  1.4544
  140OSM   H14B15257   5.435   0.044   6.025 -0.1068  1.3209 -0.2553
  140OSM   H14C15258   5.335   0.031   5.877 -1.4490 -0.9591  0.4758
  140OSM    C1315259   5.167   0.134   6.029  0.3708 -0.0716 -0.1713
  140OSM   H13A15260   5.242   0.206   6.001 -0.0159  0.5190  0.2881
  140OSM   H13B15261   5.119   0.183   6.113  0.6936  1.6854 -0.9692
  140OSM   H13C15262   5.105   0.139   5.941  1.0119  1.8472 -0.5436
  140OSM    C1215263   5.266  -0.014   6.197 -0.3949  0.2277 -0.4616
  140OSM   H12A15264   5.180  -0.031   6.261  0.4933  3.1313  1.7194
  140OSM   H12B15265   5.318   0.073   6.234  2.5304 -1.2547 -0.8011
  140OSM    C1115266   5.358  -0.133   6.240 -0.0944  0.2353 -0.4252
  140OSM   H11A15267   5.320  -0.230   6.201 -0.6051 -0.4365  1.6261
  140OSM   H11B15268   5.338  -0.136   6.350  2.0635  0.1222  0.0146
  140OSM      P15269   5.586  -0.009   6.283 -0.2139  0.7622 -0.2889
  140OSM    O1315270   5.729  -0.051   6.290 -0.5012  0.6766 -0.5992
  140OSM    O1415271   5.562   0.119   6.216 -0.2370  0.3781 -0.1882
  140OSM    O1115272   5.526  -0.004   6.426 -0.1449 -0.0415  0.0187
  140OSM    O1215273   5.501  -0.121   6.216  0.1110 -0.0995 -0.0854
  140OSM    C1S15274   5.592   0.088   6.518  0.9824 -0.6457  0.0767
  140OSM    H1S15275   5.569   0.192   6.489  0.1957 -0.1112  2.3656
  140OSM    H1T15276   5.702   0.078   6.511  1.0069 -1.4276  1.2020
  140OSM     NF15277   5.565   0.176   6.746  0.0317 -0.2700  0.5569
  140OSM    HNF15278   5.633   0.162   6.818 -0.1330 -0.8155  0.6037
  140OSM    C2S15279   5.539   0.064   6.664 -0.6525 -0.3974  0.4306
  140OSM    H2S15280   5.429   0.055   6.654 -0.5712 -2.1779  0.7810
  140OSM    C3S15281   5.577  -0.078   6.719  0.6160  0.0321  0.0036
  140OSM    H3S15282   5.688  -0.086   6.720  0.6748  0.8080  0.2752
  140OSM     O315283   5.541  -0.187   6.637  0.2203  0.0055 -0.4922
  140OSM    HO315284   5.523  -0.133   6.560  2.5495  0.0762 -1.0458
  140OSM    C4S15285   5.513  -0.091   6.860 -0.6500  0.8264 -0.0936
  140OSM    H4S15286   5.590  -0.069   6.936 -0.3319  2.1469 -0.7613
  140OSM    C5S15287   5.390  -0.105   6.892  0.3141 -0.1009 -1.0465
  140OSM    H5S15288   5.310  -0.113   6.816  1.0510 -0.1903 -1.8299
  140OSM    C6S15289   5.341  -0.116   7.038  0.6150 -0.4931  0.4009
  140OSM    H6S15290   5.323  -0.223   7.062 -2.3593 -0.5122 -1.3852
  140OSM    H6T15291   5.248  -0.056   7.050  1.0155  0.1205  0.5217
  140OSM    C7S15292   5.450  -0.076   7.152 -0.0327  0.1872  0.5968
  140OSM    H7S15293   5.470   0.032   7.136 -0.2567  0.1768  0.2147
  140OSM    H7T15294   5.545  -0.126   7.122 -0.0345  0.3581  0.2974
  140OSM    C8S15295   5.397  -0.093   7.294  0.1901 -0.4794  0.3814
  140OSM    H8S15296   5.377  -0.201   7.308  1.7782 -0.9439 -0.7249
  140OSM    H8T15297   5.315  -0.020   7.314  1.0205  0.4009  0.6349
  140OSM    C9S15298   5.519  -0.059   7.386 -0.1846 -0.3715  0.5467
  140OSM    H9S15299   5.557   0.040   7.352 -1.7691  0.3000  0.6729
  140OSM    H9T15300   5.594  -0.141   7.379  2.8196  2.0391  1.8567
  140OSM   C10S15301   5.484  -0.041   7.533  0.5102 -0.3875  0.0510
  140OSM   H10S15302   5.420   0.049   7.545  1.2879  0.4312 -1.6595
  140OSM   H10T15303   5.578  -0.005   7.581 -0.1598  0.6832  0.6312
  140OSM   C11S15304   5.431  -0.172   7.600  0.2006 -0.0913 -0.8016
  140OSM   H11S15305   5.477  -0.269   7.573 -0.8323 -1.3343  1.5971
  140OSM   H11T15306   5.322  -0.171   7.575 -0.2568 -0.1361  1.0652
  140OSM   C12S15307   5.432  -0.149   7.751 -0.0610  0.7728 -0.4679
  140OSM   H12S15308   5.369  -0.059   7.772 -1.1415  0.2632 -1.4182
  140OSM   H12T15309   5.535  -0.146   7.792 -0.4619 -2.8793  1.1354
  140OSM   C13S15310   5.360  -0.264   7.827  0.7893 -0.2817 -0.3981
  140OSM   H13S15311   5.418  -0.358   7.818 -0.7392 -1.1852 -1.3415
  140OSM   H13T15312   5.264  -0.282   7.774  0.8896 -0.2839 -0.5811
  140OSM   C14S15313   5.338  -0.247   7.976  0.3114  0.2921 -0.4916
  140OSM   H14S15314   5.270  -0.162   7.998 -0.5727 -0.3540 -0.6434
  140OSM   H14T15315   5.436  -0.219   8.019 -0.2226  0.3259  0.7728
  140OSM   C15S15316   5.314  -0.377   8.054  0.6287 -0.4770  0.4651
  140OSM   H15S15317   5.388  -0.455   8.028  0.1658 -1.1217  1.0454
  140OSM   H15T15318   5.215  -0.419   8.024  0.7191  1.3263 -2.7304
  140OSM   C16S15319   5.308  -0.366   8.205  0.2930  0.1640 -0.0601
  140OSM   H16S15320   5.286  -0.464   8.251  2.6427  0.1011  1.0900
  140OSM   H16T15321   5.226  -0.299   8.240  1.8949  1.2588  1.8253
  140OSM   C17S15322   5.441  -0.324   8.274  0.0583 -0.4840 -0.0171
  140OSM   H17S15323   5.462  -0.218   8.245 -1.7769 -0.4227 -1.3092
  140OSM   H17T15324   5.524  -0.389   8.240  0.1237 -1.5030  1.9443
  140OSM   C18S15325   5.428  -0.331   8.429 -0.1032  0.6692  0.7465
  140OSM   H18S15326   5.426  -0.437   8.463  0.7761  0.7270  1.0173
  140OSM   H18T15327   5.336  -0.275   8.454 -1.3732 -0.4253 -1.1919
  140OSM   H18U15328   5.520  -0.286   8.473  1.5373  2.1750 -3.6807
  140OSM    C1F15329   5.516   0.302   6.718  0.1542  0.0679 -0.7768
  140OSM     OF15330   5.441   0.327   6.627  0.7321  0.1784 -0.4747
  140OSM    C2F15331   5.581   0.402   6.808 -0.4721  0.3544  0.3806
  140OSM    H2F15332   5.677   0.431   6.758 -2.1806  1.7551 -2.3347
  140OSM    H2G15333   5.593   0.361   6.910 -0.1236  0.8118  0.5245
  140OSM    C3F15334   5.506   0.535   6.821  0.2461  0.1660 -0.6342
  140OSM    H3F15335   5.412   0.517   6.877  0.3068 -0.0067 -0.5857
  140OSM    H3G15336   5.469   0.561   6.720  1.0294  3.2265 -0.2370
  140OSM    C4F15337   5.596   0.638   6.881  0.4535 -0.2061 -0.4982
  140OSM    H4F15338   5.542   0.734   6.864  0.1135 -0.5291 -1.2908
  140OSM    H4G15339   5.699   0.643   6.840 -0.1428  1.1446 -1.9373
  140OSM    C5F15340   5.602   0.623   7.029 -0.3953  0.2727 -0.1682
  140OSM    H5F15341   5.670   0.539   7.054  0.5570  0.2575 -2.5661
  140OSM    H5G15342   5.503   0.600   7.075 -0.8323 -0.8539 -1.5785
  140OSM    C6F15343   5.654   0.750   7.107 -0.2454  0.3073 -0.3136
  140OSM    H6F15344   5.565   0.816   7.104 -1.9505 -1.6739  2.5173
  140OSM    H6G15345   5.736   0.799   7.049 -0.6428 -1.6759 -2.7416
  140OSM    C7F15346   5.682   0.716   7.251 -0.1900 -1.2453  0.4606
  140OSM    H7F15347   5.788   0.684   7.258  0.5804  1.2946  1.5937
  140OSM    H7G15348   5.619   0.631   7.285  0.3050 -2.1587 -0.8502
  140OSM    C8F15349   5.670   0.840   7.347  0.4093  0.5413  0.2087
  140OSM    H8F15350   5.734   0.914   7.295  0.3328  0.3897 -0.1058
  140OSM    H8G15351   5.709   0.818   7.448  0.1624  1.2266  0.4584
  140OSM    C9F15352   5.536   0.909   7.358  0.5117  0.1540 -0.3301
  140OSM    H9F15353   5.496   0.952   7.265 -0.3956 -0.1188 -0.0800
  140OSM   C10F15354   5.460   0.919   7.471 -0.2057 -0.3056 -0.7487
  140OSM   H10F15355   5.367   0.976   7.464 -1.5979 -2.4081 -0.3034
  140OSM   C11F15356   5.496   0.865   7.613 -0.4501  0.3695 -0.7738
  140OSM   H11F15357   5.595   0.816   7.620 -1.0823 -0.7187  1.2758
  140OSM   H11G15358   5.412   0.795   7.632 -0.4653  0.2961 -1.1102
  140OSM   C12F15359   5.506   0.976   7.715  0.2873 -0.8854  0.7399
  140OSM   H12F15360   5.416   1.038   7.695  2.3159  1.7392 -1.0012
  140OSM   H12G15361   5.592   1.044   7.698 -0.1345 -1.1433 -3.3724
  140OSM   C13F15362   5.494   0.937   7.859 -0.2424  0.5184 -0.0782
  140OSM   H13F15363   5.586   0.896   7.906 -0.3628  0.8806  0.4842
  140OSM   H13G15364   5.421   0.853   7.861 -0.7146  0.9134 -0.4483
  140OSM   C14F15365   5.471   1.056   7.950  0.0379 -0.4668  0.0956
  140OSM   H14F15366   5.372   1.097   7.919  0.2525 -0.3415 -0.4232
  140OSM   H14G15367   5.543   1.139   7.937 -1.4679  1.3674  2.4204
  140OSM   C15F15368   5.468   1.034   8.100 -0.1693  0.4455 -0.5929
  140OSM   H15F15369   5.570   1.054   8.136 -0.3589  2.5739 -1.0905
  140OSM   H15G15370   5.425   0.934   8.121  0.3200  0.4974  0.7102
  140OSM   C16F15371   5.364   1.121   8.158  0.7070 -0.0024 -0.3051
  140OSM   H16F15372   5.344   1.097   8.265 -0.2168 -3.8997 -1.2103
  140OSM   H16G15373   5.264   1.114   8.109  0.6693  1.9517 -0.5894
  140OSM   C17F15374   5.407   1.267   8.151 -0.2707  0.4175 -0.7085
  140OSM   H17F15375   5.403   1.304   8.046  0.6858  1.9434 -0.2392
  140OSM   H17G15376   5.510   1.289   8.187 -1.0989  1.7901  1.0179
  140OSM   C18F15377   5.303   1.360   8.222 -0.0711 -0.4129 -0.6065
  140OSM   H18F15378   5.350   1.460   8.214 -0.8910  0.1717  1.2699
  140OSM   H18G15379   5.289   1.337   8.330  2.5390  0.1901 -0.0515
  140OSM   H18H15380   5.205   1.365   8.171  0.1283 -1.9007 -1.1816
  141OSM      N15381   5.169   2.866   6.134  0.4888 -1.0151 -0.3791
  141OSM    C1515382   5.064   2.956   6.065 -0.2504  0.0348 -0.1370
  141OSM   H15A15383   5.015   2.900   5.986  0.9095  1.2849 -1.8169
  141OSM   H15B15384   5.119   3.029   6.007 -0.3463 -0.6714 -1.1382
  141OSM   H15C15385   4.992   2.992   6.136 -0.9308 -0.6663 -0.4543
  141OSM    C1415386   5.283   2.846   6.038  0.8492  0.7661 -0.1003
  141OSM   H14A15387   5.260   2.783   5.953  3.1866  1.4372 -1.3225
  141OSM   H14B15388   5.361   2.790   6.089 -2.0170 -2.1806  1.4500
  141OSM   H14C15389   5.318   2.942   6.005 -3.6093  2.2580 -1.1150
  141OSM    C1315390   5.227   2.964   6.238  0.0938  0.9116 -0.4890
  141OSM   H13A15391   5.293   2.905   6.300 -0.8473 -0.9038 -1.1389
  141OSM   H13B15392   5.143   3.003   6.293 -0.6312  0.4515 -1.2575
  141OSM   H13C15393   5.290   3.042   6.197 -1.2932  0.1531 -4.5539
  141OSM    C1215394   5.105   2.745   6.190  0.1698 -0.4290 -0.1260
  141OSM   H12A15395   5.032   2.783   6.260 -0.2068 -0.5806 -0.4366
  141OSM   H12B15396   5.174   2.685   6.248  0.3290 -0.0366  0.0941
  141OSM    C1115397   5.032   2.652   6.098  0.6502 -0.6716 -0.1901
  141OSM   H11A15398   4.956   2.704   6.036  1.3289 -1.8329 -2.0893
  141OSM   H11B15399   4.980   2.579   6.163 -0.1246 -0.1225 -0.1876
  141OSM      P15400   5.224   2.480   6.075 -0.1766 -0.2223 -0.3719
  141OSM    O1315401   5.169   2.347   6.056  0.0646  0.0100  0.1153
  141OSM    O1415402   5.359   2.507   6.017  0.0922 -0.0679  0.1405
  141OSM    O1115403   5.219   2.505   6.231  0.2584  0.2892  0.5615
  141OSM    O1215404   5.127   2.586   6.015  0.2545  0.0573  0.2949
  141OSM    C1S15405   5.248   2.392   6.315  0.4594 -0.6585  0.0556
  141OSM    H1S15406   5.347   2.350   6.288  1.3868  1.9046 -0.9012
  141OSM    H1T15407   5.180   2.305   6.310  0.5829 -0.7049 -2.5809
  141OSM     NF15408   5.348   2.357   6.536  0.0610 -0.9901  0.4865
  141OSM    HNF15409   5.300   2.327   6.619 -0.4614  0.0417  0.5763
  141OSM    C2S15410   5.262   2.446   6.460 -0.4029 -0.1832  0.0786
  141OSM    H2S15411   5.303   2.549   6.457 -1.4524  0.2353 -0.8262
  141OSM    C3S15412   5.117   2.462   6.522  0.0464  0.1625  0.2812
  141OSM    H3S15413   5.085   2.356   6.529 -0.8399  0.3821 -0.2704
  141OSM     O315414   5.027   2.536   6.438 -0.2858 -0.3587  0.0168
  141OSM    HO315415   5.081   2.556   6.361  0.1364 -1.0535  0.1276
  141OSM    C4S15416   5.135   2.525   6.665  0.0376  0.5334 -0.7207
  141OSM    H4S15417   5.128   2.454   6.749  2.5752 -1.3104 -1.9653
  141OSM    C5S15418   5.147   2.661   6.697 -1.0998  0.1833  0.3557
  141OSM    H5S15419   5.126   2.739   6.622  1.2782  3.2201  2.5788
  141OSM    C6S15420   5.161   2.711   6.839 -0.4409  0.2453 -0.4401
  141OSM    H6S15421   5.069   2.768   6.863  2.0699  5.0265 -1.0718
  141OSM    H6T15422   5.238   2.789   6.825 -0.4075 -0.2130 -3.3982
  141OSM    C7S15423   5.201   2.611   6.953 -0.4169  0.8713 -0.1233
  141OSM    H7S15424   5.292   2.558   6.918 -0.8946 -1.3192  1.7402
  141OSM    H7T15425   5.113   2.545   6.944 -0.1696  0.6055 -0.5863
  141OSM    C8S15426   5.208   2.664   7.097  0.0883 -0.4607  0.0850
  141OSM    H8S15427   5.107   2.698   7.131 -0.4381 -2.2530  0.4113
  141OSM    H8T15428   5.283   2.746   7.089  0.7057 -1.1401 -1.3585
  141OSM    C9S15429   5.260   2.562   7.201  0.1347  0.6933  0.1606
  141OSM    H9S15430   5.260   2.605   7.303  1.3289  0.6429  0.1953
  141OSM    H9T15431   5.366   2.545   7.174 -0.3560 -1.5666 -0.5460
  141OSM   C10S15432   5.180   2.432   7.188 -0.2314  0.2907 -0.3588
  141OSM   H10S15433   5.231   2.370   7.111 -0.1440 -1.4295  1.0276
  141OSM   H10T15434   5.077   2.448   7.149 -1.3865  0.6786  2.5900
  141OSM   C11S15435   5.171   2.335   7.310  0.3014  0.5685  0.5218
  141OSM   H11S15436   5.271   2.312   7.352  0.0196 -2.5002 -0.2391
  141OSM   H11T15437   5.135   2.242   7.262  0.3858  1.1399 -0.6808
  141OSM   C12S15438   5.075   2.386   7.420  0.0788 -0.0946 -0.0169
  141OSM   H12S15439   4.984   2.428   7.373 -0.7343 -0.5289  1.1251
  141OSM   H12T15440   5.116   2.474   7.475 -0.5919  1.4725 -1.9215
  141OSM   C13S15441   5.052   2.274   7.529 -0.4238  0.1789 -0.0477
  141OSM   H13S15442   5.151   2.232   7.554  1.3394  2.3976 -2.6476
  141OSM   H13T15443   4.988   2.190   7.491  0.9616 -0.7840 -0.3267
  141OSM   C14S15444   4.992   2.338   7.652  0.0442 -0.2064  0.3921
  141OSM   H14S15445   4.893   2.388   7.645  0.4407  0.6290  0.6375
  141OSM   H14T15446   5.069   2.415   7.673  1.5041 -1.5805  0.2427
  141OSM   C15S15447   4.978   2.233   7.771 -0.6932 -0.1053  0.1029
  141OSM   H15S15448   5.060   2.158   7.772 -0.8218 -0.2455  1.1550
  141OSM   H15T15449   4.886   2.174   7.751 -1.0568  0.9616 -1.5922
  141OSM   C16S15450   4.966   2.315   7.901 -0.6391 -0.0527  0.0389
  141OSM   H16S15451   4.863   2.357   7.908 -0.9641 -0.8764  0.2748
  141OSM   H16T15452   5.041   2.397   7.902  0.0021 -0.6290 -0.4408
  141OSM   C17S15453   4.987   2.234   8.024  0.8814  0.4084 -0.2616
  141OSM   H17S15454   5.087   2.187   8.009  1.3858  0.8444  1.5805
  141OSM   H17T15455   4.916   2.149   8.019  1.8985 -0.4385 -0.9788
  141OSM   C18S15456   5.001   2.299   8.162  0.2047  0.3400  0.0541
  141OSM   H18S15457   5.097   2.354   8.164  0.3104  0.2709 -1.7595
  141OSM   H18T15458   5.012   2.222   8.242 -0.4591  1.4875  1.2992
  141OSM   H18U15459   4.919   2.368   8.190  0.7541  0.9645  0.1370
  141OSM    C1F15460   5.480   2.348   6.514 -0.4667  0.6468  0.2547
  141OSM     OF15461   5.537   2.433   6.440 -0.0684  0.2285 -0.6235
  141OSM    C2F15462   5.558   2.246   6.592  0.1600 -0.0128 -0.1289
  141OSM    H2F15463   5.609   2.180   6.518  1.4329  1.1685 -0.3484
  141OSM    H2G15464   5.487   2.198   6.662 -1.3464  0.6859 -1.0974
  141OSM    C3F15465   5.653   2.310   6.691  0.2505 -0.4566  0.2796
  141OSM    H3F15466   5.725   2.380   6.643  0.1358 -1.3374 -1.2169
  141OSM    H3G15467   5.722   2.227   6.717  0.6841 -0.1287  0.1992
  141OSM    C4F15468   5.575   2.366   6.812  0.3469 -0.4836 -0.8786
  141OSM    H4F15469   5.500   2.305   6.866  2.2480 -2.6654 -0.5738
  141OSM    H4G15470   5.525   2.460   6.779 -0.0763 -0.5367 -0.3994
  141OSM    C5F15471   5.667   2.401   6.927 -0.6455 -0.1188  0.2360
  141OSM    H5F15472   5.745   2.462   6.876 -1.2188 -0.4860 -1.1422
  141OSM    H5G15473   5.713   2.305   6.956 -0.7677 -0.0064  0.8026
  141OSM    C6F15474   5.605   2.487   7.043  0.9884 -0.1786  0.4930
  141OSM    H6F15475   5.507   2.448   7.077  0.2235  0.1632 -1.2309
  141OSM    H6G15476   5.586   2.584   6.991 -0.8142 -0.1033  1.2212
  141OSM    C7F15477   5.705   2.523   7.157  0.2050  0.3222 -0.6733
  141OSM    H7F15478   5.790   2.582   7.115  1.0223  0.4981  1.0944
  141OSM    H7G15479   5.758   2.439   7.206  0.1301 -0.7342 -2.3601
  141OSM    C8F15480   5.641   2.605   7.271  0.6004 -0.1346  0.2762
  141OSM    H8F15481   5.580   2.684   7.223  0.6984 -0.1065  0.1974
  141OSM    H8G15482   5.718   2.671   7.316  1.4468  1.4484 -3.1779
  141OSM    C9F15483   5.549   2.527   7.367 -0.3651  0.1175 -0.6438
  141OSM    H9F15484   5.498   2.442   7.318  0.3398 -1.7414  1.6938
  141OSM   C10F15485   5.528   2.563   7.498 -0.7367 -0.3337 -0.6642
  141OSM   H10F15486   5.470   2.496   7.563  1.0464 -1.7499 -0.4538
  141OSM   C11F15487   5.597   2.687   7.557  0.1088  0.3330  1.2196
  141OSM   H11F15488   5.589   2.773   7.487  0.9258  1.6611  2.6909
  141OSM   H11G15489   5.705   2.666   7.577 -0.0997 -2.9272 -0.3219
  141OSM   C12F15490   5.547   2.727   7.691 -0.0920  0.0051 -0.8033
  141OSM   H12F15491   5.438   2.747   7.683  0.2435  2.7608  0.5927
  141OSM   H12G15492   5.594   2.822   7.723 -0.5132  0.0617 -0.3453
  141OSM   C13F15493   5.579   2.626   7.803  0.2547 -0.2570  1.0313
  141OSM   H13F15494   5.689   2.610   7.812  0.9590  3.3596  0.6304
  141OSM   H13G15495   5.535   2.532   7.765 -1.2423  0.5897  0.5917
  141OSM   C14F15496   5.525   2.662   7.942  0.3572  0.2301 -0.3330
  141OSM   H14F15497   5.414   2.662   7.943  0.1741 -1.7925  4.3016
  141OSM   H14G15498   5.549   2.768   7.961 -0.3085  0.2773  0.2902
  141OSM   C15F15499   5.566   2.569   8.060 -0.3541 -0.1557 -0.2235
  141OSM   H15F15500   5.675   2.545   8.054 -0.0529  1.1068 -0.1665
  141OSM   H15G15501   5.516   2.471   8.046 -2.5925  0.9375 -0.2476
  141OSM   C16F15502   5.507   2.633   8.193  0.1549 -0.0618  0.1461
  141OSM   H16F15503   5.508   2.558   8.275  2.2532  1.6476  1.8037
  141OSM   H16G15504   5.400   2.660   8.179 -0.9074 -2.0963  3.2166
  141OSM   C17F15505   5.582   2.758   8.245 -0.0797  0.2685 -0.1230
  141OSM   H17F15506   5.547   2.783   8.347 -0.7119 -1.7300  0.1800
  141OSM   H17G15507   5.574   2.852   8.186  2.7041  0.9618  0.4440
  141OSM   C18F15508   5.734   2.732   8.253  0.7240  0.1345 -0.9930
  141OSM   H18F15509   5.804   2.814   8.280 -1.6533  1.7119  0.7753
  141OSM   H18G15510   5.769   2.673   8.166  1.4986 -0.8388 -0.0584
  141OSM   H18H15511   5.760   2.669   8.341  0.5013  2.3082  0.7284
  142OSM      N15512   4.469   3.398   6.046 -0.5135  0.7697 -0.1248
  142OSM    C1515513   4.355   3.367   5.958  0.3152 -0.4855  0.3759
  142OSM   H15A15514   4.339   3.261   5.963  1.5649 -0.9056 -2.3642
  142OSM   H15B15515   4.379   3.406   5.860 -0.8271  0.6180  0.5092
  142OSM   H15C15516   4.269   3.422   5.993  2.0321  3.0121 -0.4447
  142OSM    C1415517   4.593   3.355   5.982  0.7279  0.0333  0.7777
  142OSM   H14A15518   4.592   3.249   5.961 -0.9278  0.1144  0.2431
  142OSM   H14B15519   4.674   3.385   6.046  0.4364 -0.6846  1.4976
  142OSM   H14C15520   4.603   3.410   5.890 -0.5821  0.1323  0.6756
  142OSM    C1315521   4.465   3.544   6.064 -0.2225 -0.2449  0.1659
  142OSM   H13A15522   4.545   3.583   6.126 -1.2206  2.2895 -0.0511
  142OSM   H13B15523   4.374   3.583   6.107  0.1060  1.6340 -0.7661
  142OSM   H13C15524   4.473   3.598   5.971 -0.2521  0.0442  0.3284
  142OSM    C1215525   4.442   3.329   6.184 -0.6187  0.3273 -0.5891
  142OSM   H12A15526   4.450   3.225   6.155 -1.1830  0.2250 -0.3871
  142OSM   H12B15527   4.341   3.350   6.216 -0.5077  0.6878 -0.4699
  142OSM    C1115528   4.551   3.343   6.295  0.9606 -0.0362 -0.1779
  142OSM   H11A15529   4.511   3.294   6.386 -3.5125  1.2873 -1.1804
  142OSM   H11B15530   4.557   3.452   6.317 -3.7021  0.2944  0.6309
  142OSM      P15531   4.796   3.299   6.361 -0.4032  0.0602  0.2577
  142OSM    O1315532   4.866   3.169   6.366  0.0385  0.3285  0.1669
  142OSM    O1415533   4.875   3.420   6.317  0.4675  0.2499 -0.6619
  142OSM    O1115534   4.727   3.332   6.501  0.1671  0.0194 -0.3425
  142OSM    O1215535   4.674   3.291   6.257  0.0077  0.2683  0.2721
  142OSM    C1S15536   4.802   3.286   6.617 -0.0217 -0.0720  0.1182
  142OSM    H1S15537   4.910   3.305   6.599  0.0229 -1.0316 -0.6951
  142OSM    H1T15538   4.786   3.179   6.642 -0.2555  0.1149  0.8054
  142OSM     NF15539   4.862   3.367   6.847 -0.0397 -0.1105  0.4392
  142OSM    HNF15540   4.857   3.311   6.929  1.6067 -0.4274  0.3730
  142OSM    C2S15541   4.754   3.364   6.746  0.4379  0.0124 -0.1538
  142OSM    H2S15542   4.735   3.467   6.710 -0.6001 -0.0181  0.2692
  142OSM    C3S15543   4.615   3.313   6.808  0.9368  0.5466  0.0210
  142OSM    H3S15544   4.635   3.214   6.854 -0.2662  1.8685  3.7741
  142OSM     O315545   4.511   3.295   6.712 -0.1810 -0.3460  0.3078
  142OSM    HO315546   4.553   3.325   6.631  1.6045 -1.4466  0.7726
  142OSM    C4S15547   4.567   3.398   6.922 -0.2248 -0.5616 -0.6020
  142OSM    H4S15548   4.611   3.357   7.014 -0.2061 -0.7017 -0.6728
  142OSM    C5S15549   4.467   3.489   6.922  0.1068  0.0218 -0.0211
  142OSM    H5S15550   4.429   3.526   6.826 -0.8131  1.9766  1.0332
  142OSM    C6S15551   4.406   3.567   7.036 -0.5682 -0.1296  0.5863
  142OSM    H6S15552   4.298   3.544   7.051 -0.4741 -0.1375  1.2874
  142OSM    H6T15553   4.409   3.675   7.014 -1.3134 -0.5838 -2.1046
  142OSM    C7S15554   4.476   3.552   7.176 -1.1432  0.4218  0.3980
  142OSM    H7S15555   4.585   3.527   7.178 -0.9841  1.0575 -0.0295
  142OSM    H7T15556   4.427   3.468   7.229 -0.2748  0.7692  1.8082
  142OSM    C8S15557   4.446   3.678   7.256  0.1775  0.0551  0.5700
  142OSM    H8S15558   4.336   3.685   7.267  0.0827 -1.7091  1.0899
  142OSM    H8T15559   4.485   3.758   7.190 -1.0903 -1.4380 -2.1435
  142OSM    C9S15560   4.504   3.698   7.401 -0.2095 -0.2539 -0.1309
  142OSM    H9S15561   4.612   3.683   7.380 -0.3278 -1.4205  0.0249
  142OSM    H9T15562   4.476   3.621   7.475 -0.5759  1.2767  1.3982
  142OSM   C10S15563   4.485   3.838   7.470  0.1878 -0.0707  0.3756
  142OSM   H10S15564   4.376   3.855   7.473 -0.1202 -1.8082  0.0530
  142OSM   H10T15565   4.536   3.922   7.418 -1.2829  1.6113  1.5718
  142OSM   C11S15566   4.548   3.850   7.617 -0.2926  0.7402  0.1120
  142OSM   H11S15567   4.539   3.953   7.658  0.3712  1.9999 -2.6927
  142OSM   H11T15568   4.657   3.832   7.616 -0.4503 -0.3516  0.6220
  142OSM   C12S15569   4.487   3.758   7.719  0.8599  0.4519 -1.0723
  142OSM   H12S15570   4.506   3.651   7.697  0.0201  0.4030 -1.5831
  142OSM   H12T15571   4.379   3.784   7.726  0.6650 -0.3574 -0.9731
  142OSM   C13S15572   4.541   3.793   7.859  0.3033  0.4021  0.3091
  142OSM   H13S15573   4.511   3.898   7.876 -0.8875 -0.0827  1.3150
  142OSM   H13T15574   4.651   3.776   7.871 -0.0662 -1.6070  1.4206
  142OSM   C14S15575   4.487   3.700   7.970 -0.6226 -0.8765 -0.6179
  142OSM   H14S15576   4.490   3.593   7.940  1.9352 -1.3651  1.0130
  142OSM   H14T15577   4.385   3.728   8.003  0.2496 -1.6359  3.2374
  142OSM   C15S15578   4.582   3.711   8.097  0.0676 -0.4411  0.1395
  142OSM   H15S15579   4.630   3.811   8.102  1.1365 -0.8571 -1.1067
  142OSM   H15T15580   4.669   3.648   8.066  1.7440  2.9727 -2.9102
  142OSM   C16S15581   4.523   3.656   8.228  0.2281 -0.3596 -0.0766
  142OSM   H16S15582   4.605   3.646   8.302  0.2293  0.5505  0.0604
  142OSM   H16T15583   4.485   3.557   8.196  1.2408 -0.7082 -0.2187
  142OSM   C17S15584   4.416   3.740   8.309 -0.1257 -0.7989 -0.7032
  142OSM   H17S15585   4.338   3.766   8.234  1.7232 -1.5345 -2.9830
  142OSM   H17T15586   4.466   3.833   8.343  0.8612 -1.2979 -0.7592
  142OSM   C18S15587   4.362   3.661   8.431 -0.6850 -0.1031  0.1789
  142OSM   H18S15588   4.443   3.643   8.504  0.7229  0.2271 -1.2515
  142OSM   H18T15589   4.340   3.556   8.402  2.2732 -0.7567  0.0458
  142OSM   H18U15590   4.281   3.728   8.468 -1.2037 -0.9155  0.5533
  142OSM    C1F15591   4.978   3.431   6.834  0.0836 -0.2786 -0.1767
  142OSM     OF15592   5.007   3.505   6.740  0.2440  0.5601  1.0597
  142OSM    C2F15593   5.073   3.416   6.945 -0.0346  0.0375  0.0127
  142OSM    H2F15594   5.173   3.425   6.897 -1.3534  1.4034 -2.6754
  142OSM    H2G15595   5.056   3.313   6.984 -0.3143 -0.2910 -0.9732
  142OSM    C3F15596   5.048   3.507   7.064 -0.1991 -0.0232  0.9985
  142OSM    H3F15597   4.941   3.498   7.093 -0.3579  0.4633  0.5734
  142OSM    H3G15598   5.056   3.607   7.016 -1.3357 -0.7426 -0.8260
  142OSM    C4F15599   5.140   3.490   7.178  0.2979  0.2096  0.3521
  142OSM    H4F15600   5.243   3.522   7.153  0.4260 -0.4186  0.0477
  142OSM    H4G15601   5.152   3.380   7.189 -0.0356  0.2178  0.8558
  142OSM    C5F15602   5.099   3.568   7.308 -0.3954  0.2667 -0.3271
  142OSM    H5F15603   4.995   3.531   7.318 -0.4903  0.2237 -1.3431
  142OSM    H5G15604   5.103   3.678   7.293 -0.5443  0.4912  1.1742
  142OSM    C6F15605   5.192   3.521   7.430  0.3969 -0.3547  1.1555
  142OSM    H6F15606   5.296   3.552   7.406  0.6079 -2.2755 -0.7447
  142OSM    H6G15607   5.190   3.411   7.448  0.3417 -0.7189 -0.8280
  142OSM    C7F15608   5.145   3.576   7.572 -0.0194 -0.4380 -0.3141
  142OSM    H7F15609   5.048   3.526   7.595 -0.1529 -0.2736 -0.5189
  142OSM    H7G15610   5.147   3.685   7.555 -1.4577 -0.5196 -1.2388
  142OSM    C8F15611   5.247   3.515   7.668 -0.1562  0.2113  0.4444
  142OSM    H8F15612   5.348   3.511   7.624  0.0138 -1.1486  0.9242
  142OSM    H8G15613   5.221   3.409   7.690  3.1415 -0.4643  1.5751
  142OSM    C9F15614   5.252   3.607   7.787  0.1398  0.2631  0.1497
  142OSM    H9F15615   5.273   3.712   7.763  0.4569 -0.3613 -2.7047
  142OSM   C10F15616   5.246   3.574   7.917  1.0117  0.0164 -0.0098
  142OSM   H10F15617   5.229   3.659   7.986 -0.6807  0.1701 -0.5702
  142OSM   C11F15618   5.232   3.446   7.974 -0.5620  0.6442 -0.1514
  142OSM   H11F15619   5.323   3.384   7.959  0.0939  1.0694  1.7282
  142OSM   H11G15620   5.147   3.404   7.916 -0.3574 -1.2729  0.8436
  142OSM   C12F15621   5.200   3.453   8.128 -0.1983  0.1812 -0.3638
  142OSM   H12F15622   5.274   3.521   8.175 -0.4626 -0.0496  0.4123
  142OSM   H12G15623   5.220   3.356   8.179  0.0151  0.9892  1.1433
  142OSM   C13F15624   5.051   3.489   8.160 -0.2750 -0.1269  0.0848
  142OSM   H13F15625   4.986   3.427   8.096 -1.2416  1.2263 -0.2748
  142OSM   H13G15626   5.051   3.593   8.121  1.4493 -0.0745  0.1131
  142OSM   C14F15627   5.012   3.477   8.301 -1.0643 -0.2853 -0.2080
  142OSM   H14F15628   5.082   3.515   8.378 -1.3088  1.2078 -0.7012
  142OSM   H14G15629   4.986   3.372   8.325 -1.6293 -0.0369  0.2686
  142OSM   C15F15630   4.897   3.568   8.327  0.2215 -0.2059  0.3840
  142OSM   H15F15631   4.815   3.539   8.258  2.1216 -1.2742 -1.5258
  142OSM   H15G15632   4.928   3.667   8.286 -0.5223  0.0402  0.3906
  142OSM   C16F15633   4.853   3.581   8.469 -0.1977  0.0225  0.8670
  142OSM   H16F15634   4.775   3.660   8.477 -2.6247 -1.7838 -2.3959
  142OSM   H16G15635   4.938   3.631   8.519  1.2791 -0.0769 -1.4041
  142OSM   C17F15636   4.807   3.456   8.544  0.3637  0.4657 -0.2013
  142OSM   H17F15637   4.805   3.484   8.651 -1.1861 -2.2525  0.5771
  142OSM   H17G15638   4.892   3.385   8.551  2.3915  2.5971 -1.4336
  142OSM   C18F15639   4.681   3.392   8.507 -0.1569  0.4003 -0.4225
  142OSM   H18F15640   4.677   3.374   8.398  0.8140  1.2205 -0.6033
  142OSM   H18G15641   4.601   3.462   8.538 -1.3335 -0.9919 -0.2259
  142OSM   H18H15642   4.671   3.290   8.552 -1.1125 -0.5622 -2.6551
  143OSM      N15643   6.535   5.533   5.946  0.0241 -0.6013 -0.3393
  143OSM    C1515644   6.582   5.617   6.068  0.0801 -0.3021  0.0255
  143OSM   H15A15645   6.662   5.685   6.043  0.4191 -0.5615  0.3788
  143OSM   H15B15646   6.631   5.542   6.128  0.3150 -0.3006 -0.1622
  143OSM   H15C15647   6.505   5.678   6.114  1.4028  0.2975  1.5462
  143OSM    C1415648   6.479   5.632   5.854 -0.3088  0.0049 -0.3800
  143OSM   H14A15649   6.547   5.714   5.841  0.5822 -0.7537 -0.6152
  143OSM   H14B15650   6.388   5.672   5.895 -0.1082 -1.0712  1.1957
  143OSM   H14C15651   6.465   5.593   5.754 -0.3500  0.2018 -0.4504
  143OSM    C1315652   6.653   5.465   5.880 -0.2682  0.3419  0.9850
  143OSM   H13A15653   6.711   5.410   5.953  0.4554 -1.0257 -0.5438
  143OSM   H13B15654   6.718   5.534   5.829 -0.9415  0.0213 -0.3535
  143OSM   H13C15655   6.621   5.398   5.801 -1.6365  2.1617 -0.0665
  143OSM    C1215656   6.430   5.423   5.979 -0.8018  0.3447 -1.2241
  143OSM   H12A15657   6.391   5.366   5.896 -0.3218 -0.1556 -1.1179
  143OSM   H12B15658   6.349   5.473   6.030  0.2352  0.9594 -0.1225
  143OSM    C1115659   6.470   5.299   6.072  0.5210 -0.0943  0.0319
  143OSM   H11A15660   6.379   5.243   6.101 -0.6940  2.7346  2.2522
  143OSM   H11B15661   6.508   5.351   6.162  1.3752  1.9049 -1.4045
  143OSM      P15662   6.686   5.152   6.102  0.3959  0.2074 -0.1456
  143OSM    O1315663   6.717   5.016   6.048 -0.4707  0.1972  0.6578
  143OSM    O1415664   6.805   5.243   6.097  1.1783 -0.4290  0.4149
  143OSM    O1115665   6.626   5.139   6.248  0.2507 -0.0302 -0.7346
  143OSM    O1215666   6.572   5.219   6.013  0.4411  0.0901 -0.4312
  143OSM    C1S15667   6.714   5.116   6.356 -0.2077  0.0258 -1.0388
  143OSM    H1S15668   6.778   5.206   6.366  2.3599 -1.5945 -1.9073
  143OSM    H1T15669   6.764   5.017   6.343 -2.9004 -1.3718 -1.4601
  143OSM     NF15670   6.728   5.043   6.592 -1.1207  0.4571  0.0929
  143OSM    HNF15671   6.751   4.946   6.594  0.3447  0.6550 -2.9367
  143OSM    C2S15672   6.639   5.087   6.489 -0.2798 -0.1283  0.1706
  143OSM    H2S15673   6.608   5.186   6.530  1.4855  0.3308  0.4929
  143OSM    C3S15674   6.522   4.996   6.472 -0.6762  0.0313 -0.9069
  143OSM    H3S15675   6.542   4.887   6.461 -2.4245 -0.7710  2.5227
  143OSM     O315676   6.437   5.019   6.369 -0.3883  0.0998 -0.7521
  143OSM    HO315677   6.477   5.093   6.322  1.9674  0.4534  1.5391
  143OSM    C4S15678   6.447   4.991   6.603 -0.5554 -0.6279 -0.0507
  143OSM    H4S15679   6.478   4.906   6.665 -0.7807 -0.5748  0.1387
  143OSM    C5S15680   6.351   5.075   6.642  0.8236  0.1599 -0.9401
  143OSM    H5S15681   6.306   5.151   6.576 -1.2813  0.2394  0.4662
  143OSM    C6S15682   6.284   5.043   6.775 -0.2758  0.2045 -0.5960
  143OSM    H6S15683   6.285   4.934   6.793  0.8190  0.3202  0.1636
  143OSM    H6T15684   6.174   5.062   6.773 -0.1842  0.8356 -0.0100
  143OSM    C7S15685   6.338   5.120   6.896  0.8071 -0.2184  0.1542
  143OSM    H7S15686   6.327   5.229   6.884  0.7569 -0.1037  1.0980
  143OSM    H7T15687   6.447   5.106   6.907  0.4396 -1.9851  2.6132
  143OSM    C8S15688   6.269   5.069   7.023 -0.1522 -0.4121 -0.0450
  143OSM    H8S15689   6.286   4.960   7.036  0.5897 -0.6328 -2.2794
  143OSM    H8T15690   6.160   5.083   7.003 -0.0929 -1.4951 -1.2832
  143OSM    C9S15691   6.338   5.123   7.143 -0.1630  0.6582 -0.8953
  143OSM    H9S15692   6.358   5.231   7.131 -0.3661  0.6618 -1.2205
  143OSM    H9T15693   6.441   5.085   7.159 -1.1952 -2.4687 -0.9466
  143OSM   C10S15694   6.262   5.087   7.273 -0.1950 -0.3051  0.4327
  143OSM   H10S15695   6.253   4.978   7.287 -0.7894 -0.1881  1.0064
  143OSM   H10T15696   6.158   5.126   7.272 -0.5294 -1.1186 -1.6697
  143OSM   C11S15697   6.337   5.140   7.401  0.6315  0.1850 -0.2657
  143OSM   H11S15698   6.346   5.251   7.392 -2.7121  0.6649  1.0646
  143OSM   H11T15699   6.441   5.100   7.401  0.1359 -1.1548  0.1240
  143OSM   C12S15700   6.275   5.101   7.538 -0.3480  0.1610 -0.0166
  143OSM   H12S15701   6.273   4.991   7.525  1.3717  0.3626 -2.8793
  143OSM   H12T15702   6.171   5.138   7.532 -0.9386 -1.0700  1.7969
  143OSM   C13S15703   6.364   5.145   7.660 -0.5341  0.5618  0.3132
  143OSM   H13S15704   6.392   5.253   7.659  0.7861  0.2518 -1.5637
  143OSM   H13T15705   6.463   5.096   7.652 -0.2174  1.3483 -0.9983
  143OSM   C14S15706   6.312   5.091   7.789  0.1509  0.4155 -0.0593
  143OSM   H14S15707   6.297   4.982   7.782  0.7323  0.3600 -0.4650
  143OSM   H14T15708   6.209   5.129   7.808 -0.3021 -0.0699 -1.4524
  143OSM   C15S15709   6.403   5.129   7.904  0.0849  0.3268 -0.6939
  143OSM   H15S15710   6.395   5.239   7.920 -0.4127 -0.1081  2.7082
  143OSM   H15T15711   6.511   5.118   7.879  0.6877 -0.5546  1.9318
  143OSM   C16S15712   6.374   5.060   8.038 -0.4243 -0.2244 -0.2722
  143OSM   H16S15713   6.395   4.951   8.030 -0.5915 -0.2528 -0.3242
  143OSM   H16T15714   6.267   5.083   8.058 -0.9832 -2.5459 -0.3191
  143OSM   C17S15715   6.456   5.123   8.156  0.0228 -0.7050  0.4431
  143OSM   H17S15716   6.425   5.230   8.162  1.0277 -0.1454 -2.5555
  143OSM   H17T15717   6.562   5.118   8.124  0.3794  0.0142  1.4494
  143OSM   C18S15718   6.444   5.060   8.297  0.0945  0.1702 -0.6936
  143OSM   H18S15719   6.340   5.035   8.327  0.2250 -1.2397 -1.3564
  143OSM   H18T15720   6.498   5.126   8.368  1.2532 -0.6100 -0.8175
  143OSM   H18U15721   6.501   4.965   8.289  2.0378  1.0900  1.0844
  143OSM    C1F15722   6.818   5.126   6.655 -0.4283  0.3698 -0.0815
  143OSM     OF15723   6.817   5.245   6.644 -0.0110 -0.9544  0.8189
  143OSM    C2F15724   6.919   5.051   6.732 -0.3298  0.2557 -0.3156
  143OSM    H2F15725   6.945   4.970   6.661 -0.2886 -0.7386  0.8123
  143OSM    H2G15726   6.868   5.000   6.817 -0.4410 -1.6622 -1.4727
  143OSM    C3F15727   7.041   5.130   6.776 -0.2359  0.6362  0.7854
  143OSM    H3F15728   7.013   5.205   6.853  0.4191  1.7441 -0.0281
  143OSM    H3G15729   7.079   5.177   6.683  2.2708 -1.0721  0.8519
  143OSM    C4F15730   7.146   5.035   6.831  0.4007 -0.9621 -0.0568
  143OSM    H4F15731   7.236   5.098   6.844 -1.5841  1.4010  4.1706
  143OSM    H4G15732   7.166   4.961   6.750  0.1123 -0.9099 -0.1798
  143OSM    C5F15733   7.104   4.966   6.965  0.2007  0.7144 -0.1781
  143OSM    H5F15734   7.164   4.873   6.974  1.5165  1.7217  2.6800
  143OSM    H5G15735   7.000   4.928   6.960 -0.2480  2.0079 -1.3046
  143OSM    C6F15736   7.121   5.044   7.099  0.0915  0.2711  0.1846
  143OSM    H6F15737   7.053   5.131   7.112  0.3245  0.8135 -1.9069
  143OSM    H6G15738   7.225   5.082   7.112 -0.1550  0.1599  3.2572
  143OSM    C7F15739   7.119   4.944   7.212 -0.3881  0.5010 -0.2953
  143OSM    H7F15740   7.214   4.889   7.226 -0.3221  1.2175  2.8114
  143OSM    H7G15741   7.047   4.863   7.188 -0.8129 -0.0263  2.4469
  143OSM    C8F15742   7.071   5.000   7.350  0.1706  0.1963  0.3813
  143OSM    H8F15743   7.074   4.906   7.410  4.4460  0.0536  0.2463
  143OSM    H8G15744   6.967   5.040   7.352  0.5520  1.4510 -1.8488
  143OSM    C9F15745   7.166   5.104   7.402  0.0084 -0.0075  0.0441
  143OSM    H9F15746   7.176   5.191   7.336  1.7228 -0.3022 -0.1460
  143OSM   C10F15747   7.235   5.099   7.521 -0.3837  1.0069 -0.1570
  143OSM   H10F15748   7.318   5.171   7.523  1.6782 -1.2025 -1.2651
  143OSM   C11F15749   7.228   5.004   7.632  0.0841  1.0164 -0.2036
  143OSM   H11F15750   7.318   4.941   7.643 -0.5122  0.2625  0.5725
  143OSM   H11G15751   7.138   4.939   7.624  0.4285 -0.1161  3.3927
  143OSM   C12F15752   7.212   5.081   7.765 -0.9406 -0.3007 -0.2615
  143OSM   H12F15753   7.115   5.135   7.767 -0.7645  0.0283 -0.5080
  143OSM   H12G15754   7.296   5.155   7.772 -2.2664  2.0098 -4.9250
  143OSM   C13F15755   7.196   4.970   7.873 -0.2890  0.6021 -0.1616
  143OSM   H13F15756   7.297   4.923   7.872 -0.0950  1.0316 -1.2546
  143OSM   H13G15757   7.120   4.895   7.841  0.0435  0.5201 -0.7710
  143OSM   C14F15758   7.164   5.021   8.017  0.3484  0.3443 -0.2855
  143OSM   H14F15759   7.166   4.929   8.080  0.6314  0.2959 -0.3603
  143OSM   H14G15760   7.063   5.066   8.017  0.8810  1.6117 -1.7580
  143OSM   C15F15761   7.274   5.113   8.072 -0.1195 -0.5944  0.3315
  143OSM   H15F15762   7.264   5.218   8.035  0.9456 -0.1519  1.2263
  143OSM   H15G15763   7.382   5.087   8.064  0.2112  0.8421 -0.3425
  143OSM   C16F15764   7.253   5.135   8.223  0.0935 -0.5260 -0.1597
  143OSM   H16F15765   7.270   5.036   8.272 -2.1056 -0.6905  0.3900
  143OSM   H16G15766   7.151   5.166   8.255 -1.3072 -3.7135 -1.0782
  143OSM   C17F15767   7.350   5.230   8.294 -0.0941  0.3993  0.1203
  143OSM   H17F15768   7.383   5.302   8.216 -0.0225  0.0986 -0.1333
  143OSM   H17G15769   7.448   5.189   8.328  0.5283  0.0115 -1.9828
  143OSM   C18F15770   7.290   5.293   8.418  0.1000  0.1007  0.0084
  143OSM   H18F15771   7.271   5.225   8.504  1.3122 -2.4351 -1.5920
  143OSM   H18G15772   7.192   5.341   8.398 -0.4833  1.4768  4.7313
  143OSM   H18H15773   7.359   5.369   8.460 -0.3464  0.6353 -0.2204
  144OSM      N15774   5.737   4.077   5.981 -0.2717  0.3499 -0.3217
  144OSM    C1515775   5.668   4.070   5.846 -0.0561  0.2271  0.4781
  144OSM   H15A15776   5.643   4.170   5.814  2.7344  0.6904 -0.5111
  144OSM   H15B15777   5.579   4.012   5.866 -1.4977  2.4886  1.0592
  144OSM   H15C15778   5.722   4.027   5.764 -1.1996  0.8363 -0.6275
  144OSM    C1415779   5.777   3.935   6.009 -0.9136 -0.1541 -0.8001
  144OSM   H14A15780   5.830   3.914   6.100  0.3976 -2.7780 -2.0428
  144OSM   H14B15781   5.844   3.916   5.926 -0.8313 -1.1271 -0.5248
  144OSM   H14C15782   5.687   3.875   6.008 -0.8324 -0.2797 -2.0284
  144OSM    C1315783   5.850   4.168   5.971 -0.1280 -0.0014 -0.0822
  144OSM   H13A15784   5.826   4.262   5.925 -0.3915  1.0797  2.1374
  144OSM   H13B15785   5.931   4.120   5.918  0.2203 -2.2724  2.2752
  144OSM   H13C15786   5.891   4.184   6.070 -1.3274 -0.4121  0.4953
  144OSM    C1215787   5.637   4.124   6.090  0.3821 -0.2575  0.0469
  144OSM   H12A15788   5.546   4.065   6.092  0.7254 -0.9311 -1.8445
  144OSM   H12B15789   5.621   4.227   6.065  2.2156 -0.1911 -1.0057
  144OSM    C1115790   5.701   4.128   6.230 -0.0343  0.9510  0.1739
  144OSM   H11A15791   5.738   4.026   6.253 -0.5685  0.6303 -0.3594
  144OSM   H11B15792   5.629   4.152   6.311 -0.3676  2.0877 -0.4330
  144OSM      P15793   5.793   4.374   6.253 -0.6667 -0.0947 -0.3931
  144OSM    O1315794   5.928   4.429   6.225 -0.2232  0.7089  0.5544
  144OSM    O1415795   5.689   4.435   6.170  0.1272  0.3312 -0.4030
  144OSM    O1115796   5.767   4.398   6.409 -0.2502 -0.1273 -0.3253
  144OSM    O1215797   5.805   4.223   6.236  0.5250  0.4887 -0.2373
  144OSM    C1S15798   5.850   4.323   6.499 -0.0716  0.4677  0.3036
  144OSM    H1S15799   5.956   4.349   6.482  0.5074  0.0371  2.9579
  144OSM    H1T15800   5.832   4.214   6.489 -1.7874  0.8807 -2.0206
  144OSM     NF15801   5.925   4.348   6.735  0.0517 -0.1294  0.5398
  144OSM    HNF15802   5.924   4.277   6.805  0.4770 -1.5922 -0.8628
  144OSM    C2S15803   5.812   4.370   6.647 -0.0987 -0.0132 -0.4605
  144OSM    H2S15804   5.798   4.480   6.637  1.0476  0.1952 -0.0123
  144OSM    C3S15805   5.681   4.301   6.683  0.3829 -0.2745  0.6572
  144OSM    H3S15806   5.710   4.194   6.688 -1.4392 -1.0610 -2.4911
  144OSM     O315807   5.580   4.312   6.582  0.7393  0.0528 -0.0207
  144OSM    HO315808   5.633   4.332   6.505  0.8514 -1.9160 -0.5182
  144OSM    C4S15809   5.630   4.347   6.819  0.6662  0.0747  0.6861
  144OSM    H4S15810   5.627   4.455   6.839  1.4076 -0.1379  2.0587
  144OSM    C5S15811   5.585   4.261   6.908  0.2678  0.7643 -0.0505
  144OSM    H5S15812   5.584   4.152   6.892  0.6396  0.8222 -0.4997
  144OSM    C6S15813   5.543   4.298   7.049  0.1021 -0.4253 -0.2511
  144OSM    H6S15814   5.603   4.239   7.121  2.0200 -0.7469 -2.0129
  144OSM    H6T15815   5.434   4.283   7.063  0.1539 -1.0024 -0.4517
  144OSM    C7S15816   5.563   4.444   7.098 -0.2306 -0.3187 -0.0560
  144OSM    H7S15817   5.523   4.526   7.034  0.9822  0.0767 -0.3318
  144OSM    H7T15818   5.671   4.467   7.112 -0.1665 -0.4571 -0.3061
  144OSM    C8S15819   5.492   4.464   7.235  0.5842  0.3396 -0.1735
  144OSM    H8S15820   5.542   4.390   7.301 -1.7715 -0.2491  1.0324
  144OSM    H8T15821   5.384   4.439   7.230  0.8000 -0.4425 -1.2667
  144OSM    C9S15822   5.527   4.598   7.302  0.0674 -0.6787 -0.1818
  144OSM    H9S15823   5.464   4.670   7.245  1.7708 -1.7950 -3.8238
  144OSM    H9T15824   5.630   4.639   7.293  0.1838 -1.1349 -1.0278
  144OSM   C10S15825   5.491   4.609   7.451  0.4271 -0.2693 -0.7939
  144OSM   H10S15826   5.381   4.602   7.467  0.5180 -1.5158 -0.6323
  144OSM   H10T15827   5.514   4.710   7.489 -1.2069  0.1004 -0.7211
  144OSM   C11S15828   5.563   4.505   7.535 -1.3315  0.3617  0.4210
  144OSM   H11S15829   5.673   4.525   7.537 -1.7574  4.2484 -2.9484
  144OSM   H11T15830   5.557   4.402   7.493  0.8774  0.6614 -0.7715
  144OSM   C12S15831   5.523   4.509   7.683 -0.7244 -0.5454  0.3089
  144OSM   H12S15832   5.413   4.523   7.696 -0.3533  2.1206  0.9956
  144OSM   H12T15833   5.566   4.607   7.713 -1.1866 -1.0410  2.8196
  144OSM   C13S15834   5.578   4.387   7.765 -0.5504 -0.3640 -0.7156
  144OSM   H13S15835   5.677   4.354   7.727  1.9515  1.5250  3.4363
  144OSM   H13T15836   5.513   4.297   7.758  1.1642 -1.6649 -0.7000
  144OSM   C14S15837   5.603   4.412   7.914 -0.0670 -0.4534  0.5328
  144OSM   H14S15838   5.620   4.310   7.954  1.1146 -1.4386 -2.1996
  144OSM   H14T15839   5.509   4.457   7.952  0.9468  0.4717  2.0984
  144OSM   C15S15840   5.712   4.521   7.941  0.1363 -0.4771  0.2580
  144OSM   H15S15841   5.687   4.613   7.884 -2.4347 -1.2789 -0.0736
  144OSM   H15T15842   5.810   4.490   7.899 -0.0717 -2.0650  0.8603
  144OSM   C16S15843   5.735   4.555   8.089 -0.3603  0.3936 -0.1099
  144OSM   H16S15844   5.840   4.588   8.101  0.0015 -1.0205  0.7347
  144OSM   H16T15845   5.727   4.457   8.140  2.1138 -0.3197 -0.9330
  144OSM   C17S15846   5.630   4.659   8.130  0.4253  0.2821  0.3019
  144OSM   H17S15847   5.534   4.621   8.089  0.9181 -1.8785  1.0096
  144OSM   H17T15848   5.661   4.745   8.067  3.6169 -0.4144  0.7053
  144OSM   C18S15849   5.616   4.688   8.280  0.0064  0.3533 -0.0728
  144OSM   H18S15850   5.548   4.773   8.299 -0.2871  0.2054 -0.4484
  144OSM   H18T15851   5.713   4.736   8.306 -0.2579  1.4527 -1.0517
  144OSM   H18U15852   5.593   4.603   8.348 -2.5283  0.3807 -0.8188
  144OSM    C1F15853   6.043   4.405   6.714  0.4245  0.3754  0.0822
  144OSM     OF15854   6.049   4.501   6.643  0.7049 -0.7922  0.6354
  144OSM    C2F15855   6.160   4.353   6.793  0.8084  0.4890 -0.3405
  144OSM    H2F15856   6.146   4.244   6.812 -0.8384  0.6040 -0.7869
  144OSM    H2G15857   6.169   4.415   6.885  2.2880 -3.0705  2.1647
  144OSM    C3F15858   6.295   4.347   6.708  0.2252  0.8361  0.0586
  144OSM    H3F15859   6.321   4.455   6.703  1.6002  0.5850  1.0643
  144OSM    H3G15860   6.273   4.300   6.610 -0.2893 -1.6962  1.2918
  144OSM    C4F15861   6.409   4.276   6.784  0.6148  0.9046  0.1272
  144OSM    H4F15862   6.502   4.306   6.732  1.2569  0.9054  1.2361
  144OSM    H4G15863   6.394   4.167   6.768  0.9662  0.6518  1.4057
  144OSM    C5F15864   6.421   4.315   6.932  0.2859 -0.1399 -0.3977
  144OSM    H5F15865   6.345   4.278   7.004 -0.5646  1.6578 -0.3378
  144OSM    H5G15866   6.409   4.425   6.941 -2.8266 -0.3467 -0.9745
  144OSM    C6F15867   6.563   4.279   6.986 -0.5602 -0.0336 -0.5375
  144OSM    H6F15868   6.641   4.332   6.928  3.2764 -1.5981  2.7443
  144OSM    H6G15869   6.571   4.172   6.958 -1.3205  0.5488 -3.2628
  144OSM    C7F15870   6.587   4.302   7.136  0.1270 -0.1386 -0.4807
  144OSM    H7F15871   6.593   4.407   7.174 -1.0259 -0.6343  1.2149
  144OSM    H7G15872   6.685   4.257   7.161 -1.3025 -2.4261  1.4042
  144OSM    C8F15873   6.485   4.229   7.225 -0.1598  0.4579 -0.8208
  144OSM    H8F15874   6.533   4.167   7.303  0.7571  3.2376  0.9739
  144OSM    H8G15875   6.445   4.147   7.162  3.0699 -0.5059 -1.7960
  144OSM    C9F15876   6.362   4.302   7.272  0.0154  0.2805 -0.2285
  144OSM    H9F15877   6.315   4.359   7.191 -2.7429 -1.1833  0.2172
  144OSM   C10F15878   6.305   4.316   7.389  0.6417  0.2228 -0.2273
  144OSM   H10F15879   6.214   4.377   7.402  0.1823  0.0636 -2.4010
  144OSM   C11F15880   6.353   4.257   7.518 -0.0964 -0.0251 -0.3235
  144OSM   H11F15881   6.403   4.160   7.501  0.6012  0.3961 -0.7046
  144OSM   H11G15882   6.270   4.235   7.588  1.0490 -0.7078  0.8437
  144OSM   C12F15883   6.448   4.348   7.591 -0.1029 -0.4745  0.0760
  144OSM   H12F15884   6.395   4.444   7.613  1.6721  1.2823 -2.7658
  144OSM   H12G15885   6.531   4.375   7.523 -0.8499  2.9299  0.2953
  144OSM   C13F15886   6.509   4.289   7.708  0.1061 -0.0634  1.0073
  144OSM   H13F15887   6.570   4.364   7.764 -0.1023  1.1782 -0.3962
  144OSM   H13G15888   6.571   4.211   7.659  1.6932  2.3716 -1.1172
  144OSM   C14F15889   6.402   4.234   7.810  0.4438 -0.0369  0.4114
  144OSM   H14F15890   6.349   4.149   7.763 -0.1926  0.2743  0.5597
  144OSM   H14G15891   6.327   4.311   7.837  0.1548 -0.5021  0.9546
  144OSM   C15F15892   6.471   4.205   7.938  0.5048  0.5887 -0.5475
  144OSM   H15F15893   6.508   4.302   7.978  2.6611 -0.7695  0.9473
  144OSM   H15G15894   6.559   4.142   7.914  1.2799  1.3085  0.3426
  144OSM   C16F15895   6.372   4.150   8.036  0.2596  0.1906 -0.1298
  144OSM   H16F15896   6.340   4.048   8.008  2.1183 -0.7833  1.1250
  144OSM   H16G15897   6.276   4.207   8.045 -0.2405 -0.4947 -0.9814
  144OSM   C17F15898   6.431   4.152   8.179  0.4122  0.2367  0.3613
  144OSM   H17F15899   6.462   4.257   8.192  1.4115  0.0603 -0.4668
  144OSM   H17G15900   6.522   4.090   8.189 -0.0386 -0.2545  1.6310
  144OSM   C18F15901   6.338   4.101   8.282 -0.0497  0.2129 -0.3259
  144OSM   H18F15902   6.311   3.994   8.272  0.5873  0.0190 -0.0251
  144OSM   H18G15903   6.244   4.161   8.282 -1.0782 -1.3197 -1.4313
  144OSM   H18H15904   6.388   4.118   8.380 -1.3382 -0.0251  0.3981
  145SAPE     N15905   4.952   1.234  10.861 -0.0180  0.6758 -0.4952
  145SAPE   HN115906   5.052   1.205  10.857 -0.0569  0.6170 -1.2924
  145SAPE   HN215907   4.928   1.299  10.938  0.3668  0.8956 -0.5575
  145SAPE   HN315908   4.896   1.149  10.885 -0.4344  1.2342  0.5551
  145SAPE   C1215909   4.895   1.296  10.734 -0.7088  0.8949  0.6116
  145SAPE  H12A15910   4.973   1.358  10.685  0.3604 -1.4805 -0.8717
  145SAPE  H12B15911   4.802   1.352  10.757 -1.4329  1.0117 -2.2479
  145SAPE   C1115912   4.864   1.191  10.625 -0.7752 -0.4118  0.2398
  145SAPE  H11A15913   4.820   1.243  10.537 -0.7808  0.5226  0.7844
  145SAPE  H11B15914   4.795   1.118  10.672 -1.1693 -1.4618 -1.8224
  145SAPE     P15915   5.005   0.979  10.583 -0.4250  0.2117 -0.2168
  145SAPE   O1315916   5.138   0.938  10.622 -0.0305  0.1844 -0.1388
  145SAPE   O1415917   4.891   0.916  10.659  0.1547  0.3397  0.5736
  145SAPE   O1215918   4.988   1.141  10.586  0.0124  0.3212  0.4465
  145SAPE   O1115919   5.000   0.921  10.434 -0.0782 -0.1541 -0.0829
  145SAPE    C115920   5.042   1.006  10.320 -0.4552 -0.0895 -0.1281
  145SAPE    HA15921   4.982   0.982  10.229 -0.6187  0.7797 -0.2524
  145SAPE    HB15922   5.027   1.114  10.340 -0.0787  0.1171 -0.8946
  145SAPE    C215923   5.192   0.978  10.275  0.3730  0.2868  0.7161
  145SAPE    HS15924   5.254   1.002  10.364 -0.8020 -0.5432  1.7971
  145SAPE   O2115925   5.226   1.077  10.171 -0.3213 -0.3710  0.3661
  145SAPE   C2115926   5.349   1.061  10.116  0.5755 -0.4022 -0.9476
  145SAPE   O2215927   5.450   1.016  10.171  0.6531  0.3455 -0.2403
  145SAPE   C2215928   5.344   1.102   9.973  0.3920 -0.3731 -0.4268
  145SAPE   H2R15929   5.239   1.122   9.940  0.6157 -1.8971 -2.2684
  145SAPE   H2S15930   5.391   1.202   9.962  0.1356  0.0001  1.5192
  145SAPE    C315931   5.214   0.827  10.250 -0.4363 -0.6110  0.2020
  145SAPE    HX15932   5.196   0.778  10.348  1.1608  1.6730  1.7407
  145SAPE    HY15933   5.321   0.806  10.228  0.1131  0.2047  1.9523
  145SAPE   O3115934   5.118   0.780  10.155 -0.0719 -0.0015 -0.2883
  145SAPE   C3115935   5.125   0.648  10.130  0.3363  0.9821 -0.7243
  145SAPE   O3215936   5.215   0.577  10.175  0.5877  0.2041 -0.8515
  145SAPE   C3215937   5.011   0.587  10.057  0.2444  0.1945 -0.1760
  145SAPE   H2X15938   4.923   0.616  10.119  0.7334 -1.5229  1.4244
  145SAPE   H2Y15939   5.024   0.478  10.074 -1.8382 -0.1934 -0.7001
  145SAPE   C2315940   5.410   0.997   9.882 -0.4117  0.0816  0.1753
  145SAPE   H3R15941   5.511   0.966   9.919 -0.8743 -0.4470  1.0327
  145SAPE   H3S15942   5.423   1.042   9.781 -0.8022  0.0453  0.1084
  145SAPE   C2415943   5.333   0.867   9.876  0.1951  0.0687  0.0611
  145SAPE   H4R15944   5.323   0.826   9.979  1.4538  0.0306  0.1845
  145SAPE   H4S15945   5.392   0.786   9.829  0.1122  0.0576 -0.0237
  145SAPE   C2515946   5.200   0.899   9.800 -0.0543  0.1285 -0.4010
  145SAPE   H5R15947   5.110   0.899   9.864  0.5049  1.5769  0.4261
  145SAPE   C2615948   5.178   0.899   9.667 -0.2472  0.0183 -0.7278
  145SAPE   H6R15949   5.076   0.906   9.627 -0.5783  1.6778  0.3293
  145SAPE   C2715950   5.288   0.879   9.567  0.2885  0.0281  0.4784
  145SAPE   H7R15951   5.288   0.781   9.516 -0.3843 -1.6603  3.4478
  145SAPE   H7S15952   5.389   0.878   9.614  0.2789 -1.2171  0.5056
  145SAPE   C2815953   5.272   0.999   9.471 -0.0997 -0.4226 -0.2879
  145SAPE   H8R15954   5.294   1.102   9.504 -1.9080  1.0599 -3.3196
  145SAPE   C2915955   5.229   1.000   9.339 -0.7790  0.0039 -0.2308
  145SAPE   H9R15956   5.218   1.097   9.289  0.2265  0.4924  0.4681
  145SAPE  C21015957   5.199   0.886   9.250  1.1687 -0.7306 -0.9177
  145SAPE  H10R15958   5.088   0.879   9.250  1.1965 -2.1014  1.4043
  145SAPE  H10S15959   5.223   0.789   9.299  1.1715 -0.5090 -0.4826
  145SAPE  C21115960   5.256   0.898   9.109  0.1579 -0.2372  0.2474
  145SAPE  H11R15961   5.211   0.976   9.047  2.0030  0.9814  0.3724
  145SAPE  C21215962   5.343   0.805   9.070  0.0683  0.6342  0.7972
  145SAPE  H12R15963   5.370   0.808   8.963  2.5168 -0.7202  1.2899
  145SAPE  C21315964   5.408   0.690   9.144 -0.4260  0.0140 -0.5596
  145SAPE  H13R15965   5.436   0.721   9.247 -1.7538 -0.3496 -0.0674
  145SAPE  H13S15966   5.504   0.667   9.094 -0.3905  0.9659 -0.9493
  145SAPE  C21415967   5.331   0.557   9.152 -0.9835 -0.3636  0.7812
  145SAPE  H14R15968   5.249   0.539   9.080  0.2845 -0.1765 -0.7735
  145SAPE  C21515969   5.369   0.453   9.229  0.3711 -0.0791 -0.6774
  145SAPE  H15R15970   5.305   0.365   9.212  1.1272 -0.8478  0.3601
  145SAPE  C21615971   5.485   0.451   9.336  0.1384 -0.2402  0.3677
  145SAPE  H16R15972   5.543   0.545   9.330 -0.9077  0.4257  0.2816
  145SAPE  H16S15973   5.554   0.368   9.314  0.3802  0.0641 -0.0234
  145SAPE  C21715974   5.431   0.441   9.481  0.5108 -0.2310  0.5277
  145SAPE  H17R15975   5.382   0.345   9.507 -2.3006  1.2474  0.9949
  145SAPE  H17S15976   5.349   0.516   9.482  1.9517  1.4840 -0.8857
  145SAPE  C21815977   5.535   0.454   9.594 -0.3587  0.0140 -0.5928
  145SAPE  H18R15978   5.597   0.546   9.592 -1.4878  0.8262  0.2899
  145SAPE  H18S15979   5.601   0.366   9.577 -1.2228 -0.7348 -0.1700
  145SAPE  C21915980   5.470   0.448   9.735 -0.1406  0.4913  0.1057
  145SAPE  H19R15981   5.438   0.341   9.738 -1.0260  0.6601 -1.6880
  145SAPE  H19S15982   5.390   0.524   9.728  0.3445  1.1827  1.6641
  145SAPE  C22015983   5.564   0.482   9.849  0.5752 -0.0595  0.2338
  145SAPE  H20R15984   5.610   0.583   9.843  2.1427 -0.7962 -0.7949
  145SAPE  H20S15985   5.649   0.412   9.858  1.8372  1.2357 -0.9747
  145SAPE  H20T15986   5.504   0.476   9.942  0.2845 -0.5814  0.0209
  145SAPE   C3315987   5.005   0.629   9.911  0.4179  0.1781  0.3229
  145SAPE   H3X15988   5.103   0.604   9.865 -0.1869  0.5852 -1.2468
  145SAPE   H3Y15989   4.991   0.739   9.917  0.5711  0.3427 -1.6756
  145SAPE   C3415990   4.887   0.561   9.841  0.2934 -0.3952 -0.5126
  145SAPE   H4X15991   4.801   0.621   9.876  0.0143 -0.1092 -1.6509
  145SAPE   H4Y15992   4.885   0.455   9.876 -0.3702  0.0395  0.8655
  145SAPE   C3515993   4.893   0.555   9.687 -0.4540 -0.5031 -0.2595
  145SAPE   H5X15994   4.859   0.652   9.643 -0.0113 -0.9418 -1.6257
  145SAPE   H5Y15995   4.806   0.488   9.669 -0.6759 -1.3983  3.3704
  145SAPE   C3615996   5.024   0.515   9.623  0.0482  0.1089  0.6060
  145SAPE   H6X15997   5.079   0.437   9.679  1.0034  1.2462  1.3196
  145SAPE   H6Y15998   5.088   0.605   9.638 -0.2157  0.0963  1.9262
  145SAPE   C3715999   5.020   0.494   9.473 -0.3032 -0.0587  0.3492
  145SAPE   H7X16000   4.981   0.392   9.457 -1.3623  0.1269  1.5223
  145SAPE   H7Y16001   5.123   0.498   9.433 -0.0153 -0.9954  0.9686
  145SAPE   C3816002   4.933   0.586   9.388 -0.7593 -0.2885 -0.6440
  145SAPE   H8X16003   4.957   0.691   9.418 -0.1010  0.1880 -2.6826
  145SAPE   H8Y16004   4.828   0.558   9.410 -1.2700  0.8336 -1.5902
  145SAPE   C3916005   4.968   0.581   9.237  0.3967  0.4978  0.8644
  145SAPE   H9X16006   4.973   0.473   9.209 -1.4124  0.6565 -0.2304
  145SAPE   H9Y16007   5.068   0.626   9.221  0.7693 -0.7896 -0.7242
  145SAPE  C31016008   4.872   0.667   9.155 -1.0740 -0.6041 -0.3294
  145SAPE  H10X16009   4.893   0.767   9.197  1.0568 -1.5259  0.9598
  145SAPE  H10Y16010   4.765   0.638   9.170 -1.8883  2.3354  0.1621
  145SAPE  C31116011   4.902   0.644   9.003  0.2353  0.1822  0.3300
  145SAPE  H11X16012   4.897   0.536   8.980  0.7047  0.4412 -1.1330
  145SAPE  H11Y16013   5.006   0.681   8.991  1.0371 -2.0762 -0.0171
  145SAPE  C31216014   4.801   0.723   8.928  0.6853  0.0726  0.4635
  145SAPE  H12X16015   4.767   0.814   8.981 -0.2132  2.2513 -3.4666
  145SAPE  H12Y16016   4.701   0.675   8.921 -0.5354  2.6451 -2.1173
  145SAPE  C31316017   4.844   0.777   8.789  0.2525  0.2080  0.1962
  145SAPE  H13X16018   4.769   0.777   8.708 -1.4993  0.2882  1.7581
  145SAPE  H13Y16019   4.920   0.701   8.759 -0.4988 -0.1896 -0.7569
  145SAPE  C31416020   4.922   0.907   8.794  0.5627  0.1446  0.4661
  145SAPE  H14X16021   5.001   0.886   8.869  0.4631 -2.0361  0.0176
  145SAPE  H14Y16022   4.851   0.987   8.823  0.7558  0.1315  0.9972
  145SAPE  C31516023   5.005   0.944   8.670  0.7205 -1.3944  0.0179
  145SAPE  H15X16024   5.059   0.857   8.627 -0.9077 -1.5214 -1.9129
  145SAPE  H15Y16025   5.079   1.024   8.693 -1.4502  0.4785  0.8446
  145SAPE  C31616026   4.922   1.001   8.552  0.0824  0.0238  0.0983
  145SAPE  H16X16027   4.854   1.083   8.585 -0.7104 -0.8603  0.7367
  145SAPE  H16Y16028   4.842   0.929   8.524 -0.6436  0.4674  0.9566
  145SAPE  C31716029   5.005   1.045   8.432 -0.1828 -0.4180  0.4716
  145SAPE  H17X16030   4.933   1.094   8.363 -0.1166 -0.2695  0.5080
  145SAPE  H17Y16031   5.042   0.954   8.382  0.2420  0.1444 -0.2622
  145SAPE  C31816032   5.115   1.138   8.462 -0.0566 -1.0629 -0.5789
  145SAPE  H18X16033   5.145   1.182   8.364 -0.9360 -1.3636 -0.9923
  145SAPE  H18Y16034   5.210   1.091   8.495  0.8813  0.2955 -1.2566
  145SAPE  H18Z16035   5.091   1.212   8.541  0.8560  0.0753 -1.3355
  146SAPE     N16036   3.373   2.383  10.769 -0.4741  0.2581  0.3302
  146SAPE   HN116037   3.407   2.413  10.675  0.3237  0.7942  0.7786
  146SAPE   HN216038   3.291   2.432  10.810  0.1742  0.4554  1.4343
  146SAPE   HN316039   3.464   2.400  10.816  0.6957 -1.0742 -1.3533
  146SAPE   C1216040   3.347   2.235  10.800 -0.9005  0.3825 -0.0264
  146SAPE  H12A16041   3.261   2.194  10.743 -0.8035 -3.5117  2.2343
  146SAPE  H12B16042   3.334   2.227  10.910  0.6575  3.1923  0.4534
  146SAPE   C1116043   3.459   2.144  10.758  0.0987  0.7219  0.8446
  146SAPE  H11A16044   3.467   2.151  10.648  1.4080  1.2140  0.9458
  146SAPE  H11B16045   3.432   2.041  10.789  1.0465 -0.3174 -1.5250
  146SAPE     P16046   3.713   2.096  10.800 -0.1128  0.0599 -0.1069
  146SAPE   O1316047   3.807   2.114  10.913  0.4529 -0.5667  0.1888
  146SAPE   O1416048   3.681   1.955  10.775  0.0802 -0.2893 -0.0022
  146SAPE   O1216049   3.573   2.181  10.830  0.3469 -0.6163 -0.3104
  146SAPE   O1116050   3.778   2.151  10.663 -0.3157  0.2557 -0.2072
  146SAPE    C116051   3.791   2.294  10.662  0.4025  0.2118  0.4903
  146SAPE    HA16052   3.689   2.336  10.646  1.1458  2.8051  2.0436
  146SAPE    HB16053   3.813   2.336  10.763 -2.0801 -0.7431  1.5081
  146SAPE    C216054   3.868   2.340  10.547 -0.4953 -0.5628  0.2579
  146SAPE    HS16055   3.840   2.445  10.524  0.2762 -0.0864  1.4092
  146SAPE   O2116056   3.857   2.255  10.433 -0.1292  0.1191 -0.5062
  146SAPE   C2116057   3.742   2.246  10.376  0.2019 -0.3337  0.2138
  146SAPE   O2216058   3.636   2.285  10.427  0.4979 -0.1208  0.0907
  146SAPE   C2216059   3.746   2.184  10.236  0.8497 -0.2015 -0.6326
  146SAPE   H2R16060   3.845   2.134  10.227  0.9215 -0.5256  1.4031
  146SAPE   H2S16061   3.671   2.102  10.244  2.5600 -1.8281 -0.5695
  146SAPE    C316062   4.020   2.345  10.564  0.5571  0.0602  0.4109
  146SAPE    HX16063   4.036   2.241  10.600  0.8879 -0.7689 -1.9850
  146SAPE    HY16064   4.044   2.411  10.650 -0.5401  1.5253 -0.3417
  146SAPE   O3116065   4.091   2.383  10.438 -0.0536  0.1647  0.1109
  146SAPE   C3116066   4.218   2.350  10.440  0.0999 -0.0551 -0.4367
  146SAPE   O3216067   4.284   2.308  10.533  0.6647 -0.0379  0.0465
  146SAPE   C3216068   4.279   2.382  10.302  0.9207  0.2346 -0.1612
  146SAPE   H2X16069   4.386   2.354  10.309  1.1913  0.6129 -2.0473
  146SAPE   H2Y16070   4.275   2.493  10.288  1.2685  0.1734 -0.8155
  146SAPE   C2316071   3.714   2.296  10.129 -1.2555 -0.0718  0.3658
  146SAPE   H3R16072   3.754   2.389  10.174  3.0649 -1.1430 -0.8007
  146SAPE   H3S16073   3.603   2.300  10.129 -1.2404  0.9518  1.5090
  146SAPE   C2416074   3.778   2.267   9.989 -0.3441  0.7229 -0.2411
  146SAPE   H4R16075   3.875   2.216  10.010  0.0171  1.7425  0.6922
  146SAPE   H4S16076   3.800   2.360   9.933  1.0073  1.0455  0.7426
  146SAPE   C2516077   3.701   2.161   9.916  0.3028 -0.4564  0.1849
  146SAPE   H5R16078   3.626   2.103   9.972 -1.9965  0.9659 -1.2580
  146SAPE   C2616079   3.715   2.139   9.784  0.2026 -0.4659 -0.6903
  146SAPE   H6R16080   3.648   2.065   9.738 -1.0198 -0.0331  0.3251
  146SAPE   C2716081   3.796   2.216   9.683 -0.9724 -0.2483  0.9264
  146SAPE   H7R16082   3.843   2.305   9.730 -0.6602 -0.6291  1.3475
  146SAPE   H7S16083   3.735   2.257   9.600  0.8873  0.3343 -0.2271
  146SAPE   C2816084   3.910   2.129   9.627  0.1091 -0.4559  0.0866
  146SAPE   H8R16085   3.993   2.101   9.694  0.3847  0.2224  0.0310
  146SAPE   C2916086   3.944   2.119   9.501 -0.8087  0.2810  0.4634
  146SAPE   H9R16087   4.016   2.040   9.477 -3.6089 -1.5002 -3.0777
  146SAPE  C21016088   3.873   2.170   9.375 -0.0257  0.2798 -0.9347
  146SAPE  H10R16089   3.894   2.279   9.368 -0.0363  0.5400  1.9096
  146SAPE  H10S16090   3.765   2.175   9.398  0.4299 -1.4777  2.1182
  146SAPE  C21116091   3.905   2.086   9.251 -0.2658  0.5045 -0.5083
  146SAPE  H11R16092   4.013   2.065   9.245  0.3124  2.2907  1.8473
  146SAPE  C21216093   3.815   2.068   9.154  0.0085  0.6643  0.3028
  146SAPE  H12R16094   3.839   1.997   9.074  0.2212  2.9101 -1.7567
  146SAPE  C21316095   3.675   2.128   9.156  0.0902 -0.3950  0.4522
  146SAPE  H13R16096   3.688   2.238   9.157 -3.4386  0.1108  1.0938
  146SAPE  H13S16097   3.628   2.100   9.252  2.1400 -0.9471  1.3532
  146SAPE  C21416098   3.582   2.085   9.042  1.0353  0.9134 -0.4653
  146SAPE  H14R16099   3.520   2.000   9.073  1.0150 -0.6179 -4.2083
  146SAPE  C21516100   3.583   2.126   8.915  0.3609  0.1243 -0.3409
  146SAPE  H15R16101   3.499   2.094   8.852  1.0285 -4.3253  0.6838
  146SAPE  C21616102   3.667   2.246   8.865  0.4898 -0.8614  0.2900
  146SAPE  H16R16103   3.751   2.278   8.930  0.4839  1.0078 -0.5581
  146SAPE  H16S16104   3.600   2.333   8.845 -0.3756 -1.6332 -0.2791
  146SAPE  C21716105   3.716   2.215   8.716 -0.2428  0.7646 -0.8333
  146SAPE  H17R16106   3.639   2.180   8.644 -0.5128  0.1707 -0.2681
  146SAPE  H17S16107   3.785   2.131   8.740 -2.5134 -0.7975  0.6272
  146SAPE  C21816108   3.804   2.321   8.661  0.5625 -0.2178 -0.5288
  146SAPE  H18R16109   3.895   2.343   8.722  2.5025 -3.5523 -1.9284
  146SAPE  H18S16110   3.754   2.417   8.640  1.9828  0.2411 -2.0143
  146SAPE  C21916111   3.876   2.299   8.529  0.4879  0.2648  0.1903
  146SAPE  H19R16112   3.821   2.350   8.446 -0.9376 -0.6468  0.5504
  146SAPE  H19S16113   3.871   2.190   8.511 -0.1537  0.7334 -3.2861
  146SAPE  C22016114   4.023   2.334   8.525 -0.0895 -0.1160  0.3913
  146SAPE  H20R16115   4.045   2.417   8.596  0.9918 -0.3746  0.3807
  146SAPE  H20S16116   4.077   2.357   8.431  2.9225 -1.9987  1.4833
  146SAPE  H20T16117   4.089   2.249   8.553  1.0066 -0.1623 -2.1018
  146SAPE   C3316118   4.197   2.306  10.191  0.2952 -0.0662  0.4384
  146SAPE   H3X16119   4.181   2.381  10.111  0.7872 -0.5328 -0.1027
  146SAPE   H3Y16120   4.093   2.274  10.213 -0.3632  2.1797  0.8266
  146SAPE   C3416121   4.264   2.180  10.121 -0.1852 -0.6561 -0.1012
  146SAPE   H4X16122   4.188   2.140  10.051 -2.1183  0.6693  1.1075
  146SAPE   H4Y16123   4.277   2.102  10.199  2.6616  0.0262  0.2140
  146SAPE   C3516124   4.392   2.213  10.036 -0.5206 -0.0265  0.1195
  146SAPE   H5X16125   4.445   2.122  10.001  0.9110  0.7187  0.2840
  146SAPE   H5Y16126   4.454   2.283  10.096  1.4349 -0.8327 -0.8705
  146SAPE   C3616127   4.374   2.294   9.896  0.2654 -0.8018 -0.5269
  146SAPE   H6X16128   4.310   2.382   9.920  1.9737 -0.1075  1.8783
  146SAPE   H6Y16129   4.331   2.229   9.817 -2.2025 -2.1549  1.7421
  146SAPE   C3716130   4.515   2.331   9.854 -0.2400 -0.1989  0.3544
  146SAPE   H7X16131   4.574   2.345   9.948  0.9293  2.3753 -0.6722
  146SAPE   H7Y16132   4.503   2.431   9.807  1.4916  0.0069  0.2742
  146SAPE   C3816133   4.577   2.229   9.758 -0.1693  0.1798  0.0509
  146SAPE   H8X16134   4.577   2.129   9.806 -1.0855  0.3276  0.3869
  146SAPE   H8Y16135   4.681   2.262   9.738 -0.2411  1.2654  1.3403
  146SAPE   C3916136   4.505   2.220   9.623  0.2901  0.2316  0.3527
  146SAPE   H9X16137   4.537   2.318   9.582 -1.5023  1.8546  2.5001
  146SAPE   H9Y16138   4.394   2.216   9.618  0.2939 -0.9241  0.8695
  146SAPE  C31016139   4.580   2.116   9.529 -0.0153 -0.8795 -0.5757
  146SAPE  H10X16140   4.557   2.011   9.557  2.6325 -0.9823  1.5793
  146SAPE  H10Y16141   4.687   2.126   9.557  0.1103 -0.5246 -1.1647
  146SAPE  C31116142   4.568   2.158   9.381  0.2938 -0.3121 -0.2762
  146SAPE  H11X16143   4.623   2.077   9.328  2.9053  0.8824  0.4547
  146SAPE  H11Y16144   4.610   2.256   9.349  1.6633  0.1296  2.5121
  146SAPE  C31216145   4.427   2.131   9.328 -0.1687  0.0572  0.9735
  146SAPE  H12X16146   4.367   2.224   9.335 -0.7664 -0.3837  1.8747
  146SAPE  H12Y16147   4.378   2.049   9.386 -0.2752 -0.4210  0.2233
  146SAPE  C31316148   4.435   2.078   9.183  0.1209 -0.0751  0.4776
  146SAPE  H13X16149   4.486   1.979   9.186 -1.1470 -0.8366 -1.4116
  146SAPE  H13Y16150   4.491   2.153   9.124 -1.1868  2.2961  2.0809
  146SAPE  C31416151   4.295   2.050   9.120  0.8058 -0.4763 -0.5609
  146SAPE  H14X16152   4.234   2.143   9.126 -1.1627 -1.6356 -1.6251
  146SAPE  H14Y16153   4.249   1.969   9.180 -0.7521  2.7661  3.0682
  146SAPE  C31516154   4.308   2.019   8.972 -0.8220  0.1912 -0.1441
  146SAPE  H15X16155   4.373   1.931   8.953 -0.8300 -0.2303  1.6354
  146SAPE  H15Y16156   4.362   2.103   8.924  0.8696  0.5760  2.2565
  146SAPE  C31616157   4.168   1.998   8.918 -0.1275 -0.2671 -0.0042
  146SAPE  H16X16158   4.104   2.086   8.942 -0.5011 -0.2679 -0.9439
  146SAPE  H16Y16159   4.136   1.906   8.972 -1.1765  0.6679  1.0458
  146SAPE  C31716160   4.170   1.971   8.773  0.1996  0.6059  0.3677
  146SAPE  H17X16161   4.254   1.902   8.750 -1.1710 -2.0773  2.8215
  146SAPE  H17Y16162   4.198   2.061   8.714  0.4341  0.4427  0.2248
  146SAPE  C31816163   4.035   1.915   8.722 -0.0506 -0.2456  0.4307
  146SAPE  H18X16164   4.026   1.811   8.759 -2.1822  0.6051  2.5128
  146SAPE  H18Y16165   4.034   1.925   8.611  1.3011 -0.2675  0.3978
  146SAPE  H18Z16166   3.957   1.984   8.761 -0.1865  0.7621 -1.4910
  147SAPE     N16167   4.920   3.260  11.228  0.2215 -0.5894 -0.0648
  147SAPE   HN116168   4.861   3.318  11.290 -0.5080 -2.0660  0.6799
  147SAPE   HN216169   4.912   3.166  11.273  1.3253 -0.9958 -0.6724
  147SAPE   HN316170   5.017   3.294  11.243 -0.2400  1.3308 -1.1574
  147SAPE   C1216171   4.897   3.279  11.081 -0.4419  0.0487  0.3952
  147SAPE  H12A16172   4.857   3.379  11.054  0.5450  0.4940  0.5105
  147SAPE  H12B16173   4.818   3.212  11.043 -0.8593  0.6711  0.1363
  147SAPE   C1116174   5.026   3.265  10.995 -0.2475 -0.5521  0.3295
  147SAPE  H11A16175   5.004   3.304  10.893 -0.1547 -2.7718 -0.6061
  147SAPE  H11B16176   5.053   3.158  10.984  0.6115 -0.0867 -4.1217
  147SAPE     P16177   5.223   3.448  10.990  0.0066  0.2560  0.6611
  147SAPE   O1316178   5.237   3.566  11.070  0.3097 -0.7587  0.3350
  147SAPE   O1416179   5.350   3.385  10.950 -0.1877  0.0418 -0.4305
  147SAPE   O1216180   5.131   3.344  11.056 -0.3335  0.1441 -0.2929
  147SAPE   O1116181   5.149   3.487  10.865 -0.0768 -0.0477  0.3295
  147SAPE    C116182   5.137   3.437  10.734  0.3136 -0.6890  0.2295
  147SAPE    HA16183   5.134   3.326  10.738  2.4456 -0.8408 -1.0187
  147SAPE    HB16184   5.040   3.479  10.700 -0.1777  0.0619  2.4367
  147SAPE    C216185   5.261   3.481  10.644  1.4788 -0.7689  0.2759
  147SAPE    HS16186   5.338   3.402  10.658  2.3142 -0.4178 -1.9154
  147SAPE   O2116187   5.297   3.620  10.664 -0.5757  0.6849 -0.2962
  147SAPE   C2116188   5.422   3.650  10.627  0.8340 -0.1974  0.4929
  147SAPE   O2216189   5.510   3.568  10.598  0.1603  0.2766 -0.5744
  147SAPE   C2216190   5.444   3.801  10.616 -0.0986 -1.1036  0.0507
  147SAPE   H2R16191   5.372   3.859  10.677  0.2911  1.0427 -1.4478
  147SAPE   H2S16192   5.541   3.838  10.656 -0.6382  3.0761 -2.0489
  147SAPE    C316193   5.230   3.455  10.496  0.4919  0.0559  0.1022
  147SAPE    HX16194   5.208   3.347  10.482 -1.0702  0.5985 -2.3419
  147SAPE    HY16195   5.325   3.476  10.441  2.1213 -1.4893  2.1516
  147SAPE   O3116196   5.111   3.527  10.439  0.1312  0.5568 -0.1632
  147SAPE   C3116197   5.144   3.610  10.339 -0.3758 -0.1206 -0.1499
  147SAPE   O3216198   5.254   3.643  10.303  0.8182 -0.3783 -0.3576
  147SAPE   C3216199   5.015   3.669  10.281  0.0281  0.5387  0.1472
  147SAPE   H2X16200   4.966   3.722  10.365 -1.7631 -0.7068 -0.0614
  147SAPE   H2Y16201   4.949   3.588  10.243 -1.9068  1.0843  2.1687
  147SAPE   C2316202   5.448   3.858  10.471  0.6513  0.2819 -0.1228
  147SAPE   H3R16203   5.349   3.845  10.423  0.0912 -1.2692  1.3035
  147SAPE   H3S16204   5.514   3.798  10.405  1.0599 -0.2298  0.7244
  147SAPE   C2416205   5.499   3.999  10.459  0.3525 -0.4972 -0.5009
  147SAPE   H4R16206   5.516   4.035  10.355 -0.6576  1.6364  0.0149
  147SAPE   H4S16207   5.598   4.005  10.509 -0.7517  0.9379  1.6590
  147SAPE   C2516208   5.412   4.098  10.534 -0.3972  0.1979  0.5121
  147SAPE   H5R16209   5.420   4.075  10.641  2.2817 -1.4797  0.0439
  147SAPE   C2616210   5.331   4.191  10.485  0.1735 -0.3549 -0.5459
  147SAPE   H6R16211   5.289   4.253  10.565  2.3666 -1.7868  1.8716
  147SAPE   C2716212   5.315   4.224  10.342  0.0173  0.1975 -0.4127
  147SAPE   H7R16213   5.286   4.133  10.285 -0.0007  1.8757 -3.2977
  147SAPE   H7S16214   5.414   4.235  10.291 -0.5609 -0.1747 -1.6735
  147SAPE   C2816215   5.232   4.346  10.324  0.3256  1.3010 -0.3430
  147SAPE   H8R16216   5.163   4.374  10.405  0.5595  1.9975 -0.3823
  147SAPE   C2916217   5.216   4.408  10.202 -0.3269 -0.3158  0.5984
  147SAPE   H9R16218   5.161   4.503  10.206  1.9386  1.0281  3.5009
  147SAPE  C21016219   5.287   4.381  10.067  0.8666  0.3141  0.0344
  147SAPE  H10R16220   5.360   4.297  10.075  1.3825  0.6878 -0.6690
  147SAPE  H10S16221   5.364   4.456  10.041  1.7774 -0.7134 -0.2702
  147SAPE  C21116222   5.177   4.346   9.963 -0.8293  0.6350 -0.3979
  147SAPE  H11R16223   5.090   4.291  10.000  0.0573 -1.1752 -0.8837
  147SAPE  C21216224   5.185   4.365   9.827  0.1818  0.0474 -0.7022
  147SAPE  H12R16225   5.111   4.343   9.749 -0.4638 -0.1408 -0.0574
  147SAPE  C21316226   5.296   4.431   9.756 -0.8756  0.1936  0.9349
  147SAPE  H13R16227   5.305   4.375   9.660 -1.1127  1.7255 -0.0151
  147SAPE  H13S16228   5.397   4.408   9.796 -0.5336 -0.8483 -0.4633
  147SAPE  C21416229   5.299   4.581   9.748  0.0560  0.4810  0.3396
  147SAPE  H14R16230   5.318   4.637   9.841 -1.4204 -1.0257  1.6259
  147SAPE  C21516231   5.292   4.654   9.637  0.1218 -0.1589  0.4201
  147SAPE  H15R16232   5.308   4.763   9.632  1.2819 -0.2071  2.1793
  147SAPE  C21616233   5.250   4.582   9.509  0.6407  0.0446 -0.2302
  147SAPE  H16R16234   5.195   4.654   9.445 -1.4745 -0.1761  1.2185
  147SAPE  H16S16235   5.177   4.499   9.524  1.1493 -0.5143 -0.7789
  147SAPE  C21716236   5.376   4.532   9.439  0.4037  0.0448 -0.5585
  147SAPE  H17R16237   5.433   4.464   9.506  2.9583 -0.8321 -3.4062
  147SAPE  H17S16238   5.437   4.617   9.402  0.7093 -0.9699 -2.5741
  147SAPE  C21816239   5.347   4.449   9.310  0.0981  0.2608 -0.7104
  147SAPE  H18R16240   5.447   4.432   9.265  1.2294  1.1340  1.3249
  147SAPE  H18S16241   5.283   4.505   9.238  0.2988  1.7113  0.1876
  147SAPE  C21916242   5.299   4.311   9.352 -0.4885  0.2075  0.0397
  147SAPE  H19R16243   5.199   4.320   9.399 -0.4734  0.1857  0.0762
  147SAPE  H19S16244   5.369   4.278   9.432 -0.1958 -0.6491 -0.5458
  147SAPE  C22016245   5.282   4.213   9.238  0.7355 -0.3745 -0.2494
  147SAPE  H20R16246   5.220   4.247   9.152  0.1150  0.2491  0.4384
  147SAPE  H20S16247   5.240   4.113   9.265  1.9314 -1.2657 -1.5315
  147SAPE  H20T16248   5.384   4.184   9.206  0.5211 -2.5098  0.8365
  147SAPE   C3316249   5.030   3.781  10.172  0.2497  0.5941 -0.4808
  147SAPE   H3X16250   5.116   3.838  10.214  0.5983 -1.4093  1.7635
  147SAPE   H3Y16251   4.933   3.836  10.171 -0.8876 -1.3357 -0.8756
  147SAPE   C3416252   5.060   3.737  10.028 -0.7866  0.1834  0.5500
  147SAPE   H4X16253   4.973   3.678   9.990  0.6469 -0.6477 -1.6060
  147SAPE   H4Y16254   5.141   3.661  10.029 -0.2966  0.7000  0.4284
  147SAPE   C3516255   5.110   3.845   9.928 -0.3559 -0.4135  0.0068
  147SAPE   H5X16256   5.034   3.926   9.927 -0.2140 -0.2805 -0.0524
  147SAPE   H5Y16257   5.123   3.798   9.828 -0.5042 -1.2915  0.3913
  147SAPE   C3616258   5.242   3.915   9.961  0.4885  0.0706 -0.2430
  147SAPE   H6X16259   5.320   3.838   9.948 -2.2705 -3.2916  1.3661
  147SAPE   H6Y16260   5.252   3.948  10.067  0.9317  0.4699 -0.4079
  147SAPE   C3716261   5.278   4.026   9.861 -0.2636  0.5474  0.3398
  147SAPE   H7X16262   5.345   4.090   9.922 -1.5343  1.8212  0.4466
  147SAPE   H7Y16263   5.189   4.091   9.843 -0.5353  0.1593  0.2642
  147SAPE   C3816264   5.346   3.962   9.737  0.1399 -0.8146 -0.0968
  147SAPE   H8X16265   5.274   3.897   9.683 -0.3013  1.1778 -2.0593
  147SAPE   H8Y16266   5.435   3.911   9.780  0.5167  0.0466  0.1681
  147SAPE   C3916267   5.393   4.075   9.644 -0.1088  0.1237 -0.3272
  147SAPE   H9X16268   5.455   4.161   9.677  0.4157 -0.9163  1.5567
  147SAPE   H9Y16269   5.302   4.132   9.617 -0.8680 -0.0171  1.7789
  147SAPE  C31016270   5.455   4.013   9.514  0.7035  0.4570  0.8318
  147SAPE  H10X16271   5.551   3.968   9.547 -0.0665 -1.6430  0.3805
  147SAPE  H10Y16272   5.466   4.103   9.451 -1.3183 -0.5587 -1.1101
  147SAPE  C31116273   5.371   3.908   9.445  0.1929 -0.3344  0.2523
  147SAPE  H11X16274   5.266   3.945   9.441  0.3403  0.3834  2.1517
  147SAPE  H11Y16275   5.368   3.812   9.500 -0.6637 -1.3982 -1.5248
  147SAPE  C31216276   5.414   3.878   9.297  0.3389 -0.1135 -0.3669
  147SAPE  H12X16277   5.495   3.802   9.298  2.0542  1.6352  0.5461
  147SAPE  H12Y16278   5.447   3.972   9.246  1.6626 -0.8763 -0.9604
  147SAPE  C31316279   5.307   3.815   9.202  0.3332  0.6235  0.7958
  147SAPE  H13X16280   5.227   3.892   9.204 -2.2029 -1.7071 -1.5528
  147SAPE  H13Y16281   5.271   3.725   9.257 -0.9884  0.6260 -0.0185
  147SAPE  C31416282   5.359   3.773   9.059  0.7298  0.1708 -0.9259
  147SAPE  H14X16283   5.418   3.850   9.004 -0.2647  0.6879 -1.2927
  147SAPE  H14Y16284   5.273   3.753   8.992  1.0709 -1.2926 -0.9535
  147SAPE  C31516285   5.446   3.651   9.073 -0.7092  0.7545 -0.1677
  147SAPE  H15X16286   5.387   3.559   9.091  2.9642 -1.6784  0.7221
  147SAPE  H15Y16287   5.513   3.654   9.162  0.4438  0.3179 -0.9928
  147SAPE  C31616288   5.520   3.620   8.943 -0.2336  0.1422  0.0502
  147SAPE  H16X16289   5.457   3.638   8.853  0.3751 -1.5951 -0.7670
  147SAPE  H16Y16290   5.554   3.515   8.931 -0.4730 -0.1341  1.5710
  147SAPE  C31716291   5.649   3.707   8.924 -0.2071  0.4247 -0.5749
  147SAPE  H17X16292   5.705   3.694   9.019  1.5824  1.9854 -1.3546
  147SAPE  H17Y16293   5.626   3.815   8.914  3.2376  1.1204 -2.1371
  147SAPE  C31816294   5.726   3.659   8.797 -1.0256 -0.1123  0.5304
  147SAPE  H18X16295   5.822   3.715   8.794 -1.6895  1.1349  1.4194
  147SAPE  H18Y16296   5.663   3.675   8.707  1.1897  0.6888 -0.9511
  147SAPE  H18Z16297   5.758   3.553   8.804  1.4248  0.4860 -0.5189
  148SAPE     N16298   6.603   5.022  10.871  0.1253 -0.2063  0.1203
  148SAPE   HN116299   6.500   5.022  10.876  0.0312 -3.1734 -0.0095
  148SAPE   HN216300   6.634   4.927  10.840  1.8352 -0.1352  1.4194
  148SAPE   HN316301   6.640   5.035  10.968  1.1426 -2.7132  0.1445
  148SAPE   C1216302   6.649   5.124  10.776 -0.0387  0.2003  0.4451
  148SAPE  H12A16303   6.749   5.091  10.743 -1.3960 -2.7795 -1.1748
  148SAPE  H12B16304   6.653   5.216  10.837 -0.5967 -0.8023  2.0676
  148SAPE   C1116305   6.558   5.146  10.652  0.9285 -0.6601  0.2045
  148SAPE  H11A16306   6.571   5.056  10.588  1.5012 -0.2009 -0.3405
  148SAPE  H11B16307   6.600   5.233  10.596 -0.1711 -0.4313 -0.2960
  148SAPE     P16308   6.357   5.299  10.717  0.2747  0.1579 -0.1589
  148SAPE   O1316309   6.239   5.268  10.803  0.0226 -0.5014  0.0687
  148SAPE   O1416310   6.471   5.383  10.775 -0.8757 -0.1629  0.1178
  148SAPE   O1216311   6.418   5.159  10.674  0.4118  0.0643 -0.3709
  148SAPE   O1116312   6.311   5.370  10.587 -0.3237  0.0791 -0.8889
  148SAPE    C116313   6.181   5.343  10.522  0.0473 -0.9347  0.0532
  148SAPE    HA16314   6.125   5.266  10.579 -1.0867  0.0174  0.2709
  148SAPE    HB16315   6.124   5.438  10.529  0.0731 -0.9312  0.2142
  148SAPE    C216316   6.197   5.302  10.366 -0.3148 -0.4842  0.4073
  148SAPE    HS16317   6.103   5.326  10.313 -0.5360  3.6314  2.2427
  148SAPE   O2116318   6.218   5.164  10.344 -0.0286  0.6006 -0.2750
  148SAPE   C2116319   6.115   5.086  10.388 -0.3358 -0.8656  0.1223
  148SAPE   O2216320   6.007   5.120  10.430  0.3833 -0.9879  0.4888
  148SAPE   C2216321   6.170   4.936  10.400  0.3496 -0.0796  0.0049
  148SAPE   H2R16322   6.252   4.921  10.473 -0.3615 -1.6561  0.5235
  148SAPE   H2S16323   6.086   4.891  10.457 -0.1030  1.2424  0.4032
  148SAPE    C316324   6.314   5.380  10.299  0.7781  0.1300  0.1697
  148SAPE    HX16325   6.406   5.339  10.346 -0.0756 -0.2994  1.5194
  148SAPE    HY16326   6.295   5.483  10.336 -1.9660 -0.6419  1.2245
  148SAPE   O3116327   6.319   5.356  10.153 -0.5398 -0.2282 -0.0717
  148SAPE   C3116328   6.333   5.461  10.071 -0.5112  0.4448  0.6558
  148SAPE   O3216329   6.344   5.578  10.107 -0.3018 -0.4267 -0.1079
  148SAPE   C3216330   6.341   5.418   9.925  0.2320  1.3715 -0.0756
  148SAPE   H2X16331   6.246   5.379   9.884  1.3522 -0.3293 -1.1528
  148SAPE   H2Y16332   6.410   5.334   9.906 -3.7594 -2.7635  1.8457
  148SAPE   C2316333   6.196   4.864  10.264  0.1922  0.1643 -0.5581
  148SAPE   H3R16334   6.252   4.772  10.292  0.2098  0.2745 -0.2219
  148SAPE   H3S16335   6.265   4.929  10.205  1.4838  0.2845  1.0116
  148SAPE   C2416336   6.073   4.817  10.182 -0.5297 -1.2934 -0.2201
  148SAPE   H4R16337   6.004   4.904  10.181 -0.8171 -1.3431  3.2178
  148SAPE   H4S16338   6.024   4.738  10.242  0.7691 -0.8990  1.4208
  148SAPE   C2516339   6.137   4.779  10.049 -0.3409  0.1607  0.3372
  148SAPE   H5R16340   6.197   4.687  10.049  0.4389  0.6605 -0.4403
  148SAPE   C2616341   6.102   4.837   9.931  0.8646  0.4103  0.1620
  148SAPE   H6R16342   6.156   4.812   9.838  0.6419  1.2799 -0.2104
  148SAPE   C2716343   6.006   4.950   9.888  0.1295  0.2337  0.3385
  148SAPE   H7R16344   5.958   4.986   9.982 -4.1749 -0.8898 -1.1980
  148SAPE   H7S16345   5.920   4.911   9.831 -1.6954  1.3183  2.2040
  148SAPE   C2816346   6.086   5.058   9.815 -0.4893 -0.0556 -0.1543
  148SAPE   H8R16347   6.166   5.098   9.879  0.4605 -0.4754 -1.0585
  148SAPE   C2916348   6.070   5.100   9.686  1.0168  0.2082 -0.0219
  148SAPE   H9R16349   6.132   5.188   9.660  0.9044 -0.3407 -2.3599
  148SAPE  C21016350   5.976   5.045   9.587  0.7627 -1.0764  0.1417
  148SAPE  H10R16351   5.980   5.126   9.512 -0.1147 -1.0255  0.1347
  148SAPE  H10S16352   5.878   5.030   9.638 -0.9621  1.0798 -2.2932
  148SAPE  C21116353   6.036   4.913   9.537 -0.0345 -0.5970 -0.0807
  148SAPE  H11R16354   6.014   4.828   9.604 -1.2360  1.1553  1.8616
  148SAPE  C21216355   6.086   4.894   9.410  0.3990  0.1554  0.2584
  148SAPE  H12R16356   6.135   4.799   9.384  1.3027  1.0948 -1.6992
  148SAPE  C21316357   6.088   5.000   9.302  0.5115  1.0666 -0.0895
  148SAPE  H13R16358   6.117   5.104   9.328 -0.1185  1.1272  0.3885
  148SAPE  H13S16359   5.988   5.006   9.255  0.7094 -0.3928 -0.7483
  148SAPE  C21416360   6.178   4.962   9.191 -0.5193  0.0970 -0.7497
  148SAPE  H14R16361   6.275   4.925   9.228 -0.4728  1.5264  0.6851
  148SAPE  C21516362   6.156   4.955   9.065 -0.3797 -0.2515  1.0029
  148SAPE  H15R16363   6.252   4.949   9.010 -0.8968  1.5266 -0.1869
  148SAPE  C21616364   6.032   4.979   8.981  0.0830 -0.6822  0.3643
  148SAPE  H16R16365   5.943   4.993   9.047  0.4225  0.5758  0.5851
  148SAPE  H16S16366   6.007   4.883   8.932 -0.9750 -0.7971  1.0900
  148SAPE  C21716367   6.047   5.092   8.875  0.5177 -0.0520 -0.1587
  148SAPE  H17R16368   6.082   5.182   8.930  0.0766 -0.2770  0.4922
  148SAPE  H17S16369   5.942   5.104   8.841  0.5739 -0.9833 -0.7036
  148SAPE  C21816370   6.138   5.050   8.761 -0.9241 -0.7641  0.0173
  148SAPE  H18R16371   6.236   5.016   8.803  0.6353  2.6041 -0.5766
  148SAPE  H18S16372   6.161   5.133   8.691  0.3372 -2.3700 -1.5861
  148SAPE  C21916373   6.076   4.949   8.667  0.0574  0.6320  0.0266
  148SAPE  H19R16374   5.995   4.991   8.604  0.9726  0.7958 -1.0832
  148SAPE  H19S16375   6.028   4.864   8.720  0.2476 -0.4825 -1.5225
  148SAPE  C22016376   6.184   4.897   8.576 -0.1882  0.7707 -0.7036
  148SAPE  H20R16377   6.230   4.970   8.505  0.5143  0.3026 -0.7410
  148SAPE  H20S16378   6.144   4.806   8.527 -0.8481  0.4838  0.3424
  148SAPE  H20T16379   6.266   4.860   8.641 -1.6358 -0.1595  0.6541
  148SAPE   C3316380   6.377   5.549   9.851 -0.4190  0.1382  0.1282
  148SAPE   H3X16381   6.466   5.596   9.897  0.1670 -0.1174 -0.7197
  148SAPE   H3Y16382   6.283   5.610   9.852 -1.6435 -1.6836  0.7634
  148SAPE   C3416383   6.409   5.512   9.705  0.3874 -0.0625  0.3469
  148SAPE   H4X16384   6.481   5.428   9.696  0.1413 -0.2381 -0.0419
  148SAPE   H4Y16385   6.460   5.603   9.666  2.2663 -1.0037  0.5065
  148SAPE   C3516386   6.281   5.479   9.635 -0.4875 -0.3392 -0.5326
  148SAPE   H5X16387   6.212   5.566   9.641  1.2169  1.0716 -0.5353
  148SAPE   H5Y16388   6.235   5.389   9.681  0.8573 -1.6907 -1.7282
  148SAPE   C3616389   6.308   5.452   9.486 -0.5078 -0.0633  1.4473
  148SAPE   H6X16390   6.392   5.380   9.479  0.2041  0.6357  2.5162
  148SAPE   H6Y16391   6.331   5.550   9.438  1.6306 -1.5615 -0.8702
  148SAPE   C3716392   6.186   5.385   9.416 -0.6241 -0.4771  0.5605
  148SAPE   H7X16393   6.094   5.443   9.442 -0.6259 -1.1373  2.1658
  148SAPE   H7Y16394   6.178   5.281   9.453 -1.1368 -1.4465 -2.0632
  148SAPE   C3816395   6.202   5.377   9.261  0.2801  0.2099 -0.2027
  148SAPE   H8X16396   6.203   5.276   9.215 -1.1699  0.5183 -0.9674
  148SAPE   H8Y16397   6.301   5.422   9.237  0.1423  0.4257 -0.3619
  148SAPE   C3916398   6.086   5.451   9.191  0.7588 -0.1424  0.1690
  148SAPE   H9X16399   6.106   5.455   9.082 -0.3431 -2.4142 -0.1935
  148SAPE   H9Y16400   6.084   5.547   9.246 -0.1159  0.4615 -0.8626
  148SAPE  C31016401   5.956   5.370   9.205 -0.0472  0.2960  0.0096
  148SAPE  H10X16402   5.938   5.359   9.315  0.7261 -0.6936  0.0512
  148SAPE  H10Y16403   5.981   5.267   9.172 -1.2836 -0.3532  0.9852
  148SAPE  C31116404   5.822   5.432   9.151 -0.2118 -0.8665  0.2294
  148SAPE  H11X16405   5.849   5.466   9.048 -2.1858  4.5874  1.1689
  148SAPE  H11Y16406   5.800   5.521   9.214  1.0249 -0.3598 -0.0190
  148SAPE  C31216407   5.709   5.335   9.145 -0.2042 -0.1558 -0.3465
  148SAPE  H12X16408   5.611   5.386   9.152 -0.6211 -1.0932  1.0963
  148SAPE  H12Y16409   5.714   5.276   9.239 -2.9396  0.8248  0.5045
  148SAPE  C31316410   5.706   5.254   9.018  0.3902 -0.1382  0.0931
  148SAPE  H13X16411   5.768   5.163   9.026  1.2027  0.4270  0.4063
  148SAPE  H13Y16412   5.749   5.321   8.941 -1.1322 -0.8124 -1.3995
  148SAPE  C31416413   5.567   5.207   8.978 -0.3999 -1.1073  0.7062
  148SAPE  H14X16414   5.509   5.301   8.962 -0.5022 -1.0073  1.6247
  148SAPE  H14Y16415   5.520   5.137   9.049 -2.0266 -1.0844 -0.3100
  148SAPE  C31516416   5.559   5.148   8.837 -0.0856  0.3571  0.7224
  148SAPE  H15X16417   5.601   5.213   8.757 -1.9947  0.6164 -0.1395
  148SAPE  H15Y16418   5.451   5.130   8.818  0.5909 -2.7212 -0.8746
  148SAPE  C31616419   5.634   5.023   8.820 -0.0760  0.6750 -0.0941
  148SAPE  H16X16420   5.623   4.956   8.908  0.3418  0.1478 -0.4366
  148SAPE  H16Y16421   5.744   5.032   8.805 -0.0336 -0.2536 -0.4302
  148SAPE  C31716422   5.582   4.931   8.705  0.2017  0.0441 -0.8170
  148SAPE  H17X16423   5.471   4.927   8.705  0.1160 -0.5413  2.8187
  148SAPE  H17Y16424   5.614   4.830   8.740 -1.8616 -1.2292 -2.3588
  148SAPE  C31816425   5.646   4.956   8.570  0.2276 -0.3019  0.6275
  148SAPE  H18X16426   5.652   5.064   8.543 -2.1387  0.3247  2.2342
  148SAPE  H18Y16427   5.597   4.892   8.494  0.2463  0.1996  0.1870
  148SAPE  H18Z16428   5.751   4.921   8.562  0.2503 -0.1310  0.1818
  149SAPE     N16429   3.623   0.678  11.007 -0.2052  0.0051  0.2117
  149SAPE   HN116430   3.724   0.701  11.002 -0.6505  2.3893  1.0994
  149SAPE   HN216431   3.578   0.714  11.093  0.8701  0.1762  0.7161
  149SAPE   HN316432   3.611   0.575  11.013  0.5433  0.0172  3.7642
  149SAPE   C1216433   3.555   0.738  10.888 -0.0171  0.7372 -0.1927
  149SAPE  H12A16434   3.619   0.716  10.800  1.4724 -0.0798  1.0296
  149SAPE  H12B16435   3.532   0.846  10.900 -0.0576  0.4846  2.6834
  149SAPE   C1116436   3.422   0.666  10.862 -0.0886 -0.1583 -0.1852
  149SAPE  H11A16437   3.439   0.558  10.842  0.8914 -0.3677  1.5812
  149SAPE  H11B16438   3.376   0.712  10.771 -2.1499 -1.9058 -0.0721
  149SAPE     P16439   3.179   0.687  10.971  0.1804  0.1757 -0.1616
  149SAPE   O1316440   3.121   0.665  11.109  0.1170  0.4281  0.4518
  149SAPE   O1416441   3.130   0.808  10.899  0.6115  0.2056  0.0542
  149SAPE   O1216442   3.340   0.678  10.973 -0.5741  0.9457 -0.1439
  149SAPE   O1116443   3.152   0.562  10.883  0.5337  0.2353 -0.4200
  149SAPE    C116444   3.013   0.535  10.834  0.3437  0.1374  0.2218
  149SAPE    HA16445   2.938   0.531  10.916  2.6901  0.4887  2.5081
  149SAPE    HB16446   2.966   0.611  10.768  0.3246 -1.1898 -1.3628
  149SAPE    C216447   3.015   0.410  10.751  0.4259  0.2913 -1.0044
  149SAPE    HS16448   3.028   0.323  10.818 -0.5933 -1.0644 -2.4762
  149SAPE   O2116449   3.128   0.422  10.660  0.0328 -0.4429 -0.0286
  149SAPE   C2116450   3.152   0.338  10.571  0.1526  0.3802 -0.4141
  149SAPE   O2216451   3.126   0.219  10.568 -0.0065  0.7676 -0.1052
  149SAPE   C2216452   3.251   0.408  10.469 -0.0244 -0.1036 -0.1924
  149SAPE   H2R16453   3.306   0.484  10.529 -0.2575 -1.3682  1.7182
  149SAPE   H2S16454   3.331   0.336  10.441  1.3604  1.3670 -0.1554
  149SAPE    C316455   2.885   0.383  10.671  0.6534 -0.6536 -0.7272
  149SAPE    HX16456   2.806   0.408  10.744 -1.1342  1.2389 -3.1112
  149SAPE    HY16457   2.875   0.277  10.639  0.9446 -0.6444 -0.8586
  149SAPE   O3116458   2.876   0.475  10.563  0.3089  0.5141 -0.6161
  149SAPE   C3116459   2.776   0.448  10.475 -0.2586 -0.7826 -0.5469
  149SAPE   O3216460   2.691   0.370  10.496 -0.4259 -0.0889 -0.5452
  149SAPE   C3216461   2.787   0.529  10.350 -0.3537  0.0086  0.2429
  149SAPE   H2X16462   2.896   0.538  10.335 -0.0942 -1.6554  1.0143
  149SAPE   H2Y16463   2.745   0.629  10.374 -3.8469 -1.2984  0.1830
  149SAPE   C2316464   3.186   0.456  10.342  0.0852 -0.6345  0.0590
  149SAPE   H3R16465   3.116   0.537  10.369  0.6732 -0.6988  1.8777
  149SAPE   H3S16466   3.138   0.374  10.284  1.8317 -1.3283 -0.4654
  149SAPE   C2416467   3.285   0.522  10.237  0.4863  0.4846 -1.0931
  149SAPE   H4R16468   3.317   0.431  10.182 -0.1097  1.5488 -3.3551
  149SAPE   H4S16469   3.376   0.572  10.275  1.3074 -1.0565 -0.9787
  149SAPE   C2516470   3.219   0.613  10.136 -0.0545  0.7653 -0.9011
  149SAPE   H5R16471   3.188   0.706  10.186  0.3213  0.9545 -1.0144
  149SAPE   C2616472   3.215   0.600  10.004  0.7014  1.0465 -0.0249
  149SAPE   H6R16473   3.162   0.681   9.953 -0.4683 -0.1092 -0.7161
  149SAPE   C2716474   3.256   0.485   9.919  0.3374  0.1135 -0.1961
  149SAPE   H7R16475   3.328   0.413   9.965 -0.2328 -1.1711 -1.2691
  149SAPE   H7S16476   3.297   0.520   9.822  2.9844 -0.9918  0.4105
  149SAPE   C2816477   3.127   0.409   9.884 -0.0241 -0.1034  0.1335
  149SAPE   H8R16478   3.088   0.342   9.962 -1.6621 -1.0908 -1.4806
  149SAPE   C2916479   3.068   0.409   9.760  0.3319 -0.1032 -0.1573
  149SAPE   H9R16480   2.980   0.347   9.735 -2.0251  3.0397 -0.2853
  149SAPE  C21016481   3.111   0.478   9.633  1.0772 -0.1269 -0.2526
  149SAPE  H10R16482   3.127   0.402   9.554  3.5768  1.7308 -1.6726
  149SAPE  H10S16483   3.209   0.531   9.637  1.8682 -1.5921  0.6417
  149SAPE  C21116484   2.999   0.572   9.595  0.5552  0.1494 -0.0814
  149SAPE  H11R16485   2.934   0.611   9.674  2.8178 -0.4963  2.2362
  149SAPE  C21216486   2.980   0.611   9.467  0.0625  0.3480  0.0858
  149SAPE  H12R16487   2.890   0.672   9.449  0.6298  1.1330 -0.1630
  149SAPE  C21316488   3.053   0.568   9.338 -0.7503 -0.6330 -0.3991
  149SAPE  H13R16489   2.982   0.536   9.259 -3.5140  1.7737  0.9284
  149SAPE  H13S16490   3.123   0.483   9.355 -0.8569 -0.6158  0.1542
  149SAPE  C21416491   3.132   0.691   9.287 -0.3186 -0.4665  0.4942
  149SAPE  H14R16492   3.172   0.762   9.361 -0.2105  0.0575 -0.0623
  149SAPE  C21516493   3.145   0.735   9.160 -0.0620  0.4255 -0.6484
  149SAPE  H15R16494   3.198   0.829   9.141 -0.9289  1.3622  1.3662
  149SAPE  C21616495   3.084   0.673   9.038 -0.6019 -0.0042  0.0063
  149SAPE  H16R16496   3.069   0.753   8.963  0.7778  1.4740  1.2496
  149SAPE  H16S16497   2.983   0.625   9.042 -1.3640  1.3076 -1.8946
  149SAPE  C21716498   3.172   0.566   8.981  0.4722  0.2216  0.5219
  149SAPE  H17R16499   3.184   0.482   9.053 -1.0384 -0.2498  0.2687
  149SAPE  H17S16500   3.271   0.602   8.949  0.5227 -1.2956 -1.1929
  149SAPE  C21816501   3.105   0.498   8.846  0.0796  0.1124  0.1662
  149SAPE  H18R16502   3.089   0.580   8.773 -0.9112 -0.5867 -0.4307
  149SAPE  H18S16503   3.014   0.448   8.884  0.6918 -0.4811  0.8803
  149SAPE  C21916504   3.180   0.379   8.787 -0.1420 -0.7433 -0.2464
  149SAPE  H19R16505   3.202   0.316   8.875  1.3677  1.1381  0.7968
  149SAPE  H19S16506   3.277   0.407   8.740  0.5817 -0.6675  1.2510
  149SAPE  C22016507   3.096   0.310   8.675 -0.3934 -0.1408  0.4470
  149SAPE  H20R16508   2.989   0.296   8.702 -0.5084  0.8557  0.5576
  149SAPE  H20S16509   3.135   0.207   8.658  1.0025 -0.2729  3.8256
  149SAPE  H20T16510   3.104   0.371   8.582  1.3580  0.6103  1.0511
  149SAPE   C3316511   2.697   0.466  10.240  0.4745  0.7788 -0.5146
  149SAPE   H3X16512   2.587   0.473  10.255  0.3689 -1.0797 -0.2137
  149SAPE   H3Y16513   2.723   0.358  10.234 -1.9574  0.1953 -1.6980
  149SAPE   C3416514   2.740   0.520  10.099  0.8113  0.0486 -0.4003
  149SAPE   H4X16515   2.839   0.473  10.079  0.6370 -0.4858 -0.0212
  149SAPE   H4Y16516   2.742   0.631  10.106 -1.1136  0.0170  1.4708
  149SAPE   C3516517   2.635   0.499   9.997  0.0723 -0.1450 -0.1483
  149SAPE   H5X16518   2.557   0.578   9.994  0.0719 -0.1459 -0.1600
  149SAPE   H5Y16519   2.592   0.398  10.012  0.3838 -0.4971 -1.4877
  149SAPE   C3616520   2.697   0.503   9.850 -0.0173 -0.2795  0.2839
  149SAPE   H6X16521   2.776   0.428   9.866 -0.1702 -0.5195 -0.0706
  149SAPE   H6Y16522   2.744   0.600   9.821  2.3927 -1.1673  1.0295
  149SAPE   C3716523   2.601   0.460   9.735 -0.2711 -0.5008  0.4553
  149SAPE   H7X16524   2.520   0.534   9.717  0.3956  0.2605  0.5358
  149SAPE   H7Y16525   2.563   0.357   9.754 -0.4056 -1.0780 -2.4820
  149SAPE   C3816526   2.679   0.425   9.607 -0.1183 -0.4256  0.2673
  149SAPE   H8X16527   2.769   0.367   9.637  1.3209  2.8781  3.0807
  149SAPE   H8Y16528   2.713   0.522   9.564 -1.9368  0.5341  0.8585
  149SAPE   C3916529   2.603   0.352   9.502 -0.2482  0.6415  0.5744
  149SAPE   H9X16530   2.661   0.358   9.408 -0.5237  1.6236  0.4569
  149SAPE   H9Y16531   2.509   0.408   9.488 -0.5216  0.3467  1.1727
  149SAPE  C31016532   2.579   0.203   9.540 -0.3589 -0.0182  0.0488
  149SAPE  H10X16533   2.541   0.197   9.645  0.5645 -2.0007  0.3172
  149SAPE  H10Y16534   2.672   0.142   9.543 -1.5010 -1.8891 -0.7944
  149SAPE  C31116535   2.477   0.122   9.457 -0.2628 -0.4171 -0.2311
  149SAPE  H11X16536   2.473   0.015   9.485  2.4210 -0.3806  0.5319
  149SAPE  H11Y16537   2.534   0.124   9.362  0.3261 -1.6074  0.0864
  149SAPE  C31216538   2.331   0.182   9.442 -0.0330  0.5169  0.9440
  149SAPE  H12X16539   2.335   0.288   9.407  2.0109  1.9802  5.0155
  149SAPE  H12Y16540   2.267   0.172   9.532  0.8184  0.0629  1.5182
  149SAPE  C31316541   2.244   0.113   9.328  0.4206 -0.5489 -0.2395
  149SAPE  H13X16542   2.134   0.127   9.342  0.7883  1.3652  0.9972
  149SAPE  H13Y16543   2.252   0.003   9.343 -0.2228 -0.6703 -0.7365
  149SAPE  C31416544   2.291   0.159   9.188 -0.5248  0.3734 -0.3664
  149SAPE  H14X16545   2.400   0.135   9.179 -0.4595  0.9620 -1.3366
  149SAPE  H14Y16546   2.288   0.269   9.179 -0.4185  0.2481 -2.6777
  149SAPE  C31516547   2.214   0.084   9.083  0.3903 -0.5800  0.5306
  149SAPE  H15X16548   2.103   0.080   9.095  0.1035 -1.1517 -1.8959
  149SAPE  H15Y16549   2.247  -0.022   9.087 -0.2665 -0.7602  1.5856
  149SAPE  C31616550   2.237   0.129   8.940  0.1864 -0.2139  0.7550
  149SAPE  H16X16551   2.343   0.159   8.926 -0.6603  2.7406 -0.2890
  149SAPE  H16Y16552   2.181   0.225   8.930  1.1118  0.4669  1.9124
  149SAPE  C31716553   2.170   0.034   8.839 -0.4327 -1.1752 -0.4591
  149SAPE  H17X16554   2.060   0.028   8.857 -0.2468 -3.7180  0.1222
  149SAPE  H17Y16555   2.205  -0.068   8.864  0.9290 -0.5118  0.4427
  149SAPE  C31816556   2.203   0.072   8.699 -0.4118 -0.3380 -0.4338
  149SAPE  H18X16557   2.310   0.097   8.685  0.1367 -1.1843  1.8202
  149SAPE  H18Y16558   2.149   0.168   8.684  1.1628  0.9602  1.5811
  149SAPE  H18Z16559   2.179  -0.009   8.628 -3.8177  0.5592 -0.4968
  150SAPE     N16560   4.162   0.939  11.005 -0.6103  0.8955  0.1141
  150SAPE   HN116561   4.109   0.910  10.921 -0.0971  0.2230  0.0143
  150SAPE   HN216562   4.085   0.960  11.071 -1.9356 -0.5899 -0.8983
  150SAPE   HN316563   4.211   1.028  10.986  1.5922 -0.2408  0.0337
  150SAPE   C1216564   4.250   0.831  11.061 -0.4436  0.0296  0.1008
  150SAPE  H12A16565   4.186   0.744  11.087  0.3998 -0.7913 -0.4911
  150SAPE  H12B16566   4.301   0.861  11.155 -1.1994  0.1117  0.4910
  150SAPE   C1116567   4.354   0.793  10.953 -0.1193  0.0592 -0.3102
  150SAPE  H11A16568   4.395   0.694  10.983 -2.2105 -0.8718 -0.3219
  150SAPE  H11B16569   4.437   0.867  10.961  0.8933 -1.0628 -0.0892
  150SAPE     P16570   4.197   0.683  10.781 -0.2641 -0.2378  0.2504
  150SAPE   O1316571   4.250   0.550  10.813 -0.5048  0.3389 -1.3791
  150SAPE   O1416572   4.065   0.713  10.847  0.2973  0.2144 -0.2082
  150SAPE   O1216573   4.304   0.795  10.815 -0.2031  0.3264 -0.2785
  150SAPE   O1116574   4.193   0.689  10.621  0.1230 -0.0429 -0.2094
  150SAPE    C116575   4.308   0.661  10.536 -0.6108 -0.8923  0.2226
  150SAPE    HA16576   4.388   0.607  10.591 -0.2025 -1.5206 -0.9651
  150SAPE    HB16577   4.272   0.595  10.454 -0.9231  3.8101 -3.9463
  150SAPE    C216578   4.390   0.781  10.482  0.0425 -0.5423  0.2188
  150SAPE    HS16579   4.446   0.820  10.569  0.7024  0.5046 -0.6376
  150SAPE   O2116580   4.302   0.885  10.433 -0.3181  0.5351 -0.3507
  150SAPE   C2116581   4.369   0.996  10.381  0.2061  0.7928  0.2955
  150SAPE   O2216582   4.482   1.028  10.400  0.4703  0.0877 -0.0730
  150SAPE   C2216583   4.269   1.072  10.289 -0.2563  0.3249  0.1473
  150SAPE   H2R16584   4.202   1.137  10.349 -1.9485 -0.2332 -1.0435
  150SAPE   H2S16585   4.336   1.127  10.219  0.6985 -1.5113 -0.4275
  150SAPE    C316586   4.504   0.735  10.380 -0.1136  0.3479  0.5019
  150SAPE    HX16587   4.566   0.656  10.429  0.4862 -0.9587 -2.1865
  150SAPE    HY16588   4.566   0.826  10.363 -1.7918  1.8313  2.0068
  150SAPE   O3116589   4.446   0.697  10.251 -0.5026 -0.0255 -0.2685
  150SAPE   C3116590   4.438   0.561  10.233 -0.7454 -0.6742 -0.3429
  150SAPE   O3216591   4.484   0.477  10.310 -0.3581  0.2106 -0.1813
  150SAPE   C3216592   4.375   0.529  10.101  0.7701  0.1152  0.0536
  150SAPE   H2X16593   4.304   0.611  10.079 -2.7078 -2.9037 -0.8741
  150SAPE   H2Y16594   4.314   0.437  10.111 -1.6542  1.5046 -1.1532
  150SAPE   C2316595   4.192   0.990  10.187  0.2972 -0.5095  0.1028
  150SAPE   H3R16596   4.104   1.053  10.163  0.4721 -0.4279 -0.3480
  150SAPE   H3S16597   4.146   0.904  10.240 -0.6716 -0.3748 -0.5006
  150SAPE   C2416598   4.266   0.934  10.060  0.8403  0.9864  0.0790
  150SAPE   H4R16599   4.348   0.870  10.099 -0.7865  0.1030  2.2740
  150SAPE   H4S16600   4.323   1.006   9.997  2.0949 -1.9241 -2.3496
  150SAPE   C2516601   4.176   0.857   9.972  0.3035  0.1042 -0.2500
  150SAPE   H5R16602   4.112   0.793  10.034  0.9920 -0.0299  0.3373
  150SAPE   C2616603   4.175   0.843   9.835  0.3319  0.4850  0.3506
  150SAPE   H6R16604   4.105   0.763   9.806 -0.7877  0.5349  2.6988
  150SAPE   C2716605   4.270   0.899   9.735 -0.3932 -0.2464  0.0504
  150SAPE   H7R16606   4.283   1.005   9.765 -2.1165 -0.1192  0.4567
  150SAPE   H7S16607   4.216   0.892   9.638 -0.7935 -1.4732  0.3489
  150SAPE   C2816608   4.400   0.817   9.723  0.0879 -0.1470  0.1050
  150SAPE   H8R16609   4.434   0.769   9.816 -1.7045  1.2654  1.5811
  150SAPE   C2916610   4.486   0.820   9.619  0.0794 -0.1423 -0.1241
  150SAPE   H9R16611   4.570   0.751   9.639  0.0264 -0.2315 -0.2131
  150SAPE  C21016612   4.487   0.901   9.495  0.3249 -0.2839  0.4221
  150SAPE  H10R16613   4.439   1.000   9.512  2.1087  0.9237 -1.1233
  150SAPE  H10S16614   4.419   0.846   9.427  0.7419 -1.1899  0.7190
  150SAPE  C21116615   4.629   0.924   9.447 -0.1215 -0.0819  0.9941
  150SAPE  H11R16616   4.706   0.961   9.515 -1.8051 -0.2328  3.0745
  150SAPE  C21216617   4.652   0.902   9.312 -1.0061  0.2857 -0.3390
  150SAPE  H12R16618   4.755   0.902   9.276 -0.9402 -1.6720 -0.2435
  150SAPE  C21316619   4.557   0.860   9.201  0.8424  0.2852  0.3792
  150SAPE  H13R16620   4.496   0.771   9.226  3.0152 -1.2599  0.4199
  150SAPE  H13S16621   4.606   0.810   9.115  0.9356 -0.6313  0.9528
  150SAPE  C21416622   4.472   0.986   9.172  0.0255  0.8833 -0.1604
  150SAPE  H14R16623   4.468   1.060   9.252 -0.9053  1.0158 -0.3130
  150SAPE  C21516624   4.416   1.007   9.056  1.0090 -0.2891  0.9426
  150SAPE  H15R16625   4.361   1.101   9.043  2.1404  0.2515 -0.1736
  150SAPE  C21616626   4.425   0.920   8.930 -0.9994  0.0591 -0.5109
  150SAPE  H16R16627   4.335   0.914   8.866  0.1694  0.7559 -2.2790
  150SAPE  H16S16628   4.449   0.813   8.952 -0.4640  0.3927  0.6222
  150SAPE  C21716629   4.532   0.973   8.824  0.0834 -0.2021 -0.0389
  150SAPE  H17R16630   4.548   0.885   8.758 -0.7138 -0.1604 -0.3036
  150SAPE  H17S16631   4.626   0.996   8.878 -0.0985 -1.0221  0.6473
  150SAPE  C21816632   4.473   1.085   8.739  0.1888  0.1383  0.6841
  150SAPE  H18R16633   4.459   1.169   8.810 -2.1918 -2.0313  3.0410
  150SAPE  H18S16634   4.368   1.053   8.720  0.3597  0.3996 -0.7767
  150SAPE  C21916635   4.549   1.121   8.615 -0.2400 -0.7031 -0.6821
  150SAPE  H19R16636   4.655   1.132   8.647 -0.0773  2.8735 -1.9545
  150SAPE  H19S16637   4.527   1.217   8.564  0.4035 -0.1945 -0.0387
  150SAPE  C22016638   4.548   1.007   8.512 -0.8002  0.0030 -0.3046
  150SAPE  H20R16639   4.553   0.910   8.565  1.0889 -0.2448 -0.8623
  150SAPE  H20S16640   4.621   1.037   8.434 -0.8585 -1.3064 -0.8741
  150SAPE  H20T16641   4.449   1.011   8.461 -0.5283 -1.8837 -1.0195
  150SAPE   C3316642   4.471   0.502   9.982 -0.1446 -0.3325  0.6962
  150SAPE   H3X16643   4.534   0.413  10.005  0.5596 -0.7669 -2.3621
  150SAPE   H3Y16644   4.546   0.582   9.969  2.0605 -2.2226  1.0957
  150SAPE   C3416645   4.392   0.469   9.854 -0.4314 -0.5396 -0.1711
  150SAPE   H4X16646   4.323   0.556   9.840 -1.5557 -1.2832  0.5560
  150SAPE   H4Y16647   4.324   0.384   9.874 -0.9641  0.0269  0.5062
  150SAPE   C3516648   4.490   0.440   9.735 -0.1429 -0.0894 -0.2413
  150SAPE   H5X16649   4.540   0.345   9.761  2.9928  1.4796 -0.0931
  150SAPE   H5Y16650   4.574   0.512   9.735 -0.1321 -0.1035  0.3597
  150SAPE   C3616651   4.427   0.455   9.593 -0.4703  0.7771 -0.0483
  150SAPE   H6X16652   4.397   0.558   9.565  0.0573  2.2413  4.1444
  150SAPE   H6Y16653   4.345   0.381   9.581  1.4132 -1.1348 -2.0517
  150SAPE   C3716654   4.540   0.429   9.484  0.4547  0.3746  0.9854
  150SAPE   H7X16655   4.565   0.321   9.475 -0.2209  0.0836  2.3018
  150SAPE   H7Y16656   4.628   0.493   9.508  3.5833 -3.1912 -0.1070
  150SAPE   C3816657   4.492   0.474   9.346  0.4143  0.0187  0.0242
  150SAPE   H8X16658   4.462   0.580   9.340 -2.2841 -0.6324  0.8378
  150SAPE   H8Y16659   4.390   0.430   9.347  0.0878  0.7567 -0.3826
  150SAPE   C3916660   4.564   0.414   9.227 -0.0561  0.2901  1.8429
  150SAPE   H9X16661   4.555   0.304   9.236 -0.5004 -0.0559 -1.4844
  150SAPE   H9Y16662   4.672   0.437   9.214 -0.2578  0.6212  0.6245
  150SAPE  C31016663   4.480   0.455   9.105  0.4721 -0.8003 -0.8390
  150SAPE  H10X16664   4.456   0.561   9.084 -2.0040 -1.1535 -0.0415
  150SAPE  H10Y16665   4.381   0.411   9.129  1.4162 -2.7250 -0.2823
  150SAPE  C31116666   4.538   0.413   8.970 -0.6469 -0.1457  0.3538
  150SAPE  H11X16667   4.560   0.304   8.970 -0.6441 -0.1491 -0.1897
  150SAPE  H11Y16668   4.636   0.461   8.951 -1.3332  1.3776  0.5323
  150SAPE  C31216669   4.455   0.459   8.850 -0.5376  0.0645 -0.3623
  150SAPE  H12X16670   4.522   0.448   8.762 -0.5950  0.9389 -0.5202
  150SAPE  H12Y16671   4.430   0.567   8.852 -4.1602 -0.6727  0.4442
  150SAPE  C31316672   4.332   0.377   8.822 -0.3680 -0.3452 -0.0457
  150SAPE  H13X16673   4.271   0.448   8.762 -0.0935  1.0530  1.2567
  150SAPE  H13Y16674   4.277   0.351   8.915 -1.6652  0.7164 -0.4780
  150SAPE  C31416675   4.355   0.246   8.743 -0.5510  0.0195  0.0955
  150SAPE  H14X16676   4.407   0.182   8.817  0.2580  1.2502  0.6315
  150SAPE  H14Y16677   4.436   0.248   8.667 -0.7308 -1.7484 -0.1628
  150SAPE  C31516678   4.230   0.180   8.672 -0.1202  0.1034  0.4425
  150SAPE  H15X16679   4.277   0.093   8.621  0.5983 -0.1317  1.4639
  150SAPE  H15Y16680   4.187   0.251   8.599  0.9177 -1.8719 -2.2487
  150SAPE  C31616681   4.134   0.131   8.778 -0.3086 -0.5452  0.8315
  150SAPE  H16X16682   4.090   0.219   8.830 -1.1502  0.6004 -1.6238
  150SAPE  H16Y16683   4.199   0.073   8.847  2.0579 -0.2191 -0.9699
  150SAPE  C31716684   4.042   0.030   8.721  0.3315  0.5930  0.3388
  150SAPE  H17X16685   4.005  -0.027   8.808  0.8327 -0.8575 -0.3722
  150SAPE  H17Y16686   4.114  -0.042   8.677  0.7845  1.1958  0.0689
  150SAPE  C31816687   3.945   0.077   8.614  0.1203  0.2744 -0.3334
  150SAPE  H18X16688   3.872  -0.005   8.597  0.7747 -0.7791  1.6579
  150SAPE  H18Y16689   4.008   0.110   8.528 -0.7167  1.1395 -0.6231
  150SAPE  H18Z16690   3.894   0.169   8.649  0.6936  0.0298  1.2448
  151SAPE     N16691   1.153   3.153  10.773 -0.0605  0.1289 -0.0805
  151SAPE   HN116692   1.166   3.184  10.674  0.6394 -1.4598 -0.5269
  151SAPE   HN216693   1.132   3.051  10.773 -0.8554  0.2666 -1.5539
  151SAPE   HN316694   1.066   3.199  10.805  0.8679  1.8265  0.1180
  151SAPE   C1216695   1.281   3.166  10.857  0.2778 -0.4544 -0.3073
  151SAPE  H12A16696   1.261   3.133  10.961 -1.7336  0.1215 -0.4696
  151SAPE  H12B16697   1.297   3.276  10.862 -1.5129 -0.2126  1.7011
  151SAPE   C1116698   1.407   3.090  10.793  0.7002 -0.4484 -0.2639
  151SAPE  H11A16699   1.388   2.981  10.806  1.8555 -0.4549  1.9369
  151SAPE  H11B16700   1.501   3.110  10.849 -0.0257  0.0778  0.8231
  151SAPE     P16701   1.553   3.053  10.597 -0.1643  0.2989 -0.1635
  151SAPE   O1316702   1.670   3.129  10.643 -0.1869 -0.6663 -0.0354
  151SAPE   O1416703   1.549   2.909  10.629 -0.5940  0.1623  0.3583
  151SAPE   O1216704   1.429   3.126  10.658  0.1367 -0.2475  0.3268
  151SAPE   O1116705   1.530   3.077  10.445  0.1455 -0.1641  0.3182
  151SAPE    C116706   1.393   3.086  10.383 -0.6688 -0.0518 -0.2166
  151SAPE    HA16707   1.329   3.154  10.443  0.7240  0.5700  0.6128
  151SAPE    HB16708   1.387   3.123  10.279  1.9395 -1.3812 -0.9242
  151SAPE    C216709   1.331   2.937  10.362 -0.1700  0.6965  0.4113
  151SAPE    HS16710   1.300   2.887  10.456 -2.2451 -3.4682 -2.2046
  151SAPE   O2116711   1.427   2.858  10.290 -0.0352 -0.3624  0.3889
  151SAPE   C2116712   1.414   2.729  10.292  0.2122  0.1072  0.1376
  151SAPE   O2216713   1.316   2.667  10.342  0.4587 -0.2327 -0.3033
  151SAPE   C2216714   1.530   2.655  10.229  0.3583  0.0386  0.1737
  151SAPE   H2R16715   1.560   2.708  10.136 -0.6121 -2.2497 -1.5577
  151SAPE   H2S16716   1.605   2.642  10.309  0.3301 -2.2030 -0.1200
  151SAPE    C316717   1.194   2.946  10.284  0.5470 -0.3214  0.0473
  151SAPE    HX16718   1.121   3.014  10.333 -0.3170 -0.5464 -0.9024
  151SAPE    HY16719   1.146   2.847  10.293  0.8482 -0.2892  3.2029
  151SAPE   O3116720   1.218   3.005  10.150  0.1540  0.3384  0.2246
  151SAPE   C3116721   1.248   2.916  10.058  0.5085 -0.5084  0.7053
  151SAPE   O3216722   1.229   2.798  10.059 -0.3029  0.6467  0.0435
  151SAPE   C3216723   1.335   2.990   9.953  0.4006 -0.2037 -0.6692
  151SAPE   H2X16724   1.440   2.985   9.989  0.8324  1.2762 -1.6299
  151SAPE   H2Y16725   1.309   3.098   9.955  0.5600 -0.1610 -0.8270
  151SAPE   C2316726   1.474   2.518  10.191 -0.0085  0.3136  0.9272
  151SAPE   H3R16727   1.383   2.521  10.128 -0.0283 -2.2191  0.7006
  151SAPE   H3S16728   1.433   2.458  10.275 -0.7489 -3.7104 -1.9649
  151SAPE   C2416729   1.587   2.438  10.126  0.5146  0.0744 -0.5133
  151SAPE   H4R16730   1.667   2.431  10.203  1.3859  0.1403 -1.3877
  151SAPE   H4S16731   1.624   2.486  10.032 -1.6188 -0.8888 -1.9375
  151SAPE   C2516732   1.537   2.294  10.100  0.8382  0.1341 -0.1956
  151SAPE   H5R16733   1.549   2.228  10.187  1.8038  0.6109  0.0461
  151SAPE   C2616734   1.504   2.249   9.981  0.0160  0.2280 -0.0433
  151SAPE   H6R16735   1.454   2.151   9.985 -1.0192  0.7432 -0.1701
  151SAPE   C2716736   1.500   2.322   9.852 -0.2438 -0.0360  0.3310
  151SAPE   H7R16737   1.505   2.249   9.768  1.5289 -0.5252  0.8241
  151SAPE   H7S16738   1.604   2.357   9.841  1.3521 -3.7965  1.6031
  151SAPE   C2816739   1.391   2.424   9.826 -0.0720  0.2465  0.0413
  151SAPE   H8R16740   1.354   2.483   9.912  0.8368 -0.3112  0.8325
  151SAPE   C2916741   1.318   2.436   9.714 -0.0955  0.7395 -0.3108
  151SAPE   H9R16742   1.241   2.515   9.708 -1.2609 -0.3591 -0.3744
  151SAPE  C21016743   1.344   2.357   9.587 -0.2481 -0.8074  0.3350
  151SAPE  H10R16744   1.347   2.249   9.614 -2.6219 -1.3516 -1.1696
  151SAPE  H10S16745   1.444   2.385   9.548 -1.2543 -0.5585 -2.3567
  151SAPE  C21116746   1.231   2.371   9.481 -0.2385  0.6757 -0.6970
  151SAPE  H11R16747   1.132   2.351   9.525  0.3070  1.3126  0.9069
  151SAPE  C21216748   1.245   2.397   9.354 -0.8444  0.2080  0.7626
  151SAPE  H12R16749   1.156   2.415   9.290 -0.2099  0.8369  0.0315
  151SAPE  C21316750   1.377   2.419   9.284  0.2350  0.1145  0.5295
  151SAPE  H13R16751   1.472   2.391   9.334  1.4366  1.8926 -0.6232
  151SAPE  H13S16752   1.397   2.527   9.269 -0.0143 -0.0077 -0.8579
  151SAPE  C21416753   1.364   2.365   9.146 -0.8214 -0.1561 -0.4241
  151SAPE  H14R16754   1.285   2.417   9.090 -0.4737  2.3345  1.2744
  151SAPE  C21516755   1.436   2.263   9.094  0.6930 -0.3694  0.1736
  151SAPE  H15R16756   1.422   2.240   8.988 -2.2503  1.1077  0.1430
  151SAPE  C21616757   1.540   2.184   9.165 -0.2234  0.1029  0.2550
  151SAPE  H16R16758   1.621   2.248   9.206  1.1880  0.0164 -2.1548
  151SAPE  H16S16759   1.602   2.135   9.086 -0.6030 -1.5559  0.9614
  151SAPE  C21716760   1.475   2.081   9.253  0.1562  0.3906 -0.0872
  151SAPE  H17R16761   1.408   2.019   9.189  2.1440  0.3850 -2.3015
  151SAPE  H17S16762   1.419   2.131   9.335 -0.0903  0.3144 -0.2085
  151SAPE  C21816763   1.571   1.989   9.327 -0.1121  0.0352 -0.8690
  151SAPE  H18R16764   1.631   1.936   9.250  0.6427  1.9109 -1.6168
  151SAPE  H18S16765   1.529   1.911   9.394  1.9116  0.6076  1.1786
  151SAPE  C21916766   1.676   2.070   9.410 -0.2379 -0.1165 -0.1912
  151SAPE  H19R16767   1.734   2.137   9.343 -0.5010  0.4527  0.1464
  151SAPE  H19S16768   1.739   1.991   9.456 -0.9902 -1.4235 -1.3044
  151SAPE  C22016769   1.608   2.159   9.517 -0.2537 -0.9826  0.1713
  151SAPE  H20R16770   1.676   2.192   9.598  0.6859  0.1584 -1.0353
  151SAPE  H20S16771   1.527   2.100   9.564  1.5884 -2.4793  1.5769
  151SAPE  H20T16772   1.557   2.243   9.464 -0.9630 -1.1162  0.6303
  151SAPE   C3316773   1.328   2.924   9.812 -0.0581 -0.5599 -0.3063
  151SAPE   H3X16774   1.338   2.814   9.823 -3.2658 -0.7564  2.0827
  151SAPE   H3Y16775   1.410   2.973   9.756  0.1159 -0.1692  0.2855
  151SAPE   C3416776   1.191   2.948   9.749 -0.2727 -0.4532 -0.0426
  151SAPE   H4X16777   1.154   3.053   9.750 -2.0307 -1.0260 -0.7084
  151SAPE   H4Y16778   1.120   2.900   9.819 -1.9884  0.5521 -1.0145
  151SAPE   C3516779   1.182   2.893   9.612 -0.0217  0.2877 -0.3628
  151SAPE   H5X16780   1.077   2.903   9.577  0.2979  1.6503 -0.9936
  151SAPE   H5Y16781   1.218   2.788   9.608  2.0268  0.8229  1.8664
  151SAPE   C3616782   1.274   2.971   9.511  0.3285 -0.1348  0.3687
  151SAPE   H6X16783   1.382   2.981   9.535  0.5764 -0.9114 -0.3963
  151SAPE   H6Y16784   1.237   3.076   9.507 -0.0524 -0.2886 -0.3421
  151SAPE   C3716785   1.279   2.890   9.383  0.7505 -0.6271  0.8175
  151SAPE   H7X16786   1.178   2.899   9.337  0.9923  1.2025  0.5798
  151SAPE   H7Y16787   1.294   2.782   9.403  0.6015 -0.6448  0.8362
  151SAPE   C3816788   1.394   2.918   9.291 -0.4269  0.3935 -0.4131
  151SAPE   H8X16789   1.482   2.885   9.350  0.6874 -1.0945 -2.7683
  151SAPE   H8Y16790   1.397   3.023   9.255  0.5107  0.9425  1.1447
  151SAPE   C3916791   1.395   2.838   9.163  1.3164  0.1627 -0.1720
  151SAPE   H9X16792   1.321   2.879   9.092  1.9946  0.7752 -0.5423
  151SAPE   H9Y16793   1.377   2.731   9.185  1.4076 -0.0660 -1.1873
  151SAPE  C31016794   1.521   2.847   9.079 -0.1662 -0.0006 -0.8367
  151SAPE  H10X16795   1.515   2.778   8.992 -1.1159  0.4131 -1.1117
  151SAPE  H10Y16796   1.600   2.824   9.154 -2.2376 -0.2234  1.4030
  151SAPE  C31116797   1.539   2.981   9.014  0.4595 -0.6856  0.1293
  151SAPE  H11X16798   1.595   3.042   9.088  0.9055  0.5988 -1.2227
  151SAPE  H11Y16799   1.443   3.020   8.974  1.4843  0.4535 -1.3043
  151SAPE  C31216800   1.620   2.970   8.883 -0.3004 -0.9004  0.1515
  151SAPE  H12X16801   1.563   2.899   8.821 -0.6273 -1.7754  1.4271
  151SAPE  H12Y16802   1.721   2.929   8.906  1.3127 -0.2487 -4.5876
  151SAPE  C31316803   1.633   3.109   8.809 -0.5690 -0.0689  0.2174
  151SAPE  H13X16804   1.691   3.177   8.875 -2.2530 -0.1064  1.8358
  151SAPE  H13Y16805   1.530   3.149   8.813 -0.4061  0.3424  0.3840
  151SAPE  C31416806   1.676   3.091   8.665  0.3183  0.4507 -0.8100
  151SAPE  H14X16807   1.756   3.014   8.673  0.5536  0.8346  0.9728
  151SAPE  H14Y16808   1.727   3.183   8.629 -0.4488  1.3692  0.3508
  151SAPE  C31516809   1.561   3.053   8.567 -0.3409 -0.1985  0.2383
  151SAPE  H15X16810   1.501   3.146   8.559 -0.2988 -0.1076  0.9047
  151SAPE  H15Y16811   1.498   2.974   8.614 -0.0911 -0.8040 -0.4200
  151SAPE  C31616812   1.609   2.999   8.436 -0.1629 -0.7431  0.7029
  151SAPE  H16X16813   1.537   2.959   8.361 -0.2416 -1.2079  1.0218
  151SAPE  H16Y16814   1.681   2.915   8.449  0.7682 -0.1519 -0.4472
  151SAPE  C31716815   1.675   3.110   8.353  0.1625  0.0182  0.0633
  151SAPE  H17X16816   1.717   3.068   8.259 -0.4152 -0.8957  0.1919
  151SAPE  H17Y16817   1.761   3.149   8.411  1.0777  1.3293 -2.0817
  151SAPE  C31816818   1.573   3.224   8.312 -1.2033  0.1173 -0.1178
  151SAPE  H18X16819   1.622   3.289   8.236  0.4961 -0.7735  0.1593
  151SAPE  H18Y16820   1.548   3.288   8.399  0.9609  0.5886  0.2317
  151SAPE  H18Z16821   1.477   3.175   8.284 -1.2896 -0.6029  1.3736
  152SAPE     N16822   2.445   4.646  10.579  0.3662 -0.1742 -0.2403
  152SAPE   HN116823   2.379   4.710  10.529  0.5234  0.1323 -0.0574
  152SAPE   HN216824   2.452   4.570  10.508 -1.4812  0.6610 -1.4120
  152SAPE   HN316825   2.389   4.611  10.660  2.4509  2.0395  2.3319
  152SAPE   C1216826   2.568   4.699  10.631 -0.4673 -0.5779  0.0889
  152SAPE  H12A16827   2.534   4.793  10.679 -1.5486 -1.1133  0.4055
  152SAPE  H12B16828   2.636   4.728  10.548  3.1545 -0.2925  2.9126
  152SAPE   C1116829   2.648   4.599  10.718  1.2020 -0.2856 -0.5588
  152SAPE  H11A16830   2.588   4.556  10.801  3.9929 -0.0409  1.7581
  152SAPE  H11B16831   2.725   4.656  10.775  2.2888  0.5863 -2.7979
  152SAPE     P16832   2.839   4.415  10.685  0.1101  0.1382 -0.0422
  152SAPE   O1316833   2.905   4.486  10.798 -0.4647 -0.3248  0.7643
  152SAPE   O1416834   2.806   4.270  10.707 -0.3148  0.1026 -0.0948
  152SAPE   O1216835   2.700   4.491  10.641 -0.1845  0.4352  0.3277
  152SAPE   O1116836   2.926   4.424  10.554 -0.7206 -0.1799 -0.1211
  152SAPE    C116837   2.857   4.470  10.436  0.3147  0.8319 -0.2299
  152SAPE    HA16838   2.776   4.395  10.423  1.4098 -0.4364  0.1005
  152SAPE    HB16839   2.826   4.577  10.438  2.3055  1.4347  1.1304
  152SAPE    C216840   2.943   4.459  10.312 -0.2733 -0.4983 -0.5635
  152SAPE    HS16841   2.976   4.354  10.295 -3.2548 -1.5061 -0.6036
  152SAPE   O2116842   3.048   4.560  10.303  0.2797  0.8865 -0.0503
  152SAPE   C2116843   3.141   4.526  10.220 -0.1060 -0.3641 -0.6518
  152SAPE   O2216844   3.168   4.415  10.181 -0.1619  0.5920  0.2310
  152SAPE   C2216845   3.238   4.650  10.196 -0.3894  0.3659  0.5009
  152SAPE   H2R16846   3.178   4.742  10.211 -0.6282  0.3230 -0.1672
  152SAPE   H2S16847   3.318   4.641  10.272 -0.9405 -1.1320  0.9434
  152SAPE    C316848   2.850   4.480  10.195  0.7409  0.4532 -0.1731
  152SAPE    HX16849   2.834   4.590  10.187 -0.0240  0.3549 -0.0960
  152SAPE    HY16850   2.757   4.424  10.218  2.1360 -0.7791  2.9000
  152SAPE   O3116851   2.901   4.435  10.070 -0.0810  0.3391  0.3394
  152SAPE   C3116852   2.880   4.305  10.034  0.6800 -0.5275  0.0879
  152SAPE   O3216853   2.825   4.222  10.105 -0.0725  0.3964 -0.1395
  152SAPE   C3216854   2.938   4.275   9.898 -0.5093 -0.3061 -0.7930
  152SAPE   H2X16855   3.044   4.309   9.896 -0.1399 -1.3542 -0.1933
  152SAPE   H2Y16856   2.888   4.348   9.831 -3.5932 -1.7323 -0.2104
  152SAPE   C2316857   3.309   4.651  10.047  0.4453  0.6216 -0.7299
  152SAPE   H3R16858   3.353   4.551  10.026 -0.7405 -0.2956  0.8877
  152SAPE   H3S16859   3.396   4.720  10.052  1.3353 -0.0983 -3.9799
  152SAPE   C2416860   3.205   4.697   9.947  0.1854  0.2363 -0.1334
  152SAPE   H4R16861   3.248   4.753   9.861  2.1684  0.5773  1.0097
  152SAPE   H4S16862   3.145   4.774   9.999 -0.1410 -0.1000 -0.0048
  152SAPE   C2516863   3.124   4.584   9.884  0.2141 -0.0556 -0.2309
  152SAPE   H5R16864   3.046   4.539   9.947 -0.3285  1.4638  0.2145
  152SAPE   C2616865   3.143   4.533   9.759  0.6508  0.6564 -0.4543
  152SAPE   H6R16866   3.075   4.452   9.733 -0.3605  1.2604  0.2355
  152SAPE   C2716867   3.240   4.578   9.647  0.7334 -0.5227  1.1076
  152SAPE   H7R16868   3.268   4.493   9.581  1.6573  0.1860  0.5595
  152SAPE   H7S16869   3.338   4.606   9.692  0.1200  1.3135  1.3804
  152SAPE   C2816870   3.172   4.688   9.571  0.1903  0.3500  0.7011
  152SAPE   H8R16871   3.112   4.760   9.629 -1.5916  0.0920 -0.7311
  152SAPE   C2916872   3.170   4.700   9.434  0.9341 -0.1274 -0.2986
  152SAPE   H9R16873   3.126   4.791   9.390  1.1185  0.3975  0.5707
  152SAPE  C21016874   3.241   4.613   9.335  0.0326  0.1278 -0.1731
  152SAPE  H10R16875   3.245   4.507   9.368  0.4508  0.4891  0.9916
  152SAPE  H10S16876   3.346   4.651   9.332  0.6868 -1.4921  0.8554
  152SAPE  C21116877   3.160   4.627   9.207 -0.5978  0.0179 -0.1785
  152SAPE  H11R16878   3.065   4.572   9.208 -1.2306  1.0766  0.0005
  152SAPE  C21216879   3.199   4.678   9.089  0.4989  0.0124  0.0547
  152SAPE  H12R16880   3.123   4.670   9.009 -0.7680 -1.3179  1.3300
  152SAPE  C21316881   3.328   4.728   9.030 -0.6629 -0.4831  0.0495
  152SAPE  H13R16882   3.388   4.790   9.100 -0.2408 -0.0062 -0.7182
  152SAPE  H13S16883   3.300   4.806   8.956 -2.6259 -1.5998 -0.4494
  152SAPE  C21416884   3.422   4.623   8.981 -0.1100 -0.3185 -0.4115
  152SAPE  H14R16885   3.426   4.536   9.048  1.3489  0.7978  1.0156
  152SAPE  C21516886   3.482   4.614   8.862 -0.6937 -0.7321 -0.0060
  152SAPE  H15R16887   3.549   4.529   8.840 -1.2626 -1.7029  1.8097
  152SAPE  C21616888   3.486   4.715   8.756  0.5287 -0.9452 -0.3357
  152SAPE  H16R16889   3.585   4.717   8.706  1.1104 -2.5570  0.6996
  152SAPE  H16S16890   3.463   4.813   8.803  1.0225 -0.7586 -0.4751
  152SAPE  C21716891   3.384   4.704   8.643 -0.0862  0.1768  0.8560
  152SAPE  H17R16892   3.400   4.780   8.563  0.7556  0.2430  1.0721
  152SAPE  H17S16893   3.285   4.718   8.690 -1.0567 -2.2374 -0.3147
  152SAPE  C21816894   3.386   4.577   8.557 -0.7169  0.6021 -0.1979
  152SAPE  H18R16895   3.401   4.489   8.624 -1.2317 -0.2458 -1.1642
  152SAPE  H18S16896   3.480   4.593   8.501  2.4365 -1.1174  3.9829
  152SAPE  C21916897   3.261   4.568   8.477 -0.3435  0.2660 -0.3843
  152SAPE  H19R16898   3.274   4.654   8.408 -0.4462 -0.8381 -1.8609
  152SAPE  H19S16899   3.170   4.579   8.539 -2.6378  0.0060 -3.4243
  152SAPE  C22016900   3.243   4.435   8.408 -0.2584  0.1404 -0.1289
  152SAPE  H20R16901   3.204   4.365   8.485  2.0337 -0.6810  0.3851
  152SAPE  H20S16902   3.332   4.400   8.351 -0.4482  0.4644 -0.6288
  152SAPE  H20T16903   3.159   4.451   8.338  0.7054  1.0523 -1.1152
  152SAPE   C3316904   2.925   4.123   9.868  0.4504 -0.0504 -0.0598
  152SAPE   H3X16905   2.818   4.092   9.875  0.2645  0.8323  1.4989
  152SAPE   H3Y16906   2.973   4.060   9.945 -1.2624  0.1126  1.2147
  152SAPE   C3416907   2.976   4.087   9.728  0.5644  0.0379  0.5096
  152SAPE   H4X16908   3.083   4.116   9.725  0.3221  0.9030 -1.7059
  152SAPE   H4Y16909   2.921   4.147   9.653  0.5954 -0.2836  0.2224
  152SAPE   C3516910   2.983   3.938   9.693  0.1656 -0.1493  0.0730
  152SAPE   H5X16911   2.879   3.900   9.705 -0.0295  0.0271 -1.0114
  152SAPE   H5Y16912   3.038   3.880   9.770 -2.4123 -0.4249  1.8350
  152SAPE   C3616913   3.034   3.897   9.555  0.0199  0.0811 -0.6627
  152SAPE   H6X16914   3.052   3.789   9.571 -0.4814 -0.2146 -2.0115
  152SAPE   H6Y16915   3.138   3.935   9.542  0.2657 -0.1409  0.5559
  152SAPE   C3716916   2.948   3.937   9.440 -0.6039 -0.9023  0.5724
  152SAPE   H7X16917   2.952   4.048   9.436  1.4364 -0.9596 -0.1450
  152SAPE   H7Y16918   2.842   3.903   9.447 -1.0793  0.7293  2.0333
  152SAPE   C3816919   2.993   3.882   9.302 -0.3308 -0.7473  0.1631
  152SAPE   H8X16920   2.991   3.772   9.316  0.5363 -0.7054  0.6770
  152SAPE   H8Y16921   3.098   3.913   9.283 -0.8828  1.7163  0.7630
  152SAPE   C3916922   2.919   3.924   9.176  0.0269  0.6875  0.8374
  152SAPE   H9X16923   2.927   4.029   9.144 -0.9519  1.9869  4.3683
  152SAPE   H9Y16924   2.811   3.899   9.173  0.1432  0.2646 -0.8077
  152SAPE  C31016925   2.972   3.840   9.053 -0.6049 -0.0286 -0.7837
  152SAPE  H10X16926   2.968   3.731   9.074  1.0777  0.0506  0.0911
  152SAPE  H10Y16927   3.078   3.872   9.041 -0.6171 -0.2140 -1.4133
  152SAPE  C31116928   2.889   3.870   8.926 -0.2078 -0.2996  0.0127
  152SAPE  H11X16929   2.884   3.980   8.909  0.7251 -0.3396 -0.5898
  152SAPE  H11Y16930   2.784   3.842   8.947 -0.2348  0.7964  1.5788
  152SAPE  C31216931   2.943   3.804   8.796  0.4831  0.3885 -0.6276
  152SAPE  H12X16932   3.050   3.833   8.791  0.1302  1.9822  0.3422
  152SAPE  H12Y16933   2.906   3.857   8.706  0.7844  0.3944 -0.7504
  152SAPE  C31316934   2.917   3.652   8.791 -0.0974  0.5546 -0.0698
  152SAPE  H13X16935   2.809   3.643   8.767 -0.5317  0.9966  1.6204
  152SAPE  H13Y16936   2.923   3.612   8.895  1.0927  1.5806  0.2816
  152SAPE  C31416937   3.014   3.581   8.703  0.7977 -0.6971 -0.1169
  152SAPE  H14X16938   2.996   3.625   8.603 -2.3599 -0.3734  0.5017
  152SAPE  H14Y16939   2.998   3.471   8.707 -0.1736 -0.5561 -0.0000
  152SAPE  C31516940   3.155   3.590   8.751 -0.6679  0.1505  0.0270
  152SAPE  H15X16941   3.169   3.514   8.831  1.6377  1.3077  0.8145
  152SAPE  H15Y16942   3.188   3.687   8.795 -0.5259 -0.1639  0.6315
  152SAPE  C31616943   3.260   3.548   8.644 -0.3954  0.0024 -0.6838
  152SAPE  H16X16944   3.359   3.539   8.694 -0.3319 -1.0112 -0.9747
  152SAPE  H16Y16945   3.274   3.639   8.582  2.5893  0.1966  0.1106
  152SAPE  C31716946   3.228   3.427   8.562 -0.0743  0.2365  0.0542
  152SAPE  H17X16947   3.132   3.442   8.508  0.1360 -1.2093 -0.7722
  152SAPE  H17Y16948   3.215   3.338   8.628  1.1783  1.6534  2.3424
  152SAPE  C31816949   3.342   3.393   8.462  0.2969  0.1464  0.6307
  152SAPE  H18X16950   3.313   3.320   8.384 -0.8172  2.9365 -1.7113
  152SAPE  H18Y16951   3.435   3.362   8.515  0.7101  2.3350  1.3112
  152SAPE  H18Z16952   3.368   3.480   8.398 -0.4528 -0.2702 -0.2563
  153SAPE     N16953   0.929   4.080  10.499 -0.1942 -0.6405 -0.1269
  153SAPE   HN116954   0.858   4.050  10.429  1.8801 -0.7889 -2.2996
  153SAPE   HN216955   0.937   4.016  10.581  1.5519 -2.3765 -1.5387
  153SAPE   HN316956   0.924   4.178  10.531  1.5529 -0.3774 -0.5600
  153SAPE   C1216957   1.054   4.069  10.414  0.2810  0.2437 -0.4211
  153SAPE  H12A16958   1.086   4.172  10.384 -1.1241 -0.5936 -5.8360
  153SAPE  H12B16959   1.019   4.005  10.330  1.9110 -2.9469  1.1805
  153SAPE   C1116960   1.161   4.001  10.504  0.4452 -0.7727  0.2580
  153SAPE  H11A16961   1.245   3.988  10.432 -0.3281  1.5792 -1.1652
  153SAPE  H11B16962   1.125   3.902  10.540  0.9475 -0.0026  3.1135
  153SAPE     P16963   1.312   4.069  10.709  0.4950 -0.1189 -0.1534
  153SAPE   O1316964   1.304   4.187  10.802  0.5556 -0.2353  0.5788
  153SAPE   O1416965   1.301   3.936  10.773  0.4879  0.0373  0.0765
  153SAPE   O1216966   1.186   4.086  10.617  0.5273  0.1790  0.2634
  153SAPE   O1116967   1.436   4.085  10.616 -0.2442 -1.0067  0.4705
  153SAPE    C116968   1.524   4.192  10.632 -0.6282 -1.0862 -0.4690
  153SAPE    HA16969   1.552   4.217  10.736  0.5247 -1.7925 -0.5925
  153SAPE    HB16970   1.620   4.171  10.580 -0.0407  0.6634 -0.1374
  153SAPE    C216971   1.476   4.335  10.570 -0.3482  0.6315  0.1017
  153SAPE    HS16972   1.385   4.364  10.628 -0.2674 -2.4453  1.9702
  153SAPE   O2116973   1.449   4.308  10.434  0.1238 -0.1174 -0.2636
  153SAPE   C2116974   1.355   4.385  10.383  0.5668  0.1917  0.4621
  153SAPE   O2216975   1.282   4.463  10.437  0.1799 -0.3804  0.0326
  153SAPE   C2216976   1.337   4.355  10.233 -0.2157  1.1071  0.1582
  153SAPE   H2R16977   1.432   4.327  10.184  0.7876  0.3891  2.3762
  153SAPE   H2S16978   1.273   4.264  10.227  1.7274 -0.3609  0.7096
  153SAPE    C316979   1.593   4.435  10.600  0.3624 -0.1579  0.1373
  153SAPE    HX16980   1.684   4.387  10.559  0.9217  0.5128  0.5745
  153SAPE    HY16981   1.612   4.449  10.709 -1.9403 -1.1068  0.7229
  153SAPE   O3116982   1.571   4.564  10.530 -0.1695 -0.4020  0.1617
  153SAPE   C3116983   1.614   4.562  10.401  0.6487  0.3619  0.3059
  153SAPE   O3216984   1.664   4.468  10.346  0.2223 -0.1861  0.0520
  153SAPE   C3216985   1.625   4.709  10.354 -1.0672 -0.0332  0.2338
  153SAPE   H2X16986   1.731   4.742  10.347 -0.8531 -0.4807  1.2116
  153SAPE   H2Y16987   1.570   4.773  10.427  0.5254  0.7676  0.7904
  153SAPE   C2316988   1.261   4.462  10.152  0.0389  0.4211 -0.3929
  153SAPE   H3R16989   1.296   4.561  10.188  0.6270  0.5157 -1.1984
  153SAPE   H3S16990   1.152   4.451  10.171 -0.2140  2.9275  0.0186
  153SAPE   C2416991   1.268   4.448   9.998  0.3854  0.0293 -0.4233
  153SAPE   H4R16992   1.222   4.530   9.938  1.1301  1.1753  0.5326
  153SAPE   H4S16993   1.222   4.349   9.980 -1.3932  0.9707 -1.4248
  153SAPE   C2516994   1.411   4.445   9.958  0.5774 -0.8085 -0.0831
  153SAPE   H5R16995   1.474   4.495  10.032 -1.5783 -0.3933  1.5756
  153SAPE   C2616996   1.470   4.390   9.848 -0.3467 -0.0994  0.5171
  153SAPE   H6R16997   1.579   4.395   9.839 -0.4430 -0.9639 -1.7492
  153SAPE   C2716998   1.395   4.299   9.753 -0.3266 -0.8865 -0.5224
  153SAPE   H7R16999   1.394   4.355   9.657 -1.0086  0.4163  0.2126
  153SAPE   H7S17000   1.285   4.290   9.762 -0.7510  0.6665 -3.1284
  153SAPE   C2817001   1.454   4.164   9.729 -0.0988 -0.5915  0.0475
  153SAPE   H8R17002   1.417   4.091   9.802 -0.7336  0.0298  0.3637
  153SAPE   C2917003   1.546   4.131   9.638 -0.1183  0.3719 -0.2149
  153SAPE   H9R17004   1.582   4.028   9.648 -0.8994  0.0664 -0.4319
  153SAPE  C21017005   1.612   4.210   9.527  0.3170 -0.6815 -0.6438
  153SAPE  H10R17006   1.718   4.178   9.515  1.2415  1.7293  0.4380
  153SAPE  H10S17007   1.618   4.319   9.548 -2.0323 -0.8853  1.4718
  153SAPE  C21117008   1.540   4.191   9.397 -0.1896 -0.3073 -0.0708
  153SAPE  H11R17009   1.540   4.087   9.362 -2.8982 -0.2975 -0.2895
  153SAPE  C21217010   1.480   4.287   9.326 -0.1389 -0.2471  0.4847
  153SAPE  H12R17011   1.422   4.266   9.234 -2.2325 -0.1388  1.7171
  153SAPE  C21317012   1.476   4.435   9.351  0.5882  0.3477 -0.4260
  153SAPE  H13R17013   1.539   4.483   9.273 -0.3856  2.4500  0.0209
  153SAPE  H13S17014   1.534   4.459   9.443  0.3015 -0.1276 -0.1144
  153SAPE  C21417015   1.338   4.496   9.367 -0.5774 -0.0148  0.5815
  153SAPE  H14R17016   1.253   4.441   9.410 -1.6720  1.1633  0.0091
  153SAPE  C21517017   1.305   4.621   9.319 -0.7676  0.2816 -0.1897
  153SAPE  H15R17018   1.201   4.655   9.329 -1.0043 -0.3252 -0.5520
  153SAPE  C21617019   1.403   4.711   9.242 -0.0106  0.5655 -0.2020
  153SAPE  H16R17020   1.498   4.661   9.212 -1.3023 -1.9972 -0.2827
  153SAPE  H16S17021   1.436   4.788   9.315  0.8875  0.9035 -0.9487
  153SAPE  C21717022   1.342   4.777   9.114  0.0608  0.5894  0.2271
  153SAPE  H17R17023   1.416   4.827   9.047 -1.1698  0.0116 -1.6337
  153SAPE  H17S17024   1.267   4.846   9.158  0.0161 -0.7091  2.3447
  153SAPE  C21817025   1.264   4.683   9.020  0.5092 -0.9994  0.1164
  153SAPE  H18R17026   1.183   4.630   9.073 -0.6132  0.4375 -0.0898
  153SAPE  H18S17027   1.332   4.606   8.977  0.5044 -1.5228  1.0199
  153SAPE  C21917028   1.194   4.765   8.901  0.3508  0.3775 -0.8336
  153SAPE  H19R17029   1.244   4.858   8.866  0.9300  0.7407  0.8659
  153SAPE  H19S17030   1.116   4.806   8.968 -1.0663 -0.9400 -1.6110
  153SAPE  C22017031   1.150   4.665   8.796 -0.1327 -0.4497 -0.4851
  153SAPE  H20R17032   1.239   4.614   8.755  1.5708  0.7243  1.5773
  153SAPE  H20S17033   1.103   4.728   8.718 -3.0896  0.0828  1.5399
  153SAPE  H20T17034   1.076   4.588   8.828  0.3096 -0.4529  0.5860
  153SAPE   C3317035   1.590   4.726  10.206  0.1080 -0.9533  0.3722
  153SAPE   H3X17036   1.573   4.833  10.181 -1.3242 -0.9082  1.4278
  153SAPE   H3Y17037   1.493   4.683  10.173  0.8296 -1.0846 -1.7455
  153SAPE   C3417038   1.690   4.661  10.111  0.0370  0.4772  0.1371
  153SAPE   H4X17039   1.685   4.550  10.110  1.2641  0.4107 -0.1308
  153SAPE   H4Y17040   1.793   4.686  10.143 -0.0901  0.6166  0.4383
  153SAPE   C3517041   1.680   4.719   9.971 -0.1434 -0.7603 -0.2050
  153SAPE   H5X17042   1.681   4.830   9.967  3.1141 -0.6919 -4.6874
  153SAPE   H5Y17043   1.589   4.672   9.928 -1.1026 -0.3276  1.2887
  153SAPE   C3617044   1.792   4.688   9.871 -0.1828 -0.2191  1.9073
  153SAPE   H6X17045   1.809   4.579   9.861 -3.1847 -0.6521  0.3448
  153SAPE   H6Y17046   1.888   4.729   9.906 -0.1819 -0.0364  1.6943
  153SAPE   C3717047   1.766   4.752   9.735 -0.3309 -0.2918  0.2467
  153SAPE   H7X17048   1.862   4.772   9.684  0.2690 -1.5434  0.8503
  153SAPE   H7Y17049   1.722   4.853   9.750  0.3138 -0.0828  0.7562
  153SAPE   C3817050   1.688   4.666   9.636  0.2779  0.2301  0.5032
  153SAPE   H8X17051   1.596   4.622   9.679 -0.6502  1.5502 -0.0784
  153SAPE   H8Y17052   1.746   4.578   9.599 -2.3785 -0.8908 -1.2790
  153SAPE   C3917053   1.648   4.737   9.500  0.3324 -0.7455 -0.0558
  153SAPE   H9X17054   1.601   4.834   9.526 -1.2860 -1.8006  1.1294
  153SAPE   H9Y17055   1.573   4.683   9.439  0.5653  1.3145 -2.2752
  153SAPE  C31017056   1.775   4.766   9.416  0.0093  0.0696 -0.5391
  153SAPE  H10X17057   1.845   4.680   9.426  0.3040  0.3015 -0.5773
  153SAPE  H10Y17058   1.822   4.863   9.442 -1.9907  1.0329 -0.3387
  153SAPE  C31117059   1.733   4.767   9.274 -0.8668 -0.0590  0.3148
  153SAPE  H11X17060   1.648   4.837   9.255 -0.3810  0.0953 -1.4552
  153SAPE  H11Y17061   1.690   4.666   9.258  3.6860 -2.3561  0.9421
  153SAPE  C31217062   1.848   4.794   9.172  0.2500  0.4677 -0.4316
  153SAPE  H12X17063   1.811   4.786   9.067 -0.5110 -0.2432 -0.1198
  153SAPE  H12Y17064   1.933   4.725   9.190  0.0336  0.0938 -0.8333
  153SAPE  C31317065   1.893   4.939   9.195 -0.6094  0.3707  0.2520
  153SAPE  H13X17066   1.939   4.939   9.296 -0.4687  2.7148  0.2366
  153SAPE  H13Y17067   1.815   5.018   9.197 -1.1264 -0.1413  1.7341
  153SAPE  C31417068   2.017   4.984   9.105  0.1136  0.2997  0.4593
  153SAPE  H14X17069   2.085   4.897   9.114 -0.9900 -0.5128  1.1405
  153SAPE  H14Y17070   2.054   5.076   9.157  2.0606  0.7644 -1.5782
  153SAPE  C31517071   1.975   5.021   8.966 -0.3362 -0.0096 -0.1187
  153SAPE  H15X17072   2.016   5.121   8.939 -2.2131  0.9814  0.5164
  153SAPE  H15Y17073   1.866   5.030   8.948 -0.3116 -0.7038 -0.6412
  153SAPE  C31617074   2.021   4.923   8.866  0.5463  0.1063  0.1357
  153SAPE  H16X17075   1.973   4.826   8.893  1.8477 -0.1995  1.4929
  153SAPE  H16Y17076   2.131   4.910   8.875  0.4140 -3.6601 -1.6560
  153SAPE  C31717077   1.992   4.965   8.719 -0.0806 -0.2196  0.0585
  153SAPE  H17X17078   2.066   5.043   8.693  0.6100 -1.7151 -2.8709
  153SAPE  H17Y17079   1.891   5.009   8.701 -0.5101  0.0881  2.8263
  153SAPE  C31817080   1.990   4.853   8.618 -0.3281 -0.2074 -0.0391
  153SAPE  H18X17081   1.916   4.777   8.651 -0.7088 -0.0625 -0.5435
  153SAPE  H18Y17082   2.089   4.804   8.604  0.3208  1.0249  0.0682
  153SAPE  H18Z17083   1.950   4.910   8.531  0.4278  4.6645  2.4312
  154SAPE     N17084   1.929   4.801  10.807  0.0743 -0.5462  0.1869
  154SAPE   HN117085   2.010   4.768  10.751 -0.6035 -1.0666 -0.5095
  154SAPE   HN217086   1.862   4.728  10.774 -1.0459  1.6122 -2.7646
  154SAPE   HN317087   1.912   4.900  10.780 -1.2533 -1.3114 -2.0842
  154SAPE   C1217088   1.958   4.787  10.957 -0.2295 -0.3096 -0.0565
  154SAPE  H12A17089   1.859   4.808  11.004 -0.4900 -2.1116  0.3069
  154SAPE  H12B17090   2.033   4.862  10.988 -1.8408  0.8434  1.2574
  154SAPE   C1117091   2.008   4.641  10.986 -0.4100 -0.1886 -0.2973
  154SAPE  H11A17092   1.930   4.564  10.967  1.3120 -1.6884 -1.6686
  154SAPE  H11B17093   2.031   4.644  11.094  2.1390 -1.0530 -0.7359
  154SAPE     P17094   2.145   4.514  10.783  0.1324  0.0966 -0.1270
  154SAPE   O1317095   2.287   4.522  10.749 -0.1028 -0.0219  0.2799
  154SAPE   O1417096   2.093   4.380  10.830 -0.5331 -0.2083 -0.1215
  154SAPE   O1217097   2.127   4.613  10.903 -0.1641 -0.5592 -0.3271
  154SAPE   O1117098   2.054   4.572  10.666  0.0694  0.0381 -0.4115
  154SAPE    C117099   2.001   4.489  10.561  0.4643  0.6199  1.0555
  154SAPE    HA17100   2.017   4.380  10.573  2.2904  0.6136 -0.8874
  154SAPE    HB17101   1.892   4.510  10.551  0.3699 -0.3443 -0.1452
  154SAPE    C217102   2.062   4.530  10.422  0.2223  0.5521 -0.0255
  154SAPE    HS17103   2.171   4.509  10.425 -0.0127 -0.6808  0.3578
  154SAPE   O2117104   2.031   4.668  10.388 -0.2696 -0.2077 -0.4997
  154SAPE   C2117105   2.135   4.747  10.379 -0.1260  0.1056 -0.0350
  154SAPE   O2217106   2.252   4.709  10.389  0.8197 -0.6167  0.1776
  154SAPE   C2217107   2.080   4.880  10.348 -0.5881 -0.3742  0.0861
  154SAPE   H2R17108   1.984   4.882  10.404  0.1558 -1.3979  1.4705
  154SAPE   H2S17109   2.133   4.971  10.382  3.1236 -1.3874 -2.3318
  154SAPE    C317110   2.025   4.436  10.300 -0.4675  0.0769 -0.2030
  154SAPE    HX17111   1.917   4.461  10.302 -0.0929  1.8164  1.9576
  154SAPE    HY17112   2.048   4.336  10.344 -1.3149 -1.1139 -2.3250
  154SAPE   O3117113   2.081   4.467  10.169  0.3537  0.0194  0.4144
  154SAPE   C3117114   2.200   4.422  10.140 -0.3752  0.2599  0.4649
  154SAPE   O3217115   2.280   4.370  10.220 -0.3723  0.8518 -0.5752
  154SAPE   C3217116   2.229   4.450   9.989 -0.1551  0.4497 -0.2222
  154SAPE   H2X17117   2.142   4.504   9.946 -0.5869  0.6629  0.8725
  154SAPE   H2Y17118   2.235   4.357   9.929  1.4018  0.2816  0.1438
  154SAPE   C2317119   2.047   4.898  10.195 -0.5459 -0.7915 -0.0883
  154SAPE   H3R17120   1.996   4.997  10.197  2.8054  1.1240  2.7508
  154SAPE   H3S17121   1.980   4.818  10.158 -0.5689 -0.9802  0.3609
  154SAPE   C2417122   2.170   4.899  10.105  1.2584  0.8947  0.1247
  154SAPE   H4R17123   2.143   4.879   9.999  1.0430  0.4900  0.2540
  154SAPE   H4S17124   2.221   4.806  10.136 -2.4336 -0.5429  2.5850
  154SAPE   C2517125   2.248   5.022  10.131  0.2598 -0.1160  0.3697
  154SAPE   H5R17126   2.295   5.031  10.230  0.5762 -0.3234  0.2393
  154SAPE   C2617127   2.289   5.112  10.039  0.1088  0.3920 -0.0063
  154SAPE   H6R17128   2.335   5.204  10.077  0.2863  0.4550 -0.3639
  154SAPE   C2717129   2.259   5.114   9.894  0.2720 -0.2748 -0.8053
  154SAPE   H7R17130   2.274   5.214   9.847  2.1996  0.6951  1.6489
  154SAPE   H7S17131   2.149   5.105   9.884  0.1615  0.2140 -0.0426
  154SAPE   C2817132   2.353   5.004   9.837  0.1228  1.0115  0.6685
  154SAPE   H8R17133   2.429   4.964   9.906 -1.7008 -1.0199  1.6193
  154SAPE   C2917134   2.336   4.954   9.711  0.6422  0.1197 -0.2139
  154SAPE   H9R17135   2.407   4.885   9.663 -0.8693  0.1627 -2.6853
  154SAPE  C21017136   2.227   4.998   9.617  0.7014 -0.3724 -0.0294
  154SAPE  H10R17137   2.275   5.033   9.523  1.7387 -0.7153  0.3616
  154SAPE  H10S17138   2.174   5.088   9.656 -0.7492 -0.0555 -2.5023
  154SAPE  C21117139   2.132   4.888   9.574 -0.3731  0.1966  0.2937
  154SAPE  H11R17140   2.033   4.879   9.621 -1.5592  2.4974 -1.5500
  154SAPE  C21217141   2.163   4.793   9.476  0.0821 -0.5903 -0.3174
  154SAPE  H12R17142   2.093   4.712   9.454 -1.0493  0.7142 -1.6415
  154SAPE  C21317143   2.302   4.789   9.414  1.1635 -0.4653 -0.3378
  154SAPE  H13R17144   2.374   4.848   9.474  1.0050 -0.0647 -0.5307
  154SAPE  H13S17145   2.298   4.842   9.316 -0.1809  1.4854  0.6912
  154SAPE  C21417146   2.352   4.651   9.414  0.8543 -0.1055  0.4812
  154SAPE  H14R17147   2.383   4.611   9.511  0.9785  0.6880  0.7767
  154SAPE  C21517148   2.371   4.581   9.299 -0.1207  0.3974  0.3565
  154SAPE  H15R17149   2.415   4.480   9.303 -0.8612  0.0042 -0.9103
  154SAPE  C21617150   2.344   4.621   9.158  0.5776 -0.4034 -0.0559
  154SAPE  H16R17151   2.439   4.626   9.100 -0.6669  0.8354 -2.0952
  154SAPE  H16S17152   2.312   4.727   9.158  0.8983 -0.3045  0.0063
  154SAPE  C21717153   2.239   4.528   9.108 -0.9013  0.2664 -0.1189
  154SAPE  H17R17154   2.138   4.540   9.153 -0.3977  5.9410  0.1896
  154SAPE  H17S17155   2.272   4.422   9.116 -1.3271  0.1632  0.3509
  154SAPE  C21817156   2.211   4.565   8.965 -0.0960  0.5255 -0.0101
  154SAPE  H18R17157   2.300   4.536   8.904 -1.7370  0.8178 -2.7334
  154SAPE  H18S17158   2.194   4.674   8.947  0.9599  0.6811 -0.1531
  154SAPE  C21917159   2.088   4.506   8.909  0.8732  0.2886  0.0278
  154SAPE  H19R17160   2.004   4.556   8.961  1.0078 -0.8836  1.4353
  154SAPE  H19S17161   2.095   4.396   8.925 -2.3484 -0.3186 -1.6910
  154SAPE  C22017162   2.063   4.530   8.763  1.0604  0.1339 -0.1547
  154SAPE  H20R17163   2.144   4.516   8.688  0.2681  1.8748 -1.3974
  154SAPE  H20S17164   2.025   4.634   8.770  4.0184  1.3276 -0.0120
  154SAPE  H20T17165   1.981   4.463   8.730  1.1844  0.1903 -0.5918
  154SAPE   C3317166   2.360   4.533   9.985  0.3061  0.1933 -0.0833
  154SAPE   H3X17167   2.434   4.505  10.062 -2.3912 -1.2612  2.1724
  154SAPE   H3Y17168   2.333   4.637  10.015 -0.1061 -0.3922  1.6570
  154SAPE   C3417169   2.432   4.517   9.850  0.4028 -0.7460  0.4424
  154SAPE   H4X17170   2.379   4.589   9.783  1.4805 -0.2045  0.1359
  154SAPE   H4Y17171   2.418   4.416   9.808 -0.7058 -0.4391  0.0334
  154SAPE   C3517172   2.581   4.550   9.859 -0.4584  0.1000  0.4457
  154SAPE   H5X17173   2.639   4.471   9.910 -0.5554  0.0630  0.4983
  154SAPE   H5Y17174   2.584   4.640   9.924 -0.9022  0.0293  0.5698
  154SAPE   C3617175   2.653   4.589   9.725 -0.5482  0.5442 -0.7352
  154SAPE   H6X17176   2.757   4.622   9.745 -1.0405  0.6628  1.9350
  154SAPE   H6Y17177   2.594   4.676   9.685 -0.1825  0.5149 -1.3549
  154SAPE   C3717178   2.660   4.470   9.620  0.1839 -0.3552 -0.2951
  154SAPE   H7X17179   2.559   4.435   9.592  1.0760 -0.8723 -3.2878
  154SAPE   H7Y17180   2.709   4.386   9.672 -1.9057  0.6384  3.6697
  154SAPE   C3817181   2.731   4.507   9.494 -0.2167  0.1093  0.4045
  154SAPE   H8X17182   2.812   4.580   9.513 -1.1507  1.2445  0.1496
  154SAPE   H8Y17183   2.658   4.578   9.449 -0.8952  1.1939  3.0661
  154SAPE   C3917184   2.762   4.381   9.416  0.1480  0.4312 -0.6210
  154SAPE   H9X17185   2.681   4.306   9.431  0.4877  0.1808 -0.0302
  154SAPE   H9Y17186   2.861   4.346   9.454  0.0871  2.0597  1.1853
  154SAPE  C31017187   2.784   4.416   9.275 -0.0919 -0.5478  0.8609
  154SAPE  H10X17188   2.841   4.509   9.259 -0.9653  0.0211  1.0184
  154SAPE  H10Y17189   2.684   4.432   9.228 -1.1371 -0.0966  3.0969
  154SAPE  C31117190   2.863   4.311   9.192  0.3840 -0.0926 -0.3099
  154SAPE  H11X17191   2.807   4.214   9.192  3.0815 -1.7419 -0.6724
  154SAPE  H11Y17192   2.961   4.299   9.241  0.3190  1.6098  0.2862
  154SAPE  C31217193   2.882   4.350   9.048 -0.2945 -0.0026  0.0906
  154SAPE  H12X17194   2.951   4.277   9.000 -1.1537 -0.1859 -0.9149
  154SAPE  H12Y17195   2.922   4.453   9.035 -3.0054  1.0720 -0.3473
  154SAPE  C31317196   2.755   4.343   8.965 -0.0422 -0.7025  0.4268
  154SAPE  H13X17197   2.680   4.420   8.994 -0.2975  0.0787 -2.0651
  154SAPE  H13Y17198   2.712   4.242   8.981  2.1986 -2.1452 -1.8813
  154SAPE  C31417199   2.791   4.355   8.816 -0.1655 -0.3434 -1.0728
  154SAPE  H14X17200   2.898   4.331   8.797  0.5810  0.3412  1.7360
  154SAPE  H14Y17201   2.779   4.461   8.785  0.8118  0.5308  1.3165
  154SAPE  C31517202   2.705   4.268   8.732  0.1167 -0.0680 -0.9328
  154SAPE  H15X17203   2.599   4.264   8.767  0.1430 -0.8816 -0.9084
  154SAPE  H15Y17204   2.728   4.162   8.760 -3.4358 -0.3591  1.5372
  154SAPE  C31617205   2.720   4.270   8.583 -0.8213 -0.3336  0.2338
  154SAPE  H16X17206   2.822   4.230   8.566 -1.1883 -0.9295 -0.6229
  154SAPE  H16Y17207   2.703   4.372   8.542  0.3186 -0.3780 -0.3904
  154SAPE  C31717208   2.625   4.168   8.523  0.2296  0.0740 -0.1990
  154SAPE  H17X17209   2.531   4.226   8.534  0.6026  0.2386  3.5553
  154SAPE  H17Y17210   2.625   4.077   8.586 -0.7535  0.2842  0.1279
  154SAPE  C31817211   2.646   4.125   8.380 -0.1872 -0.0627  0.2575
  154SAPE  H18X17212   2.568   4.057   8.338 -0.4369  0.4436 -0.1070
  154SAPE  H18Y17213   2.749   4.085   8.377 -0.3423 -0.5793  1.3406
  154SAPE  H18Z17214   2.648   4.221   8.324  0.0725  1.0938  2.1502
  155SAPE     N17215   5.026   5.991  11.181  0.0402  0.1627  0.0877
  155SAPE   HN117216   5.087   5.930  11.123  0.1703  0.5336 -0.1682
  155SAPE   HN217217   5.080   6.074  11.213 -0.8075  0.0854  1.8543
  155SAPE   HN317218   5.011   5.933  11.266  0.7371 -3.5830 -2.1275
  155SAPE   C1217219   4.905   6.032  11.097 -0.3157 -0.1630 -0.1069
  155SAPE  H12A17220   4.856   6.120  11.142  1.4356  0.2634  1.0933
  155SAPE  H12B17221   4.841   5.941  11.095  0.5378 -0.8224  0.9504
  155SAPE   C1117222   4.951   6.082  10.963 -0.1860  0.0431 -0.5230
  155SAPE  H11A17223   4.866   6.132  10.911  0.4203  0.7525 -0.8548
  155SAPE  H11B17224   4.974   6.001  10.892 -1.9844 -0.8811 -0.1081
  155SAPE     P17225   5.029   6.341  10.975  0.1922  0.0170  0.4636
  155SAPE   O1317226   4.912   6.376  11.050 -0.1449  0.2740  0.2796
  155SAPE   O1417227   5.155   6.406  11.016  0.0606  0.4376  0.0717
  155SAPE   O1217228   5.048   6.180  10.971  0.0916  0.2147  0.5763
  155SAPE   O1117229   5.003   6.386  10.826  0.2717  0.8073 -0.0271
  155SAPE    C117230   4.994   6.294  10.720  0.2644  0.4548  0.0430
  155SAPE    HA17231   5.082   6.226  10.725 -0.8318 -0.9460  1.7360
  155SAPE    HB17232   4.901   6.234  10.729  0.4169 -0.0235 -1.2921
  155SAPE    C217233   4.997   6.362  10.581 -0.1469  0.5344 -0.8276
  155SAPE    HS17234   5.094   6.415  10.576 -0.0241  0.3006 -0.9360
  155SAPE   O2117235   4.883   6.452  10.580 -0.8249  0.6565 -0.4603
  155SAPE   C2117236   4.896   6.566  10.519 -0.6220  0.5673 -0.2017
  155SAPE   O2217237   5.001   6.600  10.472  0.3767  0.2872  0.0870
  155SAPE   C2217238   4.756   6.643  10.515  0.5456 -0.4709  0.8761
  155SAPE   H2R17239   4.684   6.564  10.546  0.2335 -0.9143 -0.8852
  155SAPE   H2S17240   4.758   6.727  10.588 -1.3468 -0.8808  1.4565
  155SAPE    C317241   4.999   6.265  10.455  0.0584 -0.2575  0.9171
  155SAPE    HX17242   4.907   6.204  10.442 -0.0998  0.1124  0.2326
  155SAPE    HY17243   5.077   6.188  10.468  0.0495  0.0158  2.9096
  155SAPE   O3117244   5.024   6.333  10.325 -0.2543  0.0489 -0.7703
  155SAPE   C3117245   4.918   6.379  10.260 -0.4056  0.2289  0.3643
  155SAPE   O3217246   4.801   6.360  10.282  0.1462  0.6551  0.0305
  155SAPE   C3217247   4.968   6.484  10.159 -0.4224  0.2885  0.6787
  155SAPE   H2X17248   5.058   6.451  10.103 -0.0228  1.4958  0.5909
  155SAPE   H2Y17249   5.004   6.573  10.215  1.1983 -0.4804  0.9238
  155SAPE   C2317250   4.729   6.701  10.372  0.8982 -0.2558 -0.2659
  155SAPE   H3R17251   4.621   6.722  10.357  0.7757 -0.7024 -0.0373
  155SAPE   H3S17252   4.765   6.628  10.297  1.4434 -0.9734  0.6673
  155SAPE   C2417253   4.793   6.838  10.354  0.3079 -0.3158  0.3449
  155SAPE   H4R17254   4.890   6.837  10.407  0.4188  0.5985  0.1756
  155SAPE   H4S17255   4.737   6.915  10.412 -1.3256 -2.1463  1.3020
  155SAPE   C2517256   4.815   6.893  10.211 -0.2131  0.1595 -0.5084
  155SAPE   H5R17257   4.910   6.947  10.205 -1.4787  2.4584 -0.9463
  155SAPE   C2617258   4.725   6.902  10.107  0.6206 -0.1916 -0.2332
  155SAPE   H6R17259   4.755   6.957  10.017 -3.7714  0.8761 -1.2885
  155SAPE   C2717260   4.581   6.859  10.098 -0.2645 -0.1461 -0.3564
  155SAPE   H7R17261   4.528   6.937  10.040  0.1477  0.1850 -0.2933
  155SAPE   H7S17262   4.532   6.853  10.197 -0.1825 -0.3309 -0.3272
  155SAPE   C2817263   4.581   6.723  10.029  0.2869 -0.7396 -0.6871
  155SAPE   H8R17264   4.604   6.641  10.100 -1.5984  0.2716  1.1834
  155SAPE   C2917265   4.537   6.697   9.903 -0.4316  0.1732  0.4354
  155SAPE   H9R17266   4.527   6.589   9.887 -3.6709  0.2023  1.5068
  155SAPE  C21017267   4.486   6.786   9.789  0.5776  0.2439 -0.0621
  155SAPE  H10R17268   4.567   6.794   9.713  3.0235  1.7922  2.5323
  155SAPE  H10S17269   4.473   6.887   9.834  1.1542 -0.1183  0.9350
  155SAPE  C21117270   4.357   6.724   9.724  0.0835  0.2252 -0.2088
  155SAPE  H11R17271   4.287   6.684   9.798  0.2598 -1.8393 -1.1059
  155SAPE  C21217272   4.327   6.687   9.598  0.5098 -0.1157 -0.0249
  155SAPE  H12R17273   4.226   6.652   9.571  0.0267  1.7414 -0.7682
  155SAPE  C21317274   4.418   6.703   9.477 -0.2248  0.1258 -0.6439
  155SAPE  H13R17275   4.413   6.611   9.415 -1.8518 -0.9207  0.9284
  155SAPE  H13S17276   4.524   6.711   9.509  0.3193 -1.5935 -1.8650
  155SAPE  C21417277   4.371   6.819   9.392 -0.0823 -0.7965 -0.3009
  155SAPE  H14R17278   4.371   6.915   9.448 -2.0736 -0.1913 -1.2643
  155SAPE  C21517279   4.331   6.816   9.267  0.8759  0.1903  0.3900
  155SAPE  H15R17280   4.309   6.910   9.215  1.1378  0.5456  0.9163
  155SAPE  C21617281   4.316   6.686   9.188 -0.4528  0.1029 -0.0782
  155SAPE  H16R17282   4.257   6.619   9.254 -1.8090 -2.0779 -3.2856
  155SAPE  H16S17283   4.414   6.633   9.185 -0.8264 -0.5336 -2.0181
  155SAPE  C21717284   4.266   6.686   9.040 -0.0104 -0.7276  0.1307
  155SAPE  H17R17285   4.322   6.764   8.983 -1.7004 -1.8655 -3.3579
  155SAPE  H17S17286   4.160   6.716   9.023  0.0890 -0.3892  0.0992
  155SAPE  C21817287   4.288   6.547   8.978  0.9099  0.4459  0.3211
  155SAPE  H18R17288   4.219   6.472   9.024  1.3502  0.3568  0.8539
  155SAPE  H18S17289   4.394   6.519   8.993  1.5535  2.1416 -0.7964
  155SAPE  C21917290   4.251   6.544   8.826 -0.1727  0.5292 -0.8754
  155SAPE  H19R17291   4.294   6.630   8.770 -0.0293  0.4408 -0.9020
  155SAPE  H19S17292   4.141   6.552   8.823 -0.5006 -2.7359 -1.2068
  155SAPE  C22017293   4.298   6.403   8.761 -0.7806 -0.3230  0.1940
  155SAPE  H20R17294   4.409   6.404   8.755 -0.7706  1.0303  0.4045
  155SAPE  H20S17295   4.255   6.390   8.659 -2.1688 -1.0007  0.8431
  155SAPE  H20T17296   4.273   6.319   8.829 -0.4488  0.0744  0.8119
  155SAPE   C3317297   4.864   6.503  10.052 -0.5223  0.2505 -0.1519
  155SAPE   H3X17298   4.882   6.595   9.992  0.9746  0.4672  0.5936
  155SAPE   H3Y17299   4.765   6.518  10.100  0.3991 -0.7016  2.1440
  155SAPE   C3417300   4.839   6.382   9.952  0.1953 -0.8036 -0.2999
  155SAPE   H4X17301   4.818   6.286  10.003 -1.2799  0.5337  1.7554
  155SAPE   H4Y17302   4.934   6.360   9.899  0.0743 -1.8541 -0.0950
  155SAPE   C3517303   4.742   6.408   9.839 -0.2117 -0.4829  0.8715
  155SAPE   H5X17304   4.750   6.511   9.797 -0.3526 -0.3606  1.1393
  155SAPE   H5Y17305   4.640   6.392   9.879 -0.3291 -0.4948  0.5666
  155SAPE   C3617306   4.760   6.315   9.716  0.5406 -0.6493  0.4267
  155SAPE   H6X17307   4.744   6.213   9.757 -0.8795  1.2983  5.5944
  155SAPE   H6Y17308   4.863   6.327   9.678 -0.2388  1.2130 -1.2924
  155SAPE   C3717309   4.638   6.324   9.618  0.0206 -0.6695 -0.1805
  155SAPE   H7X17310   4.616   6.433   9.608  0.7361 -0.5493 -0.4790
  155SAPE   H7Y17311   4.550   6.265   9.650 -0.3710 -0.3639 -0.6776
  155SAPE   C3817312   4.669   6.263   9.484 -0.2683  0.2302  0.7812
  155SAPE   H8X17313   4.670   6.153   9.500 -1.2587  0.4365  2.5897
  155SAPE   H8Y17314   4.765   6.292   9.436 -1.0428  1.0059 -0.3502
  155SAPE   C3917315   4.559   6.305   9.388  0.2505 -0.0379 -0.0292
  155SAPE   H9X17316   4.557   6.414   9.370  1.3410  0.2418  1.4144
  155SAPE   H9Y17317   4.461   6.276   9.432  1.0183 -2.6496  0.1210
  155SAPE  C31017318   4.575   6.235   9.257  0.2510 -0.3220  1.1308
  155SAPE  H10X17319   4.497   6.259   9.181  1.6967  0.3902 -0.1947
  155SAPE  H10Y17320   4.563   6.126   9.274 -2.4104 -0.2167  0.3667
  155SAPE  C31117321   4.706   6.252   9.178 -0.0304 -0.7183  0.8525
  155SAPE  H11X17322   4.795   6.221   9.237 -0.9596 -1.3313  1.9771
  155SAPE  H11Y17323   4.714   6.358   9.147  2.2578 -1.0061  0.3249
  155SAPE  C31217324   4.706   6.168   9.049 -0.2227 -0.1182  0.3752
  155SAPE  H12X17325   4.703   6.060   9.073 -1.8284  0.1068  1.3337
  155SAPE  H12Y17326   4.809   6.178   9.007  0.3642 -1.4469  1.4356
  155SAPE  C31317327   4.599   6.204   8.946 -0.6228 -0.3828  0.5946
  155SAPE  H13X17328   4.587   6.314   8.945  0.5502 -0.1606 -3.0413
  155SAPE  H13Y17329   4.502   6.160   8.978 -1.1077 -0.5513 -1.0175
  155SAPE  C31417330   4.632   6.144   8.810  0.1172  0.0655  0.9960
  155SAPE  H14X17331   4.705   6.062   8.829 -0.8789 -0.7996  1.2186
  155SAPE  H14Y17332   4.690   6.212   8.745  2.2421 -1.2805  1.4022
  155SAPE  C31517333   4.513   6.103   8.729  0.2066  0.3996 -0.0540
  155SAPE  H15X17334   4.427   6.173   8.731 -0.5120 -0.4553 -0.2672
  155SAPE  H15Y17335   4.473   6.006   8.766  0.0634  0.6883  0.5507
  155SAPE  C31617336   4.551   6.080   8.582 -0.8087  0.9122  0.7171
  155SAPE  H16X17337   4.644   6.019   8.567 -0.6204  1.8832 -3.1385
  155SAPE  H16Y17338   4.561   6.183   8.542 -1.6922  0.5536 -0.4725
  155SAPE  C31717339   4.446   5.997   8.497 -0.0354  0.3797 -0.1189
  155SAPE  H17X17340   4.456   5.889   8.519 -0.3261  0.1902 -0.8710
  155SAPE  H17Y17341   4.489   5.999   8.394  1.7538 -1.6675  0.5144
  155SAPE  C31817342   4.305   6.056   8.494  0.2769  0.0044  0.1246
  155SAPE  H18X17343   4.311   6.163   8.462 -1.9220 -0.6046 -2.8068
  155SAPE  H18Y17344   4.259   6.039   8.594  0.1204 -3.3969 -0.4356
  155SAPE  H18Z17345   4.237   6.022   8.412 -0.5587 -0.5443  1.0250
  156SAPE     N17346   1.925   3.124  10.677  0.3637 -0.5344 -0.2420
  156SAPE   HN117347   1.963   3.028  10.690  0.9001 -0.2192  0.5628
  156SAPE   HN217348   1.821   3.123  10.672  0.3986 -0.8347 -1.0893
  156SAPE   HN317349   1.954   3.152  10.581  0.4996 -0.7867 -0.2771
  156SAPE   C1217350   1.966   3.224  10.776  0.6681 -0.4284  0.8025
  156SAPE  H12A17351   1.948   3.176  10.875  0.7714  0.8516  1.4642
  156SAPE  H12B17352   1.907   3.317  10.766  2.2421  0.5695  0.5481
  156SAPE   C1117353   2.118   3.246  10.770  0.0387  0.0257  0.0413
  156SAPE  H11A17354   2.166   3.146  10.756  0.2801  0.4734 -2.9738
  156SAPE  H11B17355   2.149   3.298  10.864  0.0775 -0.3099  0.2164
  156SAPE     P17356   2.285   3.370  10.614 -0.2115 -0.3769 -0.0147
  156SAPE   O1317357   2.370   3.349  10.735 -0.1933 -0.1945  0.1358
  156SAPE   O1417358   2.337   3.319  10.482 -0.4255 -0.0112  0.2536
  156SAPE   O1217359   2.145   3.318  10.653  0.7589 -0.5222 -1.4561
  156SAPE   O1117360   2.266   3.527  10.601 -0.3196 -0.2998  0.3724
  156SAPE    C117361   2.142   3.590  10.564 -0.2083  0.1551 -0.2765
  156SAPE    HA17362   2.053   3.524  10.569 -0.4672  0.4644 -0.7191
  156SAPE    HB17363   2.131   3.671  10.639 -0.6562 -0.7159  0.6160
  156SAPE    C217364   2.137   3.660  10.425  0.3974  0.3453  0.5696
  156SAPE    HS17365   2.051   3.729  10.415 -2.4139 -3.1533 -2.3007
  156SAPE   O2117366   2.131   3.564  10.319  0.4041 -0.0649 -0.0360
  156SAPE   C2117367   2.002   3.524  10.299 -0.4711 -0.6133 -0.3254
  156SAPE   O2217368   1.904   3.569  10.347 -0.4769 -0.1590  0.2854
  156SAPE   C2217369   1.989   3.444  10.165 -0.4452  0.8012 -0.4895
  156SAPE   H2R17370   1.991   3.339  10.199 -1.5887  1.5783  2.2724
  156SAPE   H2S17371   1.885   3.463  10.131 -0.8750  0.0851  0.3909
  156SAPE    C317372   2.265   3.747  10.403  0.3066 -0.1446  0.1068
  156SAPE    HX17373   2.355   3.683  10.417  1.2015  1.6381  3.9403
  156SAPE    HY17374   2.258   3.819  10.487  1.5141 -1.8734  1.7696
  156SAPE   O3117375   2.257   3.817  10.283  0.2790 -0.3263 -0.0777
  156SAPE   C3117376   2.363   3.889  10.252 -0.4803 -0.5831  0.2840
  156SAPE   O3217377   2.462   3.901  10.323  0.1449  0.2765 -0.5590
  156SAPE   C3217378   2.343   3.960  10.120  0.1140  0.0812  0.6876
  156SAPE   H2X17379   2.268   4.039  10.139 -1.1749 -0.8763 -0.2549
  156SAPE   H2Y17380   2.290   3.892  10.050 -0.8916  0.9921  0.5384
  156SAPE   C2317381   2.086   3.483  10.055  0.0814  0.2793  0.5120
  156SAPE   H3R17382   2.063   3.409   9.975 -1.4029 -0.8598  1.9336
  156SAPE   H3S17383   2.195   3.468  10.074  0.0931 -3.5414 -1.6386
  156SAPE   C2417384   2.060   3.623   9.992  0.1969 -1.2227  1.0250
  156SAPE   H4R17385   2.090   3.704  10.062  1.7163  0.0529 -0.9908
  156SAPE   H4S17386   1.950   3.623   9.973 -0.2972  0.2301  3.4314
  156SAPE   C2517387   2.145   3.636   9.866  0.5401 -0.1436 -0.0483
  156SAPE   H5R17388   2.251   3.611   9.880  0.2829 -0.4826  1.4852
  156SAPE   C2617389   2.103   3.677   9.744  0.2871  0.1278 -0.7248
  156SAPE   H6R17390   2.184   3.697   9.672 -0.3617  4.0030 -0.5928
  156SAPE   C2717391   1.957   3.700   9.701 -0.1051  0.6651 -0.4688
  156SAPE   H7R17392   1.892   3.630   9.757  0.0377  0.3665 -0.6784
  156SAPE   H7S17393   1.944   3.654   9.601  2.6161 -2.5592  0.4852
  156SAPE   C2817394   1.914   3.847   9.707 -0.4935  0.0432 -0.3550
  156SAPE   H8R17395   1.950   3.903   9.795 -3.2899 -2.7032  2.8344
  156SAPE   C2917396   1.832   3.899   9.614  0.3553  0.3920  0.5957
  156SAPE   H9R17397   1.800   4.004   9.623 -1.6235  0.0191 -1.2664
  156SAPE  C21017398   1.771   3.839   9.493 -0.2214 -0.0275 -0.1506
  156SAPE  H10R17399   1.663   3.862   9.485 -0.9694 -2.1098  2.3283
  156SAPE  H10S17400   1.764   3.729   9.508 -1.2036 -0.1440 -1.3040
  156SAPE  C21117401   1.864   3.856   9.375  0.2447 -0.2479  0.6578
  156SAPE  H11R17402   1.950   3.921   9.394  0.2289 -0.8570  3.1548
  156SAPE  C21217403   1.838   3.808   9.249 -0.7275  0.0811 -0.4270
  156SAPE  H12R17404   1.915   3.831   9.175  2.1624 -0.4670  2.1810
  156SAPE  C21317405   1.716   3.727   9.213 -0.2864  0.1374  0.8138
  156SAPE  H13R17406   1.622   3.741   9.270 -0.3604 -0.8877  0.9702
  156SAPE  H13S17407   1.739   3.619   9.223  0.4018 -0.1124 -2.2563
  156SAPE  C21417408   1.678   3.750   9.065 -0.0532 -0.5085  0.3937
  156SAPE  H14R17409   1.650   3.854   9.043  0.8284 -0.2847  0.2969
  156SAPE  C21517410   1.703   3.673   8.957  0.4986  0.7467 -0.4746
  156SAPE  H15R17411   1.678   3.709   8.856  0.1820 -1.0819 -1.0858
  156SAPE  C21617412   1.759   3.526   8.952  0.2742  0.1294  0.3821
  156SAPE  H16R17413   1.676   3.456   8.929  0.4890  0.5976 -2.1851
  156SAPE  H16S17414   1.798   3.496   9.051  1.1582  1.8349  0.5821
  156SAPE  C21717415   1.867   3.502   8.843 -0.0796  0.6677 -0.3565
  156SAPE  H17R17416   1.898   3.399   8.869  2.2324  1.1573 -0.9566
  156SAPE  H17S17417   1.954   3.567   8.863 -0.0844  0.7593 -0.6243
  156SAPE  C21817418   1.818   3.520   8.693  0.7392 -0.0642  0.1867
  156SAPE  H18R17419   1.772   3.620   8.675  1.1080  0.1444  0.3973
  156SAPE  H18S17420   1.739   3.444   8.676  1.6034 -0.8228 -0.5238
  156SAPE  C21917421   1.930   3.488   8.606 -0.5095 -0.0105 -0.2296
  156SAPE  H19R17422   2.009   3.562   8.630 -1.2464  0.5506  0.5201
  156SAPE  H19S17423   1.896   3.504   8.501  0.0022  0.2066 -0.3628
  156SAPE  C22017424   2.001   3.351   8.627 -0.2709  0.6215  1.1506
  156SAPE  H20R17425   2.066   3.358   8.717 -0.0624  1.5125  0.9471
  156SAPE  H20S17426   2.076   3.324   8.549 -3.3379 -2.4209 -1.0118
  156SAPE  H20T17427   1.935   3.264   8.642 -0.7573  0.7110 -0.3021
  156SAPE   C3317428   2.460   4.025  10.059  0.8015 -0.6810  0.4227
  156SAPE   H3X17429   2.546   3.955  10.067 -0.3958 -2.1932  0.6068
  156SAPE   H3Y17430   2.487   4.110  10.125 -0.2329 -1.1167  1.4393
  156SAPE   C3417431   2.440   4.093   9.926  0.0305 -0.2476 -0.2481
  156SAPE   H4X17432   2.538   4.139   9.904  0.6035 -0.2558  2.0658
  156SAPE   H4Y17433   2.364   4.174   9.931 -0.8585 -0.9950 -0.9946
  156SAPE   C3517434   2.407   4.002   9.809  0.2603 -0.0590 -0.4748
  156SAPE   H5X17435   2.329   3.930   9.841 -0.6366  1.1470  0.1446
  156SAPE   H5Y17436   2.504   3.951   9.793  0.2653 -0.2621  0.1965
  156SAPE   C3617437   2.355   4.069   9.686 -0.3109 -0.0706  0.2625
  156SAPE   H6X17438   2.402   4.170   9.680  0.3627 -0.1364  3.0586
  156SAPE   H6Y17439   2.244   4.076   9.696 -0.3102 -2.0943  2.6455
  156SAPE   C3717440   2.403   4.001   9.557 -0.0917  0.0457 -0.5483
  156SAPE   H7X17441   2.337   3.921   9.518 -2.6497  1.6592  0.2218
  156SAPE   H7Y17442   2.507   3.962   9.559  0.6574  1.9264 -0.2636
  156SAPE   C3817443   2.395   4.103   9.441  0.3668  0.0928  0.1854
  156SAPE   H8X17444   2.439   4.203   9.462 -0.2539  0.4479 -0.1446
  156SAPE   H8Y17445   2.285   4.112   9.425  0.3993  0.7824  0.3006
  156SAPE   C3917446   2.449   4.039   9.311  0.8170  0.0038 -0.1319
  156SAPE   H9X17447   2.420   3.931   9.311  1.4110 -0.2214  2.2822
  156SAPE   H9Y17448   2.557   4.053   9.291  1.0102  0.7323  1.2712
  156SAPE  C31017449   2.376   4.109   9.194 -0.2029  0.1170 -0.6584
  156SAPE  H10X17450   2.414   4.214   9.194  1.9335 -0.5927 -0.5881
  156SAPE  H10Y17451   2.266   4.108   9.206 -0.0431 -0.2453  1.0307
  156SAPE  C31117452   2.400   4.038   9.058 -0.1392 -0.0036  0.1961
  156SAPE  H11X17453   2.360   3.934   9.061 -0.3484 -0.0182 -1.9090
  156SAPE  H11Y17454   2.509   4.045   9.041 -0.0486  1.4208  1.1753
  156SAPE  C31217455   2.329   4.126   8.947  0.6029  0.0643  0.6818
  156SAPE  H12X17456   2.377   4.226   8.939 -0.3347  0.4343 -0.5967
  156SAPE  H12Y17457   2.221   4.143   8.968  0.5664  0.9715 -0.1708
  156SAPE  C31317458   2.358   4.061   8.808  0.2272  0.4044 -0.3620
  156SAPE  H13X17459   2.463   4.027   8.799 -0.0537 -0.5599 -0.0810
  156SAPE  H13Y17460   2.338   4.142   8.735 -2.5172  0.5078  0.3878
  156SAPE  C31417461   2.258   3.943   8.769 -0.5675 -0.3544  0.5343
  156SAPE  H14X17462   2.163   3.989   8.733 -0.3467  3.1018  3.7987
  156SAPE  H14Y17463   2.241   3.866   8.848 -0.8128 -0.7525  0.1013
  156SAPE  C31517464   2.322   3.868   8.647  0.1362  0.0176 -0.0062
  156SAPE  H15X17465   2.422   3.824   8.668 -0.3109  0.2858  3.2434
  156SAPE  H15Y17466   2.336   3.945   8.569 -0.7055  0.9897  0.7703
  156SAPE  C31617467   2.236   3.752   8.592  0.5389 -0.5679  0.0982
  156SAPE  H16X17468   2.139   3.791   8.553  0.7082 -2.0411 -1.9281
  156SAPE  H16Y17469   2.211   3.674   8.667 -0.8889 -2.1078 -1.8826
  156SAPE  C31717470   2.297   3.688   8.468  0.7178 -0.1464  0.3112
  156SAPE  H17X17471   2.388   3.638   8.506 -1.0436 -1.6051  2.9373
  156SAPE  H17Y17472   2.317   3.766   8.391 -0.0738 -0.7693 -0.5531
  156SAPE  C31817473   2.203   3.583   8.399  0.5322 -0.5793 -0.9466
  156SAPE  H18X17474   2.150   3.507   8.460 -2.7127  1.5331 -0.8965
  156SAPE  H18Y17475   2.256   3.533   8.314 -0.0494  0.9382 -2.2485
  156SAPE  H18Z17476   2.123   3.645   8.352  0.4322 -0.2877 -0.3886
  157SAPE     N17477   0.979   2.206  10.958  0.0471 -1.0286  0.1781
  157SAPE   HN117478   0.929   2.118  10.932  2.1797 -1.8183 -1.5215
  157SAPE   HN217479   1.037   2.171  11.037 -0.6910  0.3904  1.4110
  157SAPE   HN317480   0.904   2.269  10.994  1.3187  0.6626 -0.0062
  157SAPE   C1217481   1.066   2.240  10.849  0.1056 -0.3242 -0.1667
  157SAPE  H12A17482   1.017   2.212  10.754  0.8477 -0.6649 -0.4574
  157SAPE  H12B17483   1.160   2.183  10.864 -0.4116 -1.0863  0.2480
  157SAPE   C1117484   1.094   2.397  10.824 -0.2608 -0.4375 -0.0742
  157SAPE  H11A17485   1.199   2.411  10.791  0.6602  1.0721  3.1447
  157SAPE  H11B17486   1.086   2.455  10.919  0.3162 -1.0459  0.3594
  157SAPE     P17487   0.926   2.596  10.747  0.5253  0.3670 -0.1774
  157SAPE   O1317488   0.830   2.588  10.861  0.5140 -0.1875 -0.1327
  157SAPE   O1417489   1.033   2.699  10.746 -0.1359 -0.1268  0.4007
  157SAPE   O1217490   1.001   2.456  10.732 -0.4688 -0.8074 -0.0362
  157SAPE   O1117491   0.842   2.619  10.618  0.6029 -0.6800  0.6053
  157SAPE    C117492   0.846   2.532  10.505  0.1050 -0.3075  0.9153
  157SAPE    HA17493   0.943   2.484  10.483  0.9689  2.6161 -2.6549
  157SAPE    HB17494   0.765   2.456  10.509 -0.2615  0.0421  0.3631
  157SAPE    C217495   0.821   2.617  10.373 -0.3354 -0.9021 -0.3855
  157SAPE    HS17496   0.732   2.673  10.411  0.2907 -1.5947  2.2996
  157SAPE   O2117497   0.795   2.531  10.265 -0.0941 -0.3128 -0.2288
  157SAPE   C2117498   0.704   2.554  10.172  0.2414  0.7905  0.2571
  157SAPE   O2217499   0.612   2.633  10.194 -0.4490 -0.1267 -0.2362
  157SAPE   C2217500   0.708   2.439  10.062 -0.0323 -0.1642  0.5904
  157SAPE   H2R17501   0.813   2.405  10.044 -0.4429 -0.3900 -1.7421
  157SAPE   H2S17502   0.658   2.351  10.106 -0.5670 -0.2268 -0.1273
  157SAPE    C317503   0.934   2.720  10.340 -0.4368  0.1614 -0.1511
  157SAPE    HX17504   1.019   2.657  10.305 -1.2699  0.3746 -2.7683
  157SAPE    HY17505   0.962   2.784  10.426  1.8982  2.1190 -2.2158
  157SAPE   O3117506   0.893   2.798  10.223  0.5528  0.3567 -0.2578
  157SAPE   C3117507   0.839   2.912  10.242 -0.5841 -0.0214 -0.6250
  157SAPE   O3217508   0.846   2.973  10.349  0.3402 -0.0836 -0.5380
  157SAPE   C3217509   0.758   2.955  10.120  0.5044 -0.2529 -0.1995
  157SAPE   H2X17510   0.737   3.064  10.128 -0.2816 -0.4493  0.4758
  157SAPE   H2Y17511   0.656   2.911  10.122 -0.7902  2.5699  0.3845
  157SAPE   C2317512   0.653   2.497   9.927 -0.0919 -0.5331  0.0335
  157SAPE   H3R17513   0.720   2.582   9.902  2.1729 -1.5735  2.1927
  157SAPE   H3S17514   0.550   2.534   9.947  0.3631  1.4368 -1.0335
  157SAPE   C2417515   0.665   2.389   9.813 -0.4982  0.0256 -0.7939
  157SAPE   H4R17516   0.624   2.296   9.857  0.6114 -1.0916 -2.0199
  157SAPE   H4S17517   0.772   2.359   9.813 -0.1067  1.2416  1.4791
  157SAPE   C2517518   0.611   2.420   9.673  0.0740  0.8178  0.8656
  157SAPE   H5R17519   0.501   2.418   9.673  0.0398 -2.4902  1.4223
  157SAPE   C2617520   0.681   2.450   9.566 -0.5418 -0.2026 -0.0528
  157SAPE   H6R17521   0.635   2.482   9.471  0.7784 -1.1447 -1.0460
  157SAPE   C2717522   0.833   2.472   9.566 -0.1748  0.5329  0.2716
  157SAPE   H7R17523   0.880   2.381   9.522  0.9331  1.5329 -0.6735
  157SAPE   H7S17524   0.866   2.482   9.672  1.1357  1.1912 -0.1778
  157SAPE   C2817525   0.870   2.599   9.495 -0.1902  0.1749  0.7137
  157SAPE   H8R17526   0.864   2.695   9.548  0.3868  0.5081  0.1838
  157SAPE   C2917527   0.890   2.610   9.361  0.4143 -0.0469 -0.0003
  157SAPE   H9R17528   0.918   2.708   9.320  1.7021 -0.0758  0.7558
  157SAPE  C21017529   0.872   2.491   9.274 -0.1457 -0.8022  0.5069
  157SAPE  H10R17530   0.766   2.459   9.285 -0.1913 -0.4589  1.0733
  157SAPE  H10S17531   0.927   2.407   9.321  1.4510  1.5644  3.1718
  157SAPE  C21117532   0.921   2.517   9.132  0.0271  0.3099 -0.0530
  157SAPE  H11R17533   1.031   2.516   9.125  0.0919  0.7086  0.7930
  157SAPE  C21217534   0.851   2.555   9.027 -0.0180 -0.0415 -0.4215
  157SAPE  H12R17535   0.917   2.574   8.942 -1.7250  0.5506 -1.6679
  157SAPE  C21317536   0.702   2.561   8.997 -0.0166  0.3062 -0.6068
  157SAPE  H13R17537   0.685   2.660   8.951 -2.7833  0.3393  0.3301
  157SAPE  H13S17538   0.650   2.566   9.095 -0.6536  0.1275 -0.9325
  157SAPE  C21417539   0.633   2.446   8.917  0.2705  0.0292 -0.8241
  157SAPE  H14R17540   0.609   2.358   8.979 -0.9144  0.8109 -0.1393
  157SAPE  C21517541   0.590   2.449   8.788 -0.6227  0.2646  0.3556
  157SAPE  H15R17542   0.536   2.364   8.743  1.0405 -1.2256  1.0607
  157SAPE  C21617543   0.600   2.571   8.698  0.6896  0.4833 -0.0395
  157SAPE  H16R17544   0.577   2.671   8.740 -0.4749  0.5639 -0.8370
  157SAPE  H16S17545   0.525   2.543   8.621 -0.9114 -1.6201  2.1285
  157SAPE  C21717546   0.742   2.597   8.640 -0.2209 -0.1819  0.4819
  157SAPE  H17R17547   0.805   2.646   8.718  0.6860 -1.7824  0.8016
  157SAPE  H17S17548   0.724   2.676   8.564  2.3544  1.3078  1.2798
  157SAPE  C21817549   0.812   2.482   8.571 -0.3007 -0.7023 -0.5323
  157SAPE  H18R17550   0.853   2.408   8.644  2.3352  0.1971 -0.9841
  157SAPE  H18S17551   0.903   2.508   8.513  0.0171 -2.4110 -0.8595
  157SAPE  C21917552   0.726   2.398   8.475 -0.2512 -0.9123 -0.3819
  157SAPE  H19R17553   0.639   2.346   8.520 -1.0893 -0.1005 -1.0261
  157SAPE  H19S17554   0.797   2.330   8.422  1.4480 -1.7137  2.6690
  157SAPE  C22017555   0.676   2.476   8.353  0.0146 -0.1380 -1.1420
  157SAPE  H20R17556   0.613   2.416   8.285 -3.9807  0.7756  1.4076
  157SAPE  H20S17557   0.768   2.515   8.304  0.9372 -1.0502 -0.1693
  157SAPE  H20T17558   0.617   2.564   8.388  1.9796  0.7483  0.1439
  157SAPE   C3317559   0.834   2.938   9.990  0.6533 -0.0529 -0.0888
  157SAPE   H3X17560   0.838   2.830   9.965 -0.2120 -0.0669 -0.2049
  157SAPE   H3Y17561   0.942   2.963  10.002  0.1382  2.4789 -0.2997
  157SAPE   C3417562   0.783   3.020   9.871  0.2457 -0.3139 -0.4924
  157SAPE   H4X17563   0.866   3.024   9.797 -0.6471 -1.3821 -1.5816
  157SAPE   H4Y17564   0.758   3.122   9.908  0.3300  0.0922 -1.5298
  157SAPE   C3517565   0.671   2.951   9.808 -0.2457  0.4206 -0.3007
  157SAPE   H5X17566   0.590   2.958   9.884  1.2656  0.3333  1.3830
  157SAPE   H5Y17567   0.695   2.845   9.786  0.1231 -0.0381  1.9963
  157SAPE   C3617568   0.623   3.025   9.683  0.3257 -0.1476  0.0302
  157SAPE   H6X17569   0.604   3.133   9.702 -0.6964  0.3251 -3.1128
  157SAPE   H6Y17570   0.525   2.976   9.665  0.4264  0.3317 -2.0833
  157SAPE   C3717571   0.721   3.012   9.572 -0.4668  0.7408  0.8284
  157SAPE   H7X17572   0.754   2.906   9.577  2.6345  1.5320 -0.3961
  157SAPE   H7Y17573   0.818   3.064   9.582  0.4716 -0.6554 -0.5405
  157SAPE   C3817574   0.666   3.036   9.429  0.1270 -0.4628  0.0377
  157SAPE   H8X17575   0.640   3.144   9.423  2.6682  0.2567  0.7387
  157SAPE   H8Y17576   0.572   2.978   9.417 -0.1886  0.1624 -0.6152
  157SAPE   C3917577   0.756   3.001   9.318 -0.8203 -0.4558 -0.2384
  157SAPE   H9X17578   0.790   2.896   9.315  1.1223  0.1556 -1.5295
  157SAPE   H9Y17579   0.843   3.070   9.313 -1.8228  0.8553 -0.2564
  157SAPE  C31017580   0.697   3.018   9.178 -0.4649  0.0213 -0.4091
  157SAPE  H10X17581   0.694   3.129   9.167  0.7551  0.2087  0.8377
  157SAPE  H10Y17582   0.599   2.967   9.165  0.8931 -3.2828  1.1890
  157SAPE  C31117583   0.788   2.965   9.066  0.6053 -0.3411  0.1167
  157SAPE  H11X17584   0.740   2.990   8.969  0.8933 -1.2728 -0.2736
  157SAPE  H11Y17585   0.789   2.856   9.086  0.9973 -0.4734 -0.5838
  157SAPE  C31217586   0.931   3.025   9.061 -0.4255  0.3850 -0.3046
  157SAPE  H12X17587   0.979   3.017   9.161  0.1755  0.9663 -0.5381
  157SAPE  H12Y17588   0.919   3.134   9.041  0.2164  0.4110 -0.5531
  157SAPE  C31317589   1.011   2.978   8.938  0.2867  0.3852  0.6752
  157SAPE  H13X17590   1.038   2.870   8.947 -1.2889 -0.3593 -2.1579
  157SAPE  H13Y17591   1.104   3.038   8.950  1.1184 -0.8125  0.4763
  157SAPE  C31417592   0.946   3.003   8.806  0.7523 -0.9519 -0.0510
  157SAPE  H14X17593   0.911   3.108   8.800 -1.2185 -1.5614  0.1424
  157SAPE  H14Y17594   0.862   2.932   8.791 -1.4991  1.4991  0.2553
  157SAPE  C31517595   1.041   2.969   8.684  0.3081 -0.0073 -0.5699
  157SAPE  H15X17596   1.049   2.858   8.684  2.6508  0.0422  2.4791
  157SAPE  H15Y17597   1.142   3.014   8.698 -0.3899  1.4499 -0.1352
  157SAPE  C31617598   0.983   3.012   8.553 -0.3099  0.7240 -0.3394
  157SAPE  H16X17599   0.971   3.121   8.564  0.0594  0.8618 -1.2503
  157SAPE  H16Y17600   0.880   2.971   8.550 -0.5769  1.1355  1.7951
  157SAPE  C31717601   1.079   2.978   8.436 -0.2555  0.6868 -0.5312
  157SAPE  H17X17602   1.165   3.047   8.440  0.9429 -0.7735  2.8861
  157SAPE  H17Y17603   1.015   3.001   8.348 -1.8740  0.8570  0.6422
  157SAPE  C31817604   1.131   2.835   8.433  0.2968 -0.4584 -0.1401
  157SAPE  H18X17605   1.042   2.770   8.444 -0.9494  1.5092  2.4983
  157SAPE  H18Y17606   1.210   2.821   8.510  0.5498  1.2325 -0.0644
  157SAPE  H18Z17607   1.179   2.819   8.334  0.0414 -1.1990 -0.1528
  158SAPE     N17608   0.373   3.975  10.675 -0.4258 -0.7311  0.3638
  158SAPE   HN117609   0.285   3.979  10.620  0.2081  0.0635 -0.6473
  158SAPE   HN217610   0.343   3.996  10.772 -0.0805  2.4573 -0.1235
  158SAPE   HN317611   0.421   4.062  10.643 -2.0654 -0.1031 -0.4939
  158SAPE   C1217612   0.465   3.857  10.659  0.1051 -0.1936  0.4406
  158SAPE  H12A17613   0.480   3.828  10.553  2.4179 -0.2692  0.7317
  158SAPE  H12B17614   0.415   3.774  10.715  0.9998 -0.5757  0.6856
  158SAPE   C1117615   0.608   3.888  10.715 -0.1335  0.0364  0.3308
  158SAPE  H11A17616   0.596   3.944  10.810 -1.3053 -0.4746  0.5040
  158SAPE  H11B17617   0.654   3.952  10.636  0.7224 -0.9195  0.0194
  158SAPE     P17618   0.816   3.763  10.633  0.5568 -0.0726 -0.0751
  158SAPE   O1317619   0.902   3.875  10.657 -0.5923 -0.7496 -0.0504
  158SAPE   O1417620   0.878   3.635  10.637  0.0900  0.9992  0.4456
  158SAPE   O1217621   0.686   3.769  10.732 -0.1764  0.2048  0.1337
  158SAPE   O1117622   0.750   3.778  10.494  0.2440 -0.3133  0.4380
  158SAPE    C117623   0.717   3.663  10.410  0.0757  0.0805 -0.3717
  158SAPE    HA17624   0.690   3.570  10.464 -2.7371  0.9598 -0.1202
  158SAPE    HB17625   0.625   3.679  10.350  0.2268 -1.6913 -1.1144
  158SAPE    C217626   0.841   3.622  10.322  0.5873 -0.3356  0.5230
  158SAPE    HS17627   0.925   3.599  10.391  0.2771  0.8485  1.3240
  158SAPE   O2117628   0.890   3.736  10.239 -0.5687 -0.0328  0.5351
  158SAPE   C2117629   1.016   3.733  10.188 -0.3047 -0.1185 -0.8347
  158SAPE   O2217630   1.105   3.653  10.213 -0.0006  0.0470 -0.2687
  158SAPE   C2217631   1.039   3.843  10.088 -0.3147 -0.0212 -0.1448
  158SAPE   H2R17632   0.946   3.903  10.077 -0.4005 -0.2468 -0.6512
  158SAPE   H2S17633   1.118   3.911  10.129 -1.3382 -0.5113  2.8669
  158SAPE    C317634   0.801   3.508  10.232 -0.4638  0.1723 -0.5336
  158SAPE    HX17635   0.717   3.545  10.169 -0.5485  2.3798  0.7707
  158SAPE    HY17636   0.767   3.424  10.297  1.1239 -0.7441 -0.8476
  158SAPE   O3117637   0.901   3.456  10.139 -0.2028 -0.4894 -0.6092
  158SAPE   C3117638   0.998   3.377  10.198 -0.1872 -0.1599  0.1983
  158SAPE   O3217639   0.998   3.337  10.312 -0.1367  0.3381  0.2353
  158SAPE   C3217640   1.094   3.332  10.093 -0.7080  0.2753 -0.4433
  158SAPE   H2X17641   1.163   3.259  10.141 -0.2419  1.3415  0.5716
  158SAPE   H2Y17642   1.160   3.418  10.068 -0.0051 -0.4737 -1.2105
  158SAPE   C2317643   1.106   3.785   9.958  0.4727 -0.1598 -0.5036
  158SAPE   H3R17644   1.039   3.721   9.897  3.1083 -1.6846 -2.0238
  158SAPE   H3S17645   1.196   3.725   9.985  0.4272 -0.2638 -0.5844
  158SAPE   C2417646   1.167   3.896   9.871  0.2845  0.4492  0.0811
  158SAPE   H4R17647   1.261   3.851   9.835  0.1778 -0.3351  0.7471
  158SAPE   H4S17648   1.197   3.985   9.931 -0.5962  0.9521 -0.2021
  158SAPE   C2517649   1.072   3.944   9.763  0.1201 -0.2244 -0.0918
  158SAPE   H5R17650   0.988   4.001   9.806 -0.8866 -2.4769  1.0990
  158SAPE   C2617651   1.091   3.925   9.629 -0.7276 -0.6189  0.6775
  158SAPE   H6R17652   1.019   3.974   9.560  0.9666 -0.3504 -0.9719
  158SAPE   C2717653   1.207   3.858   9.563 -0.0605 -0.2160  0.6635
  158SAPE   H7R17654   1.175   3.757   9.530 -0.3582 -0.3424  1.3224
  158SAPE   H7S17655   1.281   3.832   9.642 -0.3198 -0.5278  0.8067
  158SAPE   C2817656   1.279   3.948   9.469  0.3256 -0.3760  0.1153
  158SAPE   H8R17657   1.309   4.044   9.512 -1.2620 -0.1501  0.7980
  158SAPE   C2917658   1.314   3.915   9.342 -0.1665  1.6264  0.1772
  158SAPE   H9R17659   1.345   3.997   9.275 -0.6308  1.4471 -0.2653
  158SAPE  C21017660   1.296   3.784   9.263 -0.3749  0.3555 -0.0392
  158SAPE  H10R17661   1.291   3.688   9.320 -0.4051  0.1825 -0.3315
  158SAPE  H10S17662   1.388   3.777   9.201 -0.5488 -0.3196 -0.2349
  158SAPE  C21117663   1.168   3.784   9.186  0.2889  0.3020  0.1791
  158SAPE  H11R17664   1.077   3.750   9.238  1.0086 -0.5992  0.8642
  158SAPE  C21217665   1.144   3.826   9.055  0.1239 -0.1338 -0.4611
  158SAPE  H12R17666   1.040   3.813   9.020 -0.4972  0.1470  1.1894
  158SAPE  C21317667   1.248   3.877   8.963 -0.0934 -0.6608 -0.3361
  158SAPE  H13R17668   1.345   3.879   9.016 -1.0561  0.7269  1.4875
  158SAPE  H13S17669   1.219   3.976   8.922  2.0364 -0.5494 -1.7424
  158SAPE  C21417670   1.270   3.790   8.842  0.2013  0.0519  0.2598
  158SAPE  H14R17671   1.218   3.694   8.830  2.5073 -0.9497 -3.3233
  158SAPE  C21517672   1.352   3.813   8.733 -0.1760  0.1296 -0.4670
  158SAPE  H15R17673   1.363   3.729   8.663  0.9379 -0.9971  0.9938
  158SAPE  C21617674   1.447   3.935   8.715  0.4390  0.2246  0.0965
  158SAPE  H16R17675   1.491   3.984   8.805 -0.0736  0.8941 -0.0140
  158SAPE  H16S17676   1.395   4.019   8.665 -0.1383 -1.9105 -3.2180
  158SAPE  C21717677   1.567   3.901   8.627 -0.0131 -0.0613  0.3389
  158SAPE  H17R17678   1.636   3.828   8.675 -1.4213 -0.9191  1.1028
  158SAPE  H17S17679   1.635   3.988   8.617 -0.4979  0.0985 -2.3102
  158SAPE  C21817680   1.524   3.849   8.490 -0.4159 -0.0116  0.5937
  158SAPE  H18R17681   1.494   3.934   8.426 -1.4494 -0.4361  0.4953
  158SAPE  H18S17682   1.446   3.771   8.478  0.5567 -0.8005 -0.8537
  158SAPE  C21917683   1.648   3.789   8.423  0.5578 -0.4982  0.4305
  158SAPE  H19R17684   1.712   3.746   8.502 -0.0441 -0.5100  0.9136
  158SAPE  H19S17685   1.711   3.869   8.378 -0.7369  0.1970 -0.2057
  158SAPE  C22017686   1.622   3.700   8.305 -0.0193  0.3327  0.1473
  158SAPE  H20R17687   1.555   3.748   8.230 -0.2946 -1.5169 -0.8432
  158SAPE  H20S17688   1.571   3.609   8.343 -1.5283  1.8924  2.1302
  158SAPE  H20T17689   1.718   3.672   8.257  0.3430 -1.6734  1.9122
  158SAPE   C3317690   1.031   3.269   9.965 -0.1023  0.2507 -0.4689
  158SAPE   H3X17691   0.922   3.285   9.951 -0.3175  1.5267  2.1159
  158SAPE   H3Y17692   1.037   3.158   9.964  0.1513  0.2602  0.0244
  158SAPE   C3417693   1.104   3.316   9.836 -0.0509  0.0194  0.6668
  158SAPE   H4X17694   1.056   3.262   9.752 -0.7288  2.4551 -0.6050
  158SAPE   H4Y17695   1.215   3.314   9.841 -0.0815 -1.1221  1.2724
  158SAPE   C3517696   1.059   3.464   9.810 -0.3186 -0.6445 -0.1743
  158SAPE   H5X17697   1.126   3.519   9.880 -0.3386 -0.4856 -0.2782
  158SAPE   H5Y17698   0.953   3.473   9.841 -0.5891 -1.0942 -0.9417
  158SAPE   C3617699   1.074   3.515   9.669 -0.2062  0.4690  0.1707
  158SAPE   H6X17700   1.183   3.512   9.648 -0.2060  1.3900  0.0396
  158SAPE   H6Y17701   1.036   3.619   9.664 -0.7051  0.2601 -0.6057
  158SAPE   C3717702   0.983   3.449   9.567  0.1906  0.1975 -0.2175
  158SAPE   H7X17703   0.878   3.457   9.603  1.0718 -0.2401  2.7246
  158SAPE   H7Y17704   1.015   3.343   9.571  3.1217  1.0158  1.2802
  158SAPE   C3817705   1.000   3.499   9.426  0.2100 -0.1821  0.4104
  158SAPE   H8X17706   1.101   3.471   9.391  0.3297  1.2408 -0.4777
  158SAPE   H8Y17707   0.984   3.609   9.417 -2.0036 -0.5454 -0.8039
  158SAPE   C3917708   0.891   3.426   9.328 -0.4985 -0.7485 -0.5818
  158SAPE   H9X17709   0.797   3.478   9.354  0.8868  1.1570  0.8942
  158SAPE   H9Y17710   0.882   3.316   9.338 -0.5955 -0.6389  0.5814
  158SAPE  C31017711   0.933   3.466   9.187  0.4605  0.1743  0.1242
  158SAPE  H10X17712   1.033   3.430   9.157  0.6008 -0.8537  1.7130
  158SAPE  H10Y17713   0.943   3.577   9.183 -1.1551  0.3680  0.6698
  158SAPE  C31117714   0.827   3.432   9.074  0.2160 -0.6451 -0.4741
  158SAPE  H11X17715   0.736   3.491   9.100  1.0771  1.9742 -2.9372
  158SAPE  H11Y17716   0.800   3.325   9.086 -0.5149 -0.4882 -0.7083
  158SAPE  C31217717   0.867   3.482   8.939  0.3475 -0.3987  0.2047
  158SAPE  H12X17718   0.956   3.421   8.912  0.0095 -0.4654 -0.8106
  158SAPE  H12Y17719   0.902   3.585   8.958 -1.3204  0.2389 -0.0026
  158SAPE  C31317720   0.753   3.472   8.837  0.7438  0.1745  0.0282
  158SAPE  H13X17721   0.657   3.495   8.889  0.5915 -0.1577 -0.1054
  158SAPE  H13Y17722   0.740   3.363   8.824  1.2555 -0.0313  1.1149
  158SAPE  C31417723   0.775   3.551   8.712  0.2350  0.0579  0.2936
  158SAPE  H14X17724   0.770   3.658   8.741  1.3685 -0.1605  1.3872
  158SAPE  H14Y17725   0.688   3.543   8.644 -0.4384 -1.8297  1.3026
  158SAPE  C31517726   0.913   3.537   8.646  0.7990 -0.3132 -0.4607
  158SAPE  H15X17727   0.908   3.443   8.588  0.3080 -1.0067  0.6728
  158SAPE  H15Y17728   0.989   3.524   8.726 -2.0449 -0.4178  2.4185
  158SAPE  C31617729   0.956   3.657   8.560 -0.1320 -0.0169 -0.1051
  158SAPE  H16X17730   1.060   3.645   8.522 -0.2017  0.0490 -0.3116
  158SAPE  H16Y17731   0.950   3.740   8.633 -1.6508 -1.0236  0.9904
  158SAPE  C31717732   0.876   3.674   8.430  0.0243 -0.6154  0.3290
  158SAPE  H17X17733   0.770   3.688   8.461 -0.2714  0.8161 -1.2014
  158SAPE  H17Y17734   0.876   3.580   8.371  2.5928 -1.3742  1.4224
  158SAPE  C31817735   0.931   3.788   8.337 -0.1179 -0.7108  0.2528
  158SAPE  H18X17736   0.930   3.892   8.378  0.6117  0.0573 -1.5960
  158SAPE  H18Y17737   0.860   3.790   8.252  0.9453 -0.6907 -0.6446
  158SAPE  H18Z17738   1.032   3.769   8.297  0.9572  0.6160  2.1410
  159SAPE     N17739   1.768   1.305   6.532  0.1486  0.8976 -0.4281
  159SAPE   HN117740   1.769   1.244   6.617 -1.3405  1.7912  0.2717
  159SAPE   HN217741   1.751   1.245   6.449 -1.8661 -1.0282  1.2241
  159SAPE   HN317742   1.864   1.342   6.525  0.7278 -0.7587 -1.7306
  159SAPE   C1217743   1.669   1.415   6.548  0.2959  0.4954  0.6700
  159SAPE  H12A17744   1.687   1.500   6.480 -1.6159  0.9449  0.6698
  159SAPE  H12B17745   1.681   1.442   6.655  0.0703 -0.5504  0.9705
  159SAPE   C1117746   1.530   1.359   6.537  0.0852  0.4893 -0.1305
  159SAPE  H11A17747   1.507   1.291   6.622  1.3016 -1.7938 -1.5325
  159SAPE  H11B17748   1.509   1.295   6.449 -1.6401  0.1587  0.4742
  159SAPE     P17749   1.288   1.432   6.535  0.2306  0.5928  0.4500
  159SAPE   O1317750   1.220   1.530   6.618  0.1908  0.7167  0.3958
  159SAPE   O1417751   1.265   1.433   6.386  0.3858  0.3353 -0.3072
  159SAPE   O1217752   1.442   1.466   6.546 -0.2305  0.4737 -0.6744
  159SAPE   O1117753   1.267   1.282   6.594  0.0963  0.0305 -0.4063
  159SAPE    C117754   1.151   1.199   6.566  0.5294 -0.3886  0.3655
  159SAPE    HA17755   1.062   1.262   6.548 -0.0715  0.3743  4.7858
  159SAPE    HB17756   1.162   1.139   6.473 -0.0031 -0.0021  0.0463
  159SAPE    C217757   1.131   1.101   6.681  0.0884  0.1580 -0.2448
  159SAPE    HS17758   1.042   1.036   6.667  0.5383 -0.8422  1.3434
  159SAPE   O2117759   1.137   1.171   6.803  0.2832  0.5874  0.1080
  159SAPE   C2117760   1.020   1.199   6.853  0.4399  0.1555 -0.1651
  159SAPE   O2217761   0.909   1.179   6.810  0.4202  0.1997  0.5084
  159SAPE   C2217762   1.039   1.258   6.995  0.4185  0.2205  0.4219
  159SAPE   H2R17763   1.130   1.215   7.042  0.5048 -1.4459 -1.1921
  159SAPE   H2S17764   1.050   1.366   6.969 -2.6102  0.4520 -0.2716
  159SAPE    C317765   1.255   1.008   6.682  0.0892 -0.0949 -0.2546
  159SAPE    HX17766   1.343   1.074   6.667 -0.4123  0.4831 -0.7116
  159SAPE    HY17767   1.252   0.942   6.593  0.7387  0.5883 -0.7981
  159SAPE   O3117768   1.261   0.918   6.797 -0.4526  0.2476 -0.2887
  159SAPE   C3117769   1.339   0.955   6.896 -0.2930 -0.0732 -0.5669
  159SAPE   O3217770   1.425   1.043   6.893  0.0182  0.2718 -0.6549
  159SAPE   C3217771   1.316   0.853   7.008 -0.8230 -1.6054  0.6395
  159SAPE   H2X17772   1.401   0.780   7.005  0.4387 -0.1828 -1.3939
  159SAPE   H2Y17773   1.222   0.795   6.997 -0.1508 -2.5339 -0.5479
  159SAPE   C2317774   0.914   1.227   7.088  0.3806  1.0058 -0.0289
  159SAPE   H3R17775   0.964   1.201   7.184  1.0118 -0.1400 -0.6286
  159SAPE   H3S17776   0.859   1.135   7.058  3.7767 -1.8427  1.6422
  159SAPE   C2417777   0.828   1.353   7.113  1.0281 -0.1862 -0.3729
  159SAPE   H4R17778   0.849   1.424   7.030  1.9850 -0.8953 -0.7578
  159SAPE   H4S17779   0.862   1.402   7.207  0.2096 -1.9454  0.8941
  159SAPE   C2517780   0.683   1.307   7.118 -0.0718 -0.0401 -0.6607
  159SAPE   H5R17781   0.619   1.369   7.054 -0.6366 -1.0710 -1.1271
  159SAPE   C2617782   0.620   1.243   7.212 -1.2640 -0.7410 -0.0952
  159SAPE   H6R17783   0.511   1.234   7.204 -1.0125 -3.1938 -2.2444
  159SAPE   C2717784   0.687   1.178   7.334 -0.4131  0.2818 -0.1227
  159SAPE   H7R17785   0.770   1.243   7.368 -0.2262  0.8301 -1.5475
  159SAPE   H7S17786   0.723   1.080   7.296  1.2181 -0.2872  2.5948
  159SAPE   C2817787   0.595   1.145   7.454  0.4317  0.3582  0.9731
  159SAPE   H8R17788   0.524   1.061   7.454 -0.4989  1.0713  3.0479
  159SAPE   C2917789   0.600   1.200   7.574 -0.1956 -0.0143 -0.2732
  159SAPE   H9R17790   0.533   1.166   7.654 -0.3371 -1.7906 -1.1103
  159SAPE  C21017791   0.694   1.310   7.618  0.7523  0.0149  0.1523
  159SAPE  H10R17792   0.638   1.390   7.672  1.1998  0.3170  0.1702
  159SAPE  H10S17793   0.742   1.358   7.531  1.2759 -0.7364  0.0151
  159SAPE  C21117794   0.806   1.260   7.709  0.2278  0.8013  0.5998
  159SAPE  H11R17795   0.865   1.180   7.662 -0.6288  0.3047  0.3437
  159SAPE  C21217796   0.838   1.317   7.828 -0.1921  1.1902  0.2652
  159SAPE  H12R17797   0.939   1.295   7.865 -0.1398  0.6464 -0.1831
  159SAPE  C21317798   0.761   1.416   7.912  0.5667  0.0678 -0.1474
  159SAPE  H13R17799   0.658   1.438   7.875 -1.2058 -1.5798  3.2985
  159SAPE  H13S17800   0.821   1.509   7.920 -0.4640  0.7050  0.4186
  159SAPE  C21417801   0.719   1.346   8.041 -0.4090  0.5226 -0.4168
  159SAPE  H14R17802   0.695   1.239   8.028 -2.1456  0.3906  2.8179
  159SAPE  C21517803   0.715   1.399   8.161  0.0782  0.5815 -0.4236
  159SAPE  H15R17804   0.693   1.336   8.248  0.2495 -0.1905 -0.9318
  159SAPE  C21617805   0.754   1.544   8.190  0.0131  0.1756 -0.1232
  159SAPE  H16R17806   0.658   1.596   8.211 -0.0677  0.7735 -1.7669
  159SAPE  H16S17807   0.795   1.594   8.100 -1.3096  1.6936  0.0632
  159SAPE  C21717808   0.850   1.572   8.305  0.1469 -0.1573  0.3906
  159SAPE  H17R17809   0.943   1.514   8.286  1.1747  1.9231 -1.4764
  159SAPE  H17S17810   0.800   1.552   8.402 -0.1640  0.6777  0.4159
  159SAPE  C21817811   0.888   1.723   8.321 -0.0430 -0.2486 -0.6076
  159SAPE  H18R17812   0.815   1.802   8.295  1.8760  1.6597 -0.5193
  159SAPE  H18S17813   0.966   1.751   8.247 -0.0926  2.1155  0.1647
  159SAPE  C21917814   0.949   1.738   8.462 -0.5022  0.2930 -0.4736
  159SAPE  H19R17815   0.876   1.756   8.544 -0.3302  0.3093 -0.3235
  159SAPE  H19S17816   1.002   1.836   8.453 -1.0304  0.5046 -1.5027
  159SAPE  C22017817   1.045   1.625   8.493 -0.5667 -0.1120  0.4779
  159SAPE  H20R17818   0.989   1.531   8.509 -1.3046  0.4729  1.4053
  159SAPE  H20S17819   1.116   1.662   8.570  0.4545  2.7496 -1.6362
  159SAPE  H20T17820   1.105   1.606   8.401 -1.3116  1.7162 -0.4397
  159SAPE   C3317821   1.336   0.920   7.142  0.7329 -0.8901 -0.1115
  159SAPE   H3X17822   1.264   1.001   7.162  0.9498 -1.0701  1.5303
  159SAPE   H3Y17823   1.435   0.970   7.135 -0.4557  1.5623 -0.4963
  159SAPE   C3417824   1.336   0.826   7.257 -0.4831  0.4264 -0.0551
  159SAPE   H4X17825   1.413   0.749   7.234 -1.7400 -0.2972 -2.0203
  159SAPE   H4Y17826   1.239   0.772   7.259 -0.7190  0.8443 -0.1198
  159SAPE   C3517827   1.344   0.903   7.384 -0.5256  0.1296  0.3750
  159SAPE   H5X17828   1.290   0.839   7.457 -1.3137 -3.0385 -2.7006
  159SAPE   H5Y17829   1.286   0.997   7.391  0.3489  0.6538  0.7553
  159SAPE   C3617830   1.493   0.927   7.414 -0.2251 -0.7509  0.4343
  159SAPE   H6X17831   1.488   0.996   7.500 -2.1299 -1.0786  0.6406
  159SAPE   H6Y17832   1.555   0.974   7.335 -0.6335  0.5508  0.8650
  159SAPE   C3717833   1.574   0.813   7.464  0.0126  0.1524 -0.4581
  159SAPE   H7X17834   1.621   0.768   7.375 -3.4165 -2.0324 -1.3522
  159SAPE   H7Y17835   1.510   0.742   7.520  0.1797  0.2978 -0.0768
  159SAPE   C3817836   1.673   0.855   7.571 -0.7639 -0.2162 -0.9889
  159SAPE   H8X17837   1.627   0.875   7.670 -0.6272 -0.1616 -0.9356
  159SAPE   H8Y17838   1.722   0.948   7.537  0.3783 -0.0854  0.8418
  159SAPE   C3917839   1.797   0.773   7.598  0.5417  0.3988  0.1843
  159SAPE   H9X17840   1.825   0.748   7.494 -2.2627 -0.0247 -0.5533
  159SAPE   H9Y17841   1.780   0.673   7.644  0.2240  0.4418  0.1619
  159SAPE  C31017842   1.901   0.847   7.682  0.2927 -0.3739 -0.0804
  159SAPE  H10X17843   1.889   0.956   7.662 -2.8657 -0.2568  1.7203
  159SAPE  H10Y17844   2.000   0.812   7.647 -0.0632 -1.2508 -0.2401
  159SAPE  C31117845   1.885   0.810   7.834 -0.8963 -0.2803 -0.4153
  159SAPE  H11X17846   1.889   0.700   7.853  0.8158  0.0359  1.4540
  159SAPE  H11Y17847   1.789   0.845   7.877 -0.1064  0.4097  0.8657
  159SAPE  C31217848   1.993   0.861   7.933  0.0831  0.2194  0.1771
  159SAPE  H12X17849   1.985   0.970   7.917 -0.8588  0.4048  1.6441
  159SAPE  H12Y17850   2.085   0.818   7.888 -0.4905 -0.3246 -0.5001
  159SAPE  C31317851   1.963   0.815   8.077  0.6397  0.5042 -0.7283
  159SAPE  H13X17852   1.857   0.831   8.106  0.6553  0.0985 -0.4513
  159SAPE  H13Y17853   2.016   0.883   8.147 -1.6065 -0.2289  1.8198
  159SAPE  C31417854   2.019   0.670   8.098 -0.1182 -0.6841  0.4032
  159SAPE  H14X17855   2.129   0.681   8.088 -0.2395  0.3673  0.1772
  159SAPE  H14Y17856   1.989   0.599   8.018 -0.6413  1.0084 -0.9593
  159SAPE  C31517857   2.008   0.590   8.227  0.6274 -0.2266 -0.2065
  159SAPE  H15X17858   2.023   0.654   8.316 -0.2209  1.2581 -1.0911
  159SAPE  H15Y17859   2.086   0.511   8.218 -0.1031 -0.8709 -1.0697
  159SAPE  C31617860   1.875   0.525   8.236 -0.7128 -0.3098 -0.0965
  159SAPE  H16X17861   1.865   0.444   8.161  1.0487  0.1494 -0.8658
  159SAPE  H16Y17862   1.793   0.597   8.212 -0.4559  0.6025  1.6583
  159SAPE  C31717863   1.836   0.462   8.374 -0.0766  0.1232 -0.2302
  159SAPE  H17X17864   1.917   0.394   8.408 -1.0618 -0.9104  0.1292
  159SAPE  H17Y17865   1.742   0.405   8.357 -1.0012  1.1186  1.3123
  159SAPE  C31817866   1.804   0.563   8.481  0.1101 -0.0717  0.5408
  159SAPE  H18X17867   1.764   0.515   8.573  0.3101 -0.5378  0.3873
  159SAPE  H18Y17868   1.723   0.632   8.449 -0.5492 -0.4507  1.3605
  159SAPE  H18Z17869   1.881   0.641   8.503 -1.1225  0.9837  1.2345
  160SAPE     N17870   6.463   1.505   6.305  0.2319  0.6053 -0.4568
  160SAPE   HN117871   6.538   1.576   6.317  2.1458 -1.4765  0.6289
  160SAPE   HN217872   6.472   1.433   6.379  0.9199  0.2594 -0.8643
  160SAPE   HN317873   6.474   1.450   6.217  0.7267  0.1195 -0.0911
  160SAPE   C1217874   6.327   1.571   6.306 -0.4082 -0.0825 -0.6211
  160SAPE  H12A17875   6.250   1.492   6.298 -0.0737 -0.5514  0.5040
  160SAPE  H12B17876   6.311   1.653   6.233  0.5976 -1.0564 -1.9800
  160SAPE   C1117877   6.311   1.636   6.451  0.1643  0.2267  0.3171
  160SAPE  H11A17878   6.368   1.732   6.449  1.4930 -0.5519 -0.5874
  160SAPE  H11B17879   6.350   1.567   6.529 -1.7713 -1.2909  0.0087
  160SAPE     P17880   6.101   1.801   6.461  0.3463 -0.2046 -0.1891
  160SAPE   O1317881   6.157   1.882   6.351  0.3830 -0.5159  0.3789
  160SAPE   O1417882   5.956   1.791   6.479 -0.9002  0.8551 -0.1597
  160SAPE   O1217883   6.172   1.659   6.467 -0.0840  0.1274 -0.1322
  160SAPE   O1117884   6.164   1.861   6.595 -0.6258 -0.1867  0.9328
  160SAPE    C117885   6.119   1.808   6.717  0.0322  0.1456 -0.4590
  160SAPE    HA17886   6.077   1.706   6.712  2.9627 -1.1452 -1.2188
  160SAPE    HB17887   6.200   1.799   6.793 -0.0734  1.9436 -0.1014
  160SAPE    C217888   6.018   1.908   6.781  0.0271  0.1506 -0.5477
  160SAPE    HS17889   5.936   1.927   6.708 -0.0180 -1.4021 -0.9297
  160SAPE   O2117890   6.086   2.025   6.817  0.1734  1.0750 -0.6866
  160SAPE   C2117891   6.088   2.124   6.732  0.2371  0.3113 -0.2461
  160SAPE   O2217892   6.032   2.122   6.625 -0.0431 -0.1690  0.0512
  160SAPE   C2217893   6.142   2.255   6.791 -0.2181  0.1610  0.0607
  160SAPE   H2R17894   6.200   2.234   6.883 -1.9584 -2.1834  0.7263
  160SAPE   H2S17895   6.216   2.274   6.710 -3.3342 -0.7137 -3.2731
  160SAPE    C317896   5.943   1.842   6.903  0.5560  0.2322 -0.5202
  160SAPE    HX17897   6.021   1.791   6.964 -0.4742  0.2384  0.8486
  160SAPE    HY17898   5.872   1.761   6.876  1.5855 -0.4767 -1.1896
  160SAPE   O3117899   5.874   1.934   6.990 -0.2811 -0.0946 -0.0962
  160SAPE   C3117900   5.758   1.979   6.950  0.1691  0.3952  0.4852
  160SAPE   O3217901   5.705   1.962   6.838 -0.1637  0.9350  0.2499
  160SAPE   C3217902   5.678   2.052   7.057 -0.3857 -0.4926 -0.5512
  160SAPE   H2X17903   5.583   2.076   7.003 -0.4026 -1.6721 -1.0694
  160SAPE   H2Y17904   5.731   2.146   7.082 -1.8278  0.6383 -1.5334
  160SAPE   C2317905   6.046   2.369   6.807 -0.2469  0.0825  0.0370
  160SAPE   H3R17906   6.002   2.360   6.909  0.6788 -1.0308  0.3634
  160SAPE   H3S17907   5.973   2.382   6.725  0.2708  0.8937 -0.3189
  160SAPE   C2417908   6.121   2.505   6.800 -0.2519 -0.0761  0.4265
  160SAPE   H4R17909   6.048   2.585   6.823 -0.8375  0.0418 -1.6770
  160SAPE   H4S17910   6.157   2.530   6.698  1.0485 -0.2480  0.8139
  160SAPE   C2517911   6.249   2.522   6.885  0.1355  0.8021  0.6084
  160SAPE   H5R17912   6.347   2.527   6.836  0.1017  1.5877  0.6078
  160SAPE   C2617913   6.245   2.535   7.018  0.7860  0.9570  0.3018
  160SAPE   H6R17914   6.338   2.556   7.072  0.0591 -0.7406  2.3129
  160SAPE   C2717915   6.122   2.538   7.104 -0.2684 -0.5696 -1.1265
  160SAPE   H7R17916   6.147   2.471   7.189 -0.6507 -0.9553 -1.3117
  160SAPE   H7S17917   6.029   2.503   7.053 -0.7106  1.9197 -2.1738
  160SAPE   C2817918   6.093   2.681   7.135  0.3384 -0.1320 -0.1132
  160SAPE   H8R17919   6.107   2.756   7.057  1.9847 -1.2634 -0.9663
  160SAPE   C2917920   6.053   2.728   7.256  0.1286  0.4428 -0.2205
  160SAPE   H9R17921   6.043   2.837   7.263 -2.5876  0.1466  2.9973
  160SAPE  C21017922   6.023   2.652   7.382  0.1240  1.2790  0.3653
  160SAPE  H10R17923   6.019   2.542   7.365  0.7289  1.2801  0.1729
  160SAPE  H10S17924   5.918   2.680   7.405 -0.0306  1.9817 -1.0800
  160SAPE  C21117925   6.115   2.695   7.494 -0.5399 -0.3387 -0.1771
  160SAPE  H11R17926   6.095   2.797   7.529  1.7646 -0.4806  1.8461
  160SAPE  C21217927   6.223   2.628   7.534 -1.0081  0.3875 -0.0878
  160SAPE  H12R17928   6.296   2.678   7.599  0.2616 -1.5034  0.0140
  160SAPE  C21317929   6.274   2.494   7.487  0.2433 -0.0597  0.0391
  160SAPE  H13R17930   6.384   2.508   7.474  0.0695 -0.3137 -2.0226
  160SAPE  H13S17931   6.225   2.467   7.391  0.3054  3.4398 -1.1051
  160SAPE  C21417932   6.255   2.397   7.597  1.1445 -0.4497  0.2961
  160SAPE  H14R17933   6.179   2.419   7.672  0.1705 -1.7372 -0.2872
  160SAPE  C21517934   6.334   2.293   7.618  0.2946 -0.3521 -0.2590
  160SAPE  H15R17935   6.332   2.241   7.715 -2.0937  0.8901  0.4552
  160SAPE  C21617936   6.450   2.254   7.534  0.5858 -0.0250 -0.5466
  160SAPE  H16R17937   6.545   2.293   7.574 -0.9091  2.5223  0.7783
  160SAPE  H16S17938   6.438   2.290   7.430 -0.2075 -0.4401 -0.6103
  160SAPE  C21717939   6.457   2.098   7.510  0.6630  0.1936  0.3613
  160SAPE  H17R17940   6.512   2.068   7.418 -0.2812  1.3864 -0.6442
  160SAPE  H17S17941   6.351   2.070   7.488  0.9571 -0.4179 -0.3185
  160SAPE  C21817942   6.507   2.011   7.619  0.2047 -0.0222  0.4669
  160SAPE  H18R17943   6.492   1.905   7.588  2.4448 -0.6166  1.2581
  160SAPE  H18S17944   6.456   2.026   7.717  0.5913 -0.0209  0.6686
  160SAPE  C21917945   6.655   2.028   7.643 -0.0415 -0.7602 -0.3829
  160SAPE  H19R17946   6.684   2.133   7.665  1.9636 -1.6896  1.8276
  160SAPE  H19S17947   6.718   1.985   7.563 -0.1487 -0.9861 -0.3475
  160SAPE  C22017948   6.681   1.951   7.769  0.3833  0.6545 -0.0392
  160SAPE  H20R17949   6.672   1.842   7.747 -0.1078  0.7298 -0.2293
  160SAPE  H20S17950   6.614   1.969   7.856  1.7154 -0.0516  1.1835
  160SAPE  H20T17951   6.782   1.970   7.810  0.1503 -0.6577  1.2335
  160SAPE   C3317952   5.662   1.987   7.192 -0.0159  0.2330 -0.1339
  160SAPE   H3X17953   5.757   1.940   7.226  0.7393  1.1792 -0.8673
  160SAPE   H3Y17954   5.587   1.904   7.190 -2.2918  2.1488  1.1238
  160SAPE   C3417955   5.603   2.092   7.296 -0.2647 -0.6890 -0.5906
  160SAPE   H4X17956   5.523   2.131   7.230  2.3359 -1.1127 -4.3256
  160SAPE   H4Y17957   5.684   2.168   7.309 -2.3859  1.3721  1.6847
  160SAPE   C3517958   5.553   2.046   7.436 -0.0500  0.4746  0.2182
  160SAPE   H5X17959   5.643   1.997   7.480  0.4091 -0.1979 -1.3930
  160SAPE   H5Y17960   5.476   1.967   7.432 -2.6214  2.7366  1.5963
  160SAPE   C3617961   5.505   2.153   7.529 -0.0595  0.0059 -0.1703
  160SAPE   H6X17962   5.427   2.217   7.484  0.0898 -0.6022 -1.3226
  160SAPE   H6Y17963   5.584   2.225   7.559  1.8053 -1.5482 -1.1372
  160SAPE   C3717964   5.454   2.092   7.661 -0.2722  0.6967 -0.1230
  160SAPE   H7X17965   5.542   2.049   7.714 -0.7323 -0.4129 -0.2332
  160SAPE   H7Y17966   5.368   2.023   7.651 -1.2314  1.7900  0.2793
  160SAPE   C3817967   5.410   2.200   7.768  0.1787  0.6773 -0.5833
  160SAPE   H8X17968   5.321   2.256   7.732 -0.7745  0.3668  1.2126
  160SAPE   H8Y17969   5.492   2.274   7.784  0.2036  0.4303  0.4860
  160SAPE   C3917970   5.385   2.151   7.915  0.3966 -0.0096  0.6641
  160SAPE   H9X17971   5.329   2.056   7.920  1.1832 -0.4158  2.2733
  160SAPE   H9Y17972   5.317   2.230   7.955 -0.9702 -0.4864 -0.6344
  160SAPE  C31017973   5.507   2.150   8.008  0.5562 -0.3485  0.0022
  160SAPE  H10X17974   5.538   2.256   8.009  0.2098 -0.1648 -2.6263
  160SAPE  H10Y17975   5.583   2.083   7.962 -1.9541 -0.7537 -4.0513
  160SAPE  C31117976   5.462   2.101   8.146 -0.1524  0.4071  0.2860
  160SAPE  H11X17977   5.446   1.992   8.134  4.2580 -0.2815 -1.0439
  160SAPE  H11Y17978   5.374   2.162   8.174 -0.3864 -0.2413  0.9920
  160SAPE  C31217979   5.570   2.112   8.264 -0.3782  0.4868  0.4949
  160SAPE  H12X17980   5.667   2.106   8.210 -1.3623 -1.8835 -1.1969
  160SAPE  H12Y17981   5.552   2.024   8.330  1.0243 -0.8557 -0.8444
  160SAPE  C31317982   5.555   2.248   8.339 -0.0676  0.6493 -0.5183
  160SAPE  H13X17983   5.449   2.250   8.372 -0.3488 -0.8953 -1.2554
  160SAPE  H13Y17984   5.579   2.333   8.272  2.4981  0.1705 -0.3031
  160SAPE  C31417985   5.648   2.261   8.465  0.3315 -0.3967 -0.3168
  160SAPE  H14X17986   5.750   2.267   8.420  0.4997 -0.6461  0.0319
  160SAPE  H14Y17987   5.646   2.172   8.532  0.9256  1.6770  2.6363
  160SAPE  C31517988   5.597   2.379   8.554  0.2147 -0.2309 -0.5910
  160SAPE  H15X17989   5.489   2.359   8.564  0.4795 -0.6622  2.2122
  160SAPE  H15Y17990   5.599   2.481   8.509 -2.1699  0.2982  0.3997
  160SAPE  C31617991   5.660   2.383   8.695 -0.9454 -0.1708  0.3151
  160SAPE  H16X17992   5.692   2.281   8.726  0.6760  0.4115  0.6071
  160SAPE  H16Y17993   5.579   2.423   8.761 -2.3637 -0.1405 -1.3744
  160SAPE  C31717994   5.778   2.480   8.690  0.1129 -0.2932 -0.7606
  160SAPE  H17X17995   5.740   2.572   8.641 -0.4858 -1.1181 -1.9007
  160SAPE  H17Y17996   5.854   2.432   8.623 -0.8741 -1.9637 -0.7340
  160SAPE  C31817997   5.841   2.520   8.818  0.1679 -0.0139  0.9696
  160SAPE  H18X17998   5.862   2.429   8.878 -0.3356 -0.9255 -0.1990
  160SAPE  H18Y17999   5.774   2.589   8.873 -0.1065  0.6686 -0.1974
  160SAPE  H18Z18000   5.927   2.587   8.796 -0.7807  1.4319  1.4708
  161SAPE     N18001   1.074   0.330   6.549  0.0072  0.2304  0.1515
  161SAPE   HN118002   1.052   0.246   6.493  1.1277  0.4030 -0.5706
  161SAPE   HN218003   1.178   0.325   6.545 -0.0143  0.4158 -1.2438
  161SAPE   HN318004   1.043   0.321   6.648  0.5125  2.7642  0.6184
  161SAPE   C1218005   1.017   0.448   6.470 -0.1648  0.7233  0.1145
  161SAPE  H12A18006   1.111   0.498   6.439  2.0709 -3.6136 -0.8446
  161SAPE  H12B18007   0.961   0.510   6.544  0.0452  0.4536  0.5007
  161SAPE   C1118008   0.935   0.389   6.355 -0.0911  0.4197  0.2118
  161SAPE  H11A18009   0.875   0.478   6.327 -1.1408  0.9578  3.6500
  161SAPE  H11B18010   0.857   0.321   6.395 -0.0816  1.7209  2.6148
  161SAPE     P18011   1.024   0.185   6.217 -0.6639 -0.2546  0.2036
  161SAPE   O1318012   0.891   0.141   6.171  0.1995 -0.3257 -0.2574
  161SAPE   O1418013   1.141   0.173   6.128 -0.1912 -0.0644  0.3101
  161SAPE   O1218014   1.011   0.337   6.246 -0.0454 -0.2844 -0.5838
  161SAPE   O1118015   1.060   0.128   6.356  0.3571  0.7270  0.2562
  161SAPE    C118016   1.037  -0.016   6.367  0.3250  0.4595  0.1589
  161SAPE    HA18017   0.934  -0.052   6.345  0.9078 -1.3262  0.1480
  161SAPE    HB18018   1.108  -0.071   6.301 -3.8083 -2.2053 -2.5820
  161SAPE    C218019   1.054  -0.066   6.512  0.0660  0.2413 -0.1959
  161SAPE    HS18020   1.021  -0.173   6.508 -0.9145  0.5720 -2.0319
  161SAPE   O2118021   0.972   0.014   6.601  0.2345 -0.1427  0.4012
  161SAPE   C2118022   0.845  -0.034   6.620 -0.6366  0.3681 -0.4671
  161SAPE   O2218023   0.803  -0.128   6.558  0.3943  0.2198 -0.2496
  161SAPE   C2218024   0.768   0.045   6.725 -0.7092  0.5496 -0.4365
  161SAPE   H2R18025   0.813   0.146   6.741 -0.6949  0.3892  0.6282
  161SAPE   H2S18026   0.668   0.065   6.680 -0.9079 -1.8455 -1.1524
  161SAPE    C318027   1.201  -0.053   6.553 -0.1237 -0.2869  0.5004
  161SAPE    HX18028   1.218   0.056   6.567  1.1728 -0.1866 -1.4002
  161SAPE    HY18029   1.265  -0.097   6.474  0.8119 -0.6736  1.4543
  161SAPE   O3118030   1.223  -0.118   6.682  0.4805  0.0234 -0.5361
  161SAPE   C3118031   1.339  -0.171   6.697  0.6521  0.6550 -0.5504
  161SAPE   O3218032   1.441  -0.139   6.636  0.1169  0.0691 -0.2238
  161SAPE   C3218033   1.331  -0.286   6.807  0.1354 -0.1046 -0.1710
  161SAPE   H2X18034   1.294  -0.385   6.772 -2.3383  1.2886 -1.8247
  161SAPE   H2Y18035   1.257  -0.259   6.886  0.5020 -1.3656  0.6385
  161SAPE   C2318036   0.739  -0.028   6.857 -0.2146 -0.4202  0.1403
  161SAPE   H3R18037   0.707  -0.129   6.822  0.5920 -0.5038 -0.3955
  161SAPE   H3S18038   0.661   0.018   6.920 -1.5389  0.2701 -1.9160
  161SAPE   C2418039   0.863  -0.061   6.932 -0.2892 -0.2215 -0.5077
  161SAPE   H4R18040   0.940  -0.116   6.874  0.9913  2.6210 -1.6527
  161SAPE   H4S18041   0.831  -0.119   7.021  0.6726  0.6748  0.4584
  161SAPE   C2518042   0.924   0.066   6.984  0.4138  0.0697  0.2697
  161SAPE   H5R18043   0.940   0.128   6.895 -1.6273 -0.9512 -0.8942
  161SAPE   C2618044   0.941   0.118   7.109  0.2303  0.1957 -0.1202
  161SAPE   H6R18045   0.965   0.225   7.116 -1.9538  0.7008  0.0847
  161SAPE   C2718046   0.910   0.051   7.242  0.3768  0.3811  0.4875
  161SAPE   H7R18047   0.868  -0.051   7.226  1.6908 -0.1101 -0.0261
  161SAPE   H7S18048   0.827   0.105   7.292 -1.6159 -1.1750 -0.9484
  161SAPE   C2818049   1.034   0.039   7.335 -0.3034  0.1889  0.1255
  161SAPE   H8R18050   1.130   0.058   7.285 -1.4164  2.1310 -1.4432
  161SAPE   C2918051   1.034   0.042   7.467 -0.1600  1.0803 -0.0324
  161SAPE   H9R18052   1.128   0.022   7.520 -0.7240 -0.9049  0.2946
  161SAPE  C21018053   0.912   0.064   7.560 -0.6694  0.5753  0.6588
  161SAPE  H10R18054   0.857  -0.031   7.577 -0.4261  0.3594  0.2405
  161SAPE  H10S18055   0.834   0.130   7.515 -1.0452 -0.1717  0.1843
  161SAPE  C21118056   0.960   0.120   7.690 -0.4538 -0.2566  0.7591
  161SAPE  H11R18057   1.069   0.131   7.698 -0.6875  3.9309  0.8097
  161SAPE  C21218058   0.891   0.141   7.799 -0.3709 -0.0047 -0.8249
  161SAPE  H12R18059   0.937   0.184   7.889 -0.3028  0.5488 -1.1211
  161SAPE  C21318060   0.742   0.121   7.827 -0.3932  0.1995  0.5884
  161SAPE  H13R18061   0.693   0.177   7.744  1.9433 -2.4256 -2.8841
  161SAPE  H13S18062   0.701   0.176   7.914  2.5475  2.4464  0.6935
  161SAPE  C21418063   0.689  -0.017   7.833 -0.0137  0.2491 -0.3982
  161SAPE  H14R18064   0.736  -0.066   7.920  0.5861  0.2539 -0.7147
  161SAPE  C21518065   0.601  -0.072   7.752  0.6297  0.5539  0.3827
  161SAPE  H15R18066   0.583  -0.180   7.762  0.4345  0.6290  0.8909
  161SAPE  C21618067   0.534  -0.012   7.629 -0.9841  0.9219  0.0125
  161SAPE  H16R18068   0.596   0.066   7.579 -0.4515 -0.1541 -1.0389
  161SAPE  H16S18069   0.438   0.036   7.658 -0.1444  3.5281 -1.1410
  161SAPE  C21718070   0.500  -0.114   7.511 -0.5148  0.2077 -0.5567
  161SAPE  H17R18071   0.415  -0.073   7.452 -1.0104  0.4912  0.3236
  161SAPE  H17S18072   0.478  -0.211   7.561 -0.1885  1.0518  1.3089
  161SAPE  C21818073   0.619  -0.139   7.410 -0.0877  0.3892 -0.8543
  161SAPE  H18R18074   0.709  -0.180   7.461  1.4395  1.8579 -2.2477
  161SAPE  H18S18075   0.652  -0.042   7.368 -1.7224  0.6327 -1.6507
  161SAPE  C21918076   0.586  -0.221   7.287  0.2220  1.1717  0.2315
  161SAPE  H19R18077   0.511  -0.299   7.316  1.0928  0.6220  1.0828
  161SAPE  H19S18078   0.678  -0.271   7.250 -0.2707 -1.1601  1.8626
  161SAPE  C22018079   0.520  -0.130   7.182 -0.3973 -0.1032 -0.1325
  161SAPE  H20R18080   0.507  -0.177   7.082  2.1080 -1.4598  0.0836
  161SAPE  H20S18081   0.585  -0.044   7.155 -0.0715 -0.5367 -0.7647
  161SAPE  H20T18082   0.424  -0.097   7.227 -0.1776 -2.8630  2.6864
  161SAPE   C3318083   1.471  -0.294   6.874  0.2421 -0.6074  0.1062
  161SAPE   H3X18084   1.488  -0.198   6.926  0.0856 -0.5993  0.1440
  161SAPE   H3Y18085   1.548  -0.312   6.796  1.8640  0.8950  1.2855
  161SAPE   C3418086   1.489  -0.408   6.972 -0.1458 -0.3326  1.2550
  161SAPE   H4X18087   1.599  -0.421   6.981 -0.0225  0.5079  1.0107
  161SAPE   H4Y18088   1.452  -0.506   6.934  2.0252 -0.2773 -1.3495
  161SAPE   C3518089   1.429  -0.377   7.105  0.5080  1.2242 -0.0725
  161SAPE   H5X18090   1.321  -0.401   7.091 -0.1155  2.0350  2.7020
  161SAPE   H5Y18091   1.430  -0.269   7.132 -0.0057  1.1986  0.0804
  161SAPE   C3618092   1.480  -0.452   7.221 -0.4899  0.6603  0.0049
  161SAPE   H6X18093   1.584  -0.419   7.244 -1.2722  2.0750  1.6885
  161SAPE   H6Y18094   1.502  -0.557   7.191  0.7820  0.4762  1.4318
  161SAPE   C3718095   1.391  -0.457   7.343 -0.1597  0.5619  0.4061
  161SAPE   H7X18096   1.303  -0.508   7.298  0.1882  0.2996  0.0103
  161SAPE   H7Y18097   1.354  -0.358   7.375  0.1803  1.5888 -2.1468
  161SAPE   C3818098   1.460  -0.539   7.455 -0.7232  0.2841  0.3607
  161SAPE   H8X18099   1.555  -0.491   7.488 -0.1265 -0.0694 -0.7734
  161SAPE   H8Y18100   1.475  -0.641   7.415 -0.1235  0.2166  0.7370
  161SAPE   C3918101   1.375  -0.567   7.579  0.4627 -0.7211  0.4668
  161SAPE   H9X18102   1.283  -0.614   7.537  0.0178  2.0278 -1.9779
  161SAPE   H9Y18103   1.341  -0.468   7.616 -0.8570 -1.0925  0.3036
  161SAPE  C31018104   1.441  -0.631   7.698 -0.2566 -0.1158 -0.1138
  161SAPE  H10X18105   1.534  -0.575   7.719 -0.6556 -0.1338  1.9077
  161SAPE  H10Y18106   1.479  -0.733   7.675 -1.8686 -1.3428  2.2187
  161SAPE  C31118107   1.352  -0.639   7.828 -0.1359 -0.3449  0.3495
  161SAPE  H11X18108   1.257  -0.694   7.813 -0.4403 -0.1259  1.4228
  161SAPE  H11Y18109   1.325  -0.537   7.865  0.2229 -0.8018  1.9281
  161SAPE  C31218110   1.423  -0.722   7.931  0.0937 -0.0137 -0.2355
  161SAPE  H12X18111   1.520  -0.689   7.975  1.0046 -0.2499 -2.0039
  161SAPE  H12Y18112   1.443  -0.826   7.899  0.4904  0.1839 -0.6357
  161SAPE  C31318113   1.341  -0.731   8.059 -0.5310  0.5103 -0.1989
  161SAPE  H13X18114   1.240  -0.772   8.036  0.5452 -2.2986 -0.2693
  161SAPE  H13Y18115   1.331  -0.628   8.098  0.3667 -0.0752  1.7062
  161SAPE  C31418116   1.407  -0.813   8.178  0.2055  0.3067  0.4728
  161SAPE  H14X18117   1.510  -0.775   8.193  0.4004  0.3439 -0.8160
  161SAPE  H14Y18118   1.420  -0.917   8.140 -1.8516 -1.1825  3.4418
  161SAPE  C31518119   1.325  -0.813   8.308  0.2175 -0.2514 -0.8818
  161SAPE  H15X18120   1.219  -0.836   8.287 -0.0300 -0.6513  0.6724
  161SAPE  H15Y18121   1.328  -0.707   8.342 -0.2316 -0.4991 -0.0396
  161SAPE  C31618122   1.348  -0.909   8.433 -0.4465 -0.3628  0.5333
  161SAPE  H16X18123   1.267  -0.895   8.507 -0.6988  1.3151 -0.0149
  161SAPE  H16Y18124   1.451  -0.890   8.469  1.0457 -2.0020 -2.4543
  161SAPE  C31718125   1.342  -1.055   8.382 -0.0216  0.0469 -0.5711
  161SAPE  H17X18126   1.417  -1.080   8.304  1.3459 -0.9334  0.9947
  161SAPE  H17Y18127   1.239  -1.066   8.344 -0.0412  2.4568 -1.4319
  161SAPE  C31818128   1.352  -1.157   8.501  0.2518 -0.9691  0.0325
  161SAPE  H18X18129   1.258  -1.143   8.559  0.5357 -1.3495  0.5962
  161SAPE  H18Y18130   1.436  -1.136   8.571  0.2595  0.9028 -0.4744
  161SAPE  H18Z18131   1.351  -1.262   8.466  2.5987 -0.2095 -2.7009
  162SAPE     N18132   6.355   2.045   6.275  0.3275 -0.1126 -0.2352
  162SAPE   HN118133   6.280   1.973   6.284 -0.4653  0.8219  1.0615
  162SAPE   HN218134   6.372   2.102   6.189 -0.9542  1.2544  0.3632
  162SAPE   HN318135   6.443   1.992   6.290  1.6848  1.3561 -2.4431
  162SAPE   C1218136   6.334   2.127   6.398  0.7947 -0.2371 -0.0997
  162SAPE  H12A18137   6.317   2.059   6.485  0.4141  1.4891  1.2352
  162SAPE  H12B18138   6.242   2.186   6.383  1.7713  1.1659 -0.8459
  162SAPE   C1118139   6.454   2.229   6.431  0.0717 -0.4281 -0.0217
  162SAPE  H11A18140   6.541   2.173   6.470  0.3139  0.4468  0.7306
  162SAPE  H11B18141   6.412   2.309   6.495 -1.0237 -0.8460 -0.2006
  162SAPE     P18142   6.521   2.431   6.276  0.0530  0.1739  0.2507
  162SAPE   O1318143   6.566   2.449   6.138  0.6121 -0.2388 -0.0191
  162SAPE   O1418144   6.396   2.507   6.315  0.5157 -0.4583  0.0337
  162SAPE   O1218145   6.484   2.280   6.295  0.4749 -0.3251 -0.0863
  162SAPE   O1118146   6.640   2.456   6.378 -0.0176  0.5294 -0.1388
  162SAPE    C118147   6.754   2.374   6.368 -0.3599  0.2117  0.5635
  162SAPE    HA18148   6.731   2.265   6.367 -0.4903  0.2255 -1.5097
  162SAPE    HB18149   6.808   2.388   6.272  1.1698  0.1767  1.3941
  162SAPE    C218150   6.852   2.395   6.486  0.3191 -0.4092 -0.1747
  162SAPE    HS18151   6.902   2.295   6.489 -0.6452 -0.8976  0.2546
  162SAPE   O2118152   6.791   2.421   6.614 -0.5315 -0.3032 -0.7614
  162SAPE   C2118153   6.723   2.330   6.671  0.1191  0.6783 -0.5575
  162SAPE   O2218154   6.709   2.220   6.627 -0.3885  0.0635 -0.6039
  162SAPE   C2218155   6.687   2.367   6.808  0.5131 -0.2556  0.6868
  162SAPE   H2R18156   6.623   2.457   6.801  1.5581  0.3772 -2.0884
  162SAPE   H2S18157   6.639   2.285   6.865 -0.9875  0.7282  0.8953
  162SAPE    C318158   6.956   2.509   6.465 -0.5065  0.6567 -0.2896
  162SAPE    HX18159   6.891   2.591   6.427 -1.0277  0.2152 -0.3654
  162SAPE    HY18160   7.029   2.499   6.382  1.3471  1.4339  1.1749
  162SAPE   O3118161   7.025   2.552   6.588  0.7443 -0.7519 -0.0095
  162SAPE   C3118162   7.114   2.471   6.622 -0.0919 -0.2036  0.6310
  162SAPE   O3218163   7.138   2.360   6.564  0.1209  0.0404 -1.0102
  162SAPE   C3218164   7.192   2.545   6.735  0.4025 -0.1015 -0.3113
  162SAPE   H2X18165   7.137   2.639   6.757  2.6985  1.8741 -2.4606
  162SAPE   H2Y18166   7.296   2.571   6.707 -0.6565  4.8898 -0.4660
  162SAPE   C2318167   6.810   2.396   6.898 -0.9021 -0.4577 -0.3392
  162SAPE   H3R18168   6.873   2.476   6.853  1.5561 -3.3311 -2.3958
  162SAPE   H3S18169   6.872   2.304   6.889 -0.6734 -0.2533 -0.9095
  162SAPE   C2418170   6.779   2.435   7.050  0.0738  0.1406  0.4787
  162SAPE   H4R18171   6.751   2.542   7.061 -0.2985  0.2609 -1.3239
  162SAPE   H4S18172   6.879   2.431   7.098  0.0811  0.1158  0.4615
  162SAPE   C2518173   6.690   2.332   7.126  0.1890  0.2235  0.8889
  162SAPE   H5R18174   6.590   2.320   7.080  0.1979  2.6899  0.1114
  162SAPE   C2618175   6.718   2.263   7.242 -0.1332  0.4631  0.5518
  162SAPE   H6R18176   6.648   2.182   7.270 -1.0033  1.5410  1.6109
  162SAPE   C2718177   6.847   2.265   7.324  0.8583  0.0641  0.0143
  162SAPE   H7R18178   6.814   2.244   7.429  0.0098 -0.9365 -0.4296
  162SAPE   H7S18179   6.883   2.369   7.325  0.0560  0.3577 -0.6134
  162SAPE   C2818180   6.958   2.166   7.271 -0.0151 -1.0052  0.1676
  162SAPE   H8R18181   6.981   2.168   7.163  0.7821 -1.9557  0.3045
  162SAPE   C2918182   7.031   2.072   7.339  0.7284  0.2873 -0.9400
  162SAPE   H9R18183   7.109   2.023   7.280 -1.0201 -2.7686 -0.9358
  162SAPE  C21018184   7.031   2.050   7.493  0.3120 -0.0016 -0.3419
  162SAPE  H10R18185   6.980   1.952   7.511  1.4349 -0.4676  0.3951
  162SAPE  H10S18186   6.965   2.117   7.552  0.1132 -1.6682  1.4149
  162SAPE  C21118187   7.159   2.057   7.574 -0.2865  0.1660 -0.2752
  162SAPE  H11R18188   7.195   2.155   7.610 -1.8800  0.6986 -0.0510
  162SAPE  C21218189   7.228   1.950   7.624  0.1847 -0.1529  0.7764
  162SAPE  H12R18190   7.309   1.978   7.693  0.0365  2.1840  0.0885
  162SAPE  C21318191   7.197   1.804   7.607  0.3241 -0.3539 -0.2587
  162SAPE  H13R18192   7.187   1.784   7.498 -1.0817 -0.7470 -0.0809
  162SAPE  H13S18193   7.099   1.782   7.655  0.9655  0.0189  1.2896
  162SAPE  C21418194   7.299   1.714   7.674 -0.0962  0.4692  0.3687
  162SAPE  H14R18195   7.383   1.677   7.612 -1.2555 -0.9692 -0.4122
  162SAPE  C21518196   7.297   1.673   7.804 -0.7183  0.2175  0.6609
  162SAPE  H15R18197   7.370   1.596   7.831 -2.7804 -2.0552  0.1420
  162SAPE  C21618198   7.199   1.712   7.912  0.2410  0.1891 -0.5067
  162SAPE  H16R18199   7.156   1.616   7.948  3.8659 -2.7512 -3.1469
  162SAPE  H16S18200   7.116   1.770   7.867  0.1378  0.9344  0.5998
  162SAPE  C21718201   7.273   1.770   8.037 -0.3590  0.2501 -0.5868
  162SAPE  H17R18202   7.361   1.826   7.999  0.5158  0.2982  1.3867
  162SAPE  H17S18203   7.295   1.681   8.101 -4.5014 -0.3356  0.2781
  162SAPE  C21818204   7.183   1.853   8.130 -0.2345 -0.0512 -0.5688
  162SAPE  H18R18205   7.108   1.792   8.185  1.3537 -1.9834 -0.4267
  162SAPE  H18S18206   7.121   1.919   8.066  0.5126  1.3675  0.1177
  162SAPE  C21918207   7.266   1.929   8.237 -0.0869 -0.4572 -1.3943
  162SAPE  H19R18208   7.336   1.994   8.181  0.5389  0.6852  0.6111
  162SAPE  H19S18209   7.329   1.867   8.304 -1.9248  0.4477  1.3563
  162SAPE  C22018210   7.194   2.023   8.327 -0.2716 -0.8821  0.1489
  162SAPE  H20R18211   7.267   2.071   8.395  0.1598 -0.1316 -0.8390
  162SAPE  H20S18212   7.119   1.970   8.391 -1.7070  0.3957 -0.4081
  162SAPE  H20T18213   7.138   2.101   8.271 -1.2615 -1.1446  0.7426
  162SAPE   C3318214   7.203   2.454   6.859 -0.4197 -0.3459 -0.2005
  162SAPE   H3X18215   7.283   2.381   6.834 -0.8026 -0.7556 -0.2559
  162SAPE   H3Y18216   7.105   2.408   6.883 -0.9426  0.3958 -0.8829
  162SAPE   C3418217   7.254   2.524   6.980 -0.2274  0.4159  1.0413
  162SAPE   H4X18218   7.177   2.587   7.030 -0.9563  1.9667 -1.8042
  162SAPE   H4Y18219   7.331   2.597   6.950 -0.4685  0.0493 -0.5681
  162SAPE   C3518220   7.299   2.424   7.089 -0.2600  0.3989  0.6566
  162SAPE   H5X18221   7.387   2.368   7.052 -1.1122 -1.2802  1.0606
  162SAPE   H5Y18222   7.220   2.345   7.094  1.0374 -1.6637 -4.6360
  162SAPE   C3618223   7.308   2.479   7.231  0.5817 -0.2286  0.3475
  162SAPE   H6X18224   7.386   2.554   7.254 -1.2452  1.0699  2.8294
  162SAPE   H6Y18225   7.318   2.392   7.299  2.0198 -1.2621 -1.1165
  162SAPE   C3718226   7.177   2.536   7.281  0.8306 -0.1461  0.0368
  162SAPE   H7X18227   7.093   2.464   7.277  0.7550 -0.0001 -2.1258
  162SAPE   H7Y18228   7.153   2.629   7.224  2.1234  1.1883  1.5598
  162SAPE   C3818229   7.193   2.599   7.421 -0.0806  0.8387 -1.0626
  162SAPE   H8X18230   7.109   2.669   7.443  0.0806  0.8982 -0.6247
  162SAPE   H8Y18231   7.283   2.664   7.425 -0.1182  0.9380 -1.7394
  162SAPE   C3918232   7.196   2.496   7.540 -0.2763 -0.0950  0.6737
  162SAPE   H9X18233   7.286   2.431   7.542  0.1097  0.4399  2.2142
  162SAPE   H9Y18234   7.105   2.434   7.528 -1.3844  1.1880  2.0712
  162SAPE  C31018235   7.212   2.568   7.666  0.2749  0.4074 -0.2252
  162SAPE  H10X18236   7.141   2.652   7.685 -2.2193 -1.7725  0.6967
  162SAPE  H10Y18237   7.317   2.602   7.680  0.6721 -1.1039  0.6171
  162SAPE  C31118238   7.178   2.482   7.788 -0.0714  0.3794 -0.4941
  162SAPE  H11X18239   7.254   2.400   7.784 -0.3640  0.0193  0.9147
  162SAPE  H11Y18240   7.085   2.422   7.783  0.6170 -0.8979  0.9987
  162SAPE  C31218241   7.179   2.562   7.919 -0.2192  0.1978 -0.8201
  162SAPE  H12X18242   7.124   2.655   7.893 -0.6064  1.0936  2.6895
  162SAPE  H12Y18243   7.284   2.582   7.950 -0.7579 -0.5028  1.7109
  162SAPE  C31318244   7.105   2.494   8.029  0.7630 -0.8680 -0.0055
  162SAPE  H13X18245   7.131   2.387   8.038 -0.9751 -1.1557  2.6620
  162SAPE  H13Y18246   6.995   2.500   8.014  0.4942  0.1923  2.0112
  162SAPE  C31418247   7.127   2.573   8.160 -0.3670  0.5270  0.7342
  162SAPE  H14X18248   7.135   2.683   8.144  0.6285  0.5822  1.5079
  162SAPE  H14Y18249   7.227   2.543   8.197 -1.2754  0.7516  3.5871
  162SAPE  C31518250   7.025   2.542   8.270  0.1087  0.0864 -0.5516
  162SAPE  H15X18251   7.022   2.432   8.286  3.6407 -0.2379 -1.3383
  162SAPE  H15Y18252   6.924   2.569   8.233 -0.1568 -1.6124 -1.1403
  162SAPE  C31618253   7.043   2.590   8.414 -0.3240  0.2375  0.0143
  162SAPE  H16X18254   7.013   2.697   8.418 -1.2660 -0.0735  1.9042
  162SAPE  H16Y18255   7.151   2.594   8.442  0.4515  1.1831 -2.7216
  162SAPE  C31718256   6.960   2.505   8.517 -0.4190  0.3264 -0.9028
  162SAPE  H17X18257   6.969   2.552   8.618  0.0952 -0.1599 -0.7225
  162SAPE  H17Y18258   6.999   2.403   8.535  1.1040  1.0815  0.3665
  162SAPE  C31818259   6.805   2.498   8.482 -0.1003 -0.0503  0.3791
  162SAPE  H18X18260   6.775   2.603   8.459 -0.2624  0.1970  1.6488
  162SAPE  H18Y18261   6.746   2.460   8.567  0.6232 -4.0958 -0.7472
  162SAPE  H18Z18262   6.784   2.437   8.392  1.6902  1.4969 -1.1797
  163SAPE     N18263   6.534   0.859   6.528  0.0426 -1.0560  0.3986
  163SAPE   HN118264   6.587   0.777   6.491  0.3718 -1.0761  0.9058
  163SAPE   HN218265   6.438   0.821   6.515  0.1258 -0.7879 -1.2615
  163SAPE   HN318266   6.550   0.931   6.455 -2.8413 -0.2970  0.4082
  163SAPE   C1218267   6.566   0.911   6.665  0.1853 -0.1726 -0.1347
  163SAPE  H12A18268   6.672   0.892   6.692 -0.1589 -3.3064 -0.5788
  163SAPE  H12B18269   6.504   0.851   6.735  1.6372 -0.3274  1.0886
  163SAPE   C1118270   6.525   1.055   6.678 -0.8534 -0.8050  0.2756
  163SAPE  H11A18271   6.541   1.075   6.786  2.4016 -2.1235  0.1542
  163SAPE  H11B18272   6.416   1.071   6.662 -0.6567 -0.5924 -0.9938
  163SAPE     P18273   6.589   1.303   6.607 -0.0534  0.3257  0.1174
  163SAPE   O1318274   6.723   1.365   6.596 -0.2688 -0.1971  0.3557
  163SAPE   O1418275   6.484   1.350   6.515  0.3953  0.0256  0.2959
  163SAPE   O1218276   6.604   1.147   6.599 -0.2463 -0.2078 -0.3040
  163SAPE   O1118277   6.538   1.331   6.756  0.0145  0.3026  0.5278
  163SAPE    C118278   6.645   1.339   6.856  0.1819  0.3307 -0.2074
  163SAPE    HA18279   6.709   1.248   6.853  0.3466  0.2936  2.2036
  163SAPE    HB18280   6.698   1.435   6.838  0.4094  0.5741  1.5650
  163SAPE    C218281   6.592   1.333   6.995  0.1026 -0.7426 -0.1655
  163SAPE    HS18282   6.533   1.239   6.995  1.3281 -1.5564 -1.1632
  163SAPE   O2118283   6.516   1.458   7.020 -0.0233  0.8557 -0.6011
  163SAPE   C2118284   6.397   1.447   7.086  0.1048  0.5216 -0.2210
  163SAPE   O2218285   6.351   1.335   7.115  0.6529  0.6370  0.0964
  163SAPE   C2218286   6.321   1.579   7.105 -0.2682  0.6340 -0.1178
  163SAPE   H2R18287   6.390   1.666   7.112 -1.3308  1.5852 -1.0621
  163SAPE   H2S18288   6.260   1.598   7.014 -1.6275 -0.9811  0.3834
  163SAPE    C318289   6.704   1.323   7.107  0.3231 -0.5813 -0.3369
  163SAPE    HX18290   6.760   1.419   7.101  0.0611 -0.4400 -0.5107
  163SAPE    HY18291   6.779   1.245   7.079  1.5737  0.2564  0.5435
  163SAPE   O3118292   6.649   1.309   7.238 -0.0131 -0.1381 -0.3033
  163SAPE   C3118293   6.589   1.190   7.261 -1.2496  0.1264  0.6385
  163SAPE   O3218294   6.612   1.098   7.186 -0.8505  0.2199  0.5115
  163SAPE   C3218295   6.502   1.184   7.392 -0.0976 -0.6699  0.5242
  163SAPE   H2X18296   6.428   1.103   7.377  0.5696 -1.0579 -0.8619
  163SAPE   H2Y18297   6.449   1.281   7.398 -0.1627 -0.5412 -1.4758
  163SAPE   C2318298   6.218   1.569   7.219  0.5578 -0.1825 -0.1196
  163SAPE   H3R18299   6.267   1.548   7.316  0.9949  0.7903 -0.1167
  163SAPE   H3S18300   6.142   1.490   7.202  0.4481 -1.1336  3.8047
  163SAPE   C2418301   6.147   1.703   7.249 -0.2570 -0.3714 -0.2023
  163SAPE   H4R18302   6.112   1.743   7.151 -0.8940  4.3203  1.6581
  163SAPE   H4S18303   6.214   1.787   7.276  0.2400 -0.6200 -0.6398
  163SAPE   C2518304   6.026   1.687   7.348 -0.2139 -0.6181 -0.9001
  163SAPE   H5R18305   5.942   1.631   7.303 -0.0718  0.1383 -2.1720
  163SAPE   C2618306   6.038   1.709   7.478  0.4781 -0.5952  0.5188
  163SAPE   H6R18307   5.950   1.700   7.543  0.4256  2.6374  1.0297
  163SAPE   C2718308   6.155   1.762   7.562  0.1424  0.3130  0.2892
  163SAPE   H7R18309   6.223   1.816   7.494 -0.9048 -1.3882 -2.2738
  163SAPE   H7S18310   6.207   1.675   7.608 -1.9071 -0.7818  0.6814
  163SAPE   C2818311   6.122   1.875   7.656 -0.1564  0.1363  0.5165
  163SAPE   H8R18312   6.058   1.955   7.617  0.1420 -0.0428 -0.3500
  163SAPE   C2918313   6.161   1.897   7.779 -0.0797 -0.1269 -0.1440
  163SAPE   H9R18314   6.120   1.985   7.831  1.1427  1.1989 -1.3393
  163SAPE  C21018315   6.256   1.819   7.866  0.6946  0.1624 -0.1668
  163SAPE  H10R18316   6.350   1.875   7.846 -0.9824  3.1373 -0.2760
  163SAPE  H10S18317   6.266   1.717   7.825 -0.1270 -0.4016  0.9662
  163SAPE  C21118318   6.215   1.830   8.016  0.3877 -0.5044  0.5196
  163SAPE  H11R18319   6.127   1.771   8.046 -1.8678  2.6267  0.4649
  163SAPE  C21218320   6.277   1.901   8.106 -0.3083  0.0633  0.0119
  163SAPE  H12R18321   6.224   1.909   8.202 -1.3417 -3.2744 -0.1632
  163SAPE  C21318322   6.394   1.996   8.102  0.8126  0.4938  0.4226
  163SAPE  H13R18323   6.478   1.948   8.046  2.2104  3.4441 -0.2650
  163SAPE  H13S18324   6.428   2.006   8.207  0.3044 -0.8883  0.7379
  163SAPE  C21418325   6.368   2.126   8.029 -0.0601  0.1406 -0.2974
  163SAPE  H14R18326   6.292   2.113   7.950 -1.4033  1.9509  0.6392
  163SAPE  C21518327   6.411   2.246   8.068 -0.8117 -0.1438  0.0364
  163SAPE  H15R18328   6.383   2.328   8.001  0.1694 -2.4391 -3.4379
  163SAPE  C21618329   6.508   2.285   8.176 -0.3246  0.0466 -0.8872
  163SAPE  H16R18330   6.513   2.218   8.265 -1.4644  0.6003 -0.3859
  163SAPE  H16S18331   6.475   2.382   8.218  0.6752  0.0214  0.0224
  163SAPE  C21718332   6.650   2.301   8.109  0.1777  0.8131 -0.2044
  163SAPE  H17R18333   6.716   2.347   8.185  2.2114  0.4307 -1.6564
  163SAPE  H17S18334   6.662   2.360   8.015  1.0607 -0.0424 -0.6476
  163SAPE  C21818335   6.726   2.170   8.081 -0.1431  0.5973  0.0931
  163SAPE  H18R18336   6.687   2.134   7.983 -0.6366  2.3046 -0.3747
  163SAPE  H18S18337   6.705   2.103   8.167  3.6922  0.6616  1.2464
  163SAPE  C21918338   6.881   2.178   8.078  0.0684  0.0766 -0.3737
  163SAPE  H19R18339   6.919   2.088   8.131 -0.6343  0.5731  1.0492
  163SAPE  H19S18340   6.907   2.270   8.136 -1.0623 -1.4388  2.7754
  163SAPE  C22018341   6.938   2.173   7.940  0.4080 -0.6293 -0.6577
  163SAPE  H20R18342   6.967   2.070   7.911  0.4672 -0.4982 -1.0846
  163SAPE  H20S18343   7.032   2.231   7.950  0.9750 -1.7048  0.4435
  163SAPE  H20T18344   6.875   2.215   7.859  0.3763 -2.4951 -1.6473
  163SAPE   C3318345   6.598   1.152   7.518  0.5107 -0.8448 -1.1775
  163SAPE   H3X18346   6.688   1.217   7.518 -0.7882  1.1229 -3.1291
  163SAPE   H3Y18347   6.649   1.057   7.491  1.7299 -0.3940 -0.5156
  163SAPE   C3418348   6.534   1.142   7.656  0.2356 -0.0331  0.5915
  163SAPE   H4X18349   6.453   1.067   7.666  0.7025 -0.5600  0.4642
  163SAPE   H4Y18350   6.484   1.239   7.679 -1.0425  0.0637 -2.2193
  163SAPE   C3518351   6.636   1.109   7.763  0.2919 -0.2215 -0.2080
  163SAPE   H5X18352   6.715   1.186   7.752 -0.3057  0.4100 -0.1541
  163SAPE   H5Y18353   6.676   1.008   7.741  0.2049  0.2107 -2.5547
  163SAPE   C3618354   6.569   1.115   7.904 -0.0983  0.3608 -0.0482
  163SAPE   H6X18355   6.493   1.035   7.916  0.0746  0.5120  2.6066
  163SAPE   H6Y18356   6.512   1.210   7.910 -1.6747 -0.6127  1.3160
  163SAPE   C3718357   6.664   1.106   8.025 -0.3653  0.5212  1.0138
  163SAPE   H7X18358   6.742   1.185   8.014 -0.8783  0.8803 -0.2875
  163SAPE   H7Y18359   6.715   1.007   8.023  0.2089  0.7875  1.8416
  163SAPE   C3818360   6.603   1.124   8.160 -0.0166 -0.2283 -0.5399
  163SAPE   H8X18361   6.550   1.028   8.182 -0.4487 -0.2128 -1.4741
  163SAPE   H8Y18362   6.548   1.220   8.162  2.3738  1.2179  0.0225
  163SAPE   C3918363   6.706   1.132   8.273  0.5089  0.0707  0.1326
  163SAPE   H9X18364   6.770   1.222   8.258  0.5369 -0.0888 -0.7859
  163SAPE   H9Y18365   6.769   1.041   8.267  0.5957  0.0503  1.2545
  163SAPE  C31018366   6.644   1.138   8.416  0.3757 -0.4728  0.7154
  163SAPE  H10X18367   6.612   1.243   8.437  2.4712  0.8572 -2.0371
  163SAPE  H10Y18368   6.730   1.119   8.484 -0.1752 -0.5854  1.3794
  163SAPE  C31118369   6.537   1.038   8.460 -0.0100  0.5990  0.3593
  163SAPE  H11X18370   6.566   0.933   8.438  0.6682  0.0383  3.3952
  163SAPE  H11Y18371   6.438   1.064   8.418 -1.1909 -0.1097  2.5703
  163SAPE  C31218372   6.502   1.040   8.610  0.4220  0.0758 -0.3201
  163SAPE  H12X18373   6.484   1.143   8.647  1.3769  0.3547 -0.6086
  163SAPE  H12Y18374   6.588   1.016   8.675  2.1325  3.3655 -1.1449
  163SAPE  C31318375   6.382   0.956   8.651 -0.7411 -0.1945  0.2790
  163SAPE  H13X18376   6.326   0.946   8.556 -0.4037  0.7114 -0.0245
  163SAPE  H13Y18377   6.312   1.013   8.716 -0.3386 -0.3428  0.8500
  163SAPE  C31418378   6.418   0.821   8.713  0.7055 -0.0169  0.1745
  163SAPE  H14X18379   6.476   0.843   8.805 -1.5862  0.9337  1.4686
  163SAPE  H14Y18380   6.482   0.762   8.643  0.1110 -0.9682  0.4119
  163SAPE  C31518381   6.299   0.728   8.741 -0.5501  0.4129 -0.5230
  163SAPE  H15X18382   6.336   0.638   8.796  2.4854  1.7252 -0.2084
  163SAPE  H15Y18383   6.258   0.702   8.641  0.2347 -0.1775 -0.7012
  163SAPE  C31618384   6.185   0.792   8.821 -0.0957  0.2682  0.0523
  163SAPE  H16X18385   6.109   0.716   8.849 -0.6251  0.8018  0.0756
  163SAPE  H16Y18386   6.128   0.859   8.754 -1.8498 -1.6913 -0.4990
  163SAPE  C31718387   6.226   0.849   8.956  0.3611 -0.7342 -0.2948
  163SAPE  H17X18388   6.146   0.907   9.007  2.1759  0.6615  1.1337
  163SAPE  H17Y18389   6.299   0.931   8.941 -0.6813  0.0423 -1.2755
  163SAPE  C31818390   6.280   0.738   9.046  0.4093  0.6129  0.4824
  163SAPE  H18X18391   6.361   0.676   9.001 -1.3520 -2.6817  1.4997
  163SAPE  H18Y18392   6.216   0.654   9.080 -0.4048  0.3763 -1.5132
  163SAPE  H18Z18393   6.307   0.777   9.146 -2.0843 -0.6878  1.7612
  164SAPE     N18394   2.204   5.162   5.650 -0.0042  0.1617  0.5705
  164SAPE   HN118395   2.231   5.204   5.558  1.3243 -1.7023  0.0429
  164SAPE   HN218396   2.226   5.061   5.642  1.9967  0.3931  2.3148
  164SAPE   HN318397   2.102   5.171   5.662 -0.2787  1.8091 -2.0190
  164SAPE   C1218398   2.280   5.220   5.772  0.6539  0.8826  0.6082
  164SAPE  H12A18399   2.342   5.307   5.741  2.5695  0.0515  1.8750
  164SAPE  H12B18400   2.353   5.143   5.806  0.3278 -0.5807 -1.7969
  164SAPE   C1118401   2.187   5.273   5.882 -0.4001  0.8558  0.2107
  164SAPE  H11A18402   2.131   5.184   5.918  1.4299 -0.8671 -0.9280
  164SAPE  H11B18403   2.117   5.348   5.842 -1.0128  0.5718  0.7406
  164SAPE     P18404   2.225   5.428   6.093 -0.1259  0.0587  0.2851
  164SAPE   O1318405   2.263   5.557   6.033 -0.5595 -0.4432  0.4922
  164SAPE   O1418406   2.078   5.405   6.123  0.2801 -0.4952  0.1960
  164SAPE   O1218407   2.270   5.325   5.988 -0.4294 -0.0868 -0.3166
  164SAPE   O1118408   2.303   5.406   6.227 -0.5131 -0.2064  0.4700
  164SAPE    C118409   2.283   5.288   6.298  0.2801  0.0801  0.2745
  164SAPE    HA18410   2.248   5.205   6.232  1.3877  0.2956 -0.6061
  164SAPE    HB18411   2.381   5.256   6.337  0.5544  0.7100  0.1071
  164SAPE    C218412   2.194   5.322   6.426  0.7830  0.2731  0.3838
  164SAPE    HS18413   2.106   5.381   6.394  0.8131  1.1546  1.8355
  164SAPE   O2118414   2.269   5.404   6.517 -0.2431 -0.0520 -0.1647
  164SAPE   C2118415   2.192   5.478   6.601 -0.4014 -0.3644  0.1436
  164SAPE   O2218416   2.072   5.495   6.596 -0.6610  0.2230 -0.2665
  164SAPE   C2218417   2.285   5.527   6.716  0.1033 -0.2609 -0.7780
  164SAPE   H2R18418   2.298   5.439   6.783 -1.0540  1.0805  1.3218
  164SAPE   H2S18419   2.381   5.557   6.668 -0.2686 -2.5924 -3.2514
  164SAPE    C318420   2.139   5.194   6.494 -0.6258  0.3559  0.6349
  164SAPE    HX18421   2.080   5.131   6.424  1.2439 -1.8648  0.9483
  164SAPE    HY18422   2.064   5.227   6.569 -2.1094 -0.5834 -0.3953
  164SAPE   O3118423   2.246   5.107   6.551  0.3022 -0.6479  1.1503
  164SAPE   C3118424   2.261   5.111   6.680  0.4905  0.5200 -0.3116
  164SAPE   O3218425   2.205   5.179   6.763 -0.2816  0.7281 -0.2654
  164SAPE   C3218426   2.382   5.014   6.699  0.4959  0.9531 -0.4182
  164SAPE   H2X18427   2.450   5.043   6.617 -0.8142 -0.0556 -1.9103
  164SAPE   H2Y18428   2.356   4.907   6.688 -1.2839  1.3335 -0.2617
  164SAPE   C2318429   2.225   5.637   6.801  0.4550 -0.1195 -0.1635
  164SAPE   H3R18430   2.179   5.712   6.734 -2.1988 -1.5811 -0.1137
  164SAPE   H3S18431   2.314   5.683   6.849 -2.3054  2.6355  2.7722
  164SAPE   C2418432   2.118   5.600   6.902 -0.2742  0.6133  0.4903
  164SAPE   H4R18433   2.163   5.518   6.963 -2.3306 -1.3826 -0.5229
  164SAPE   H4S18434   2.023   5.569   6.854  0.8720  0.5964 -1.8991
  164SAPE   C2518435   2.098   5.722   6.988  0.7459  0.7094  0.4259
  164SAPE   H5R18436   2.091   5.817   6.934  0.1260 -0.0170 -0.8273
  164SAPE   C2618437   2.077   5.717   7.116 -0.3118 -1.0767 -0.2457
  164SAPE   H6R18438   2.059   5.810   7.171  2.5727  0.3131 -1.4326
  164SAPE   C2718439   2.073   5.595   7.199  0.2256  0.6568  0.1865
  164SAPE   H7R18440   2.178   5.559   7.206  0.1651  0.3426 -0.4622
  164SAPE   H7S18441   2.019   5.510   7.152  2.6028 -1.3687  0.8667
  164SAPE   C2818442   2.001   5.598   7.330 -0.7320 -0.0419 -0.9874
  164SAPE   H8R18443   1.891   5.596   7.332 -0.8640  2.2026  1.9384
  164SAPE   C2918444   2.061   5.605   7.454 -0.2228  0.4431 -0.4366
  164SAPE   H9R18445   1.990   5.607   7.538  0.1660  1.3565 -0.1155
  164SAPE  C21018446   2.208   5.606   7.496 -0.6799 -0.6643 -0.2638
  164SAPE  H10R18447   2.267   5.622   7.403 -0.9063  0.6803 -0.1975
  164SAPE  H10S18448   2.228   5.508   7.544 -1.8034 -0.7827 -0.0153
  164SAPE  C21118449   2.245   5.725   7.581  0.6161 -0.1602 -0.8818
  164SAPE  H11R18450   2.254   5.824   7.533 -1.3706  1.2821  1.4990
  164SAPE  C21218451   2.227   5.731   7.721 -0.5681 -0.5961  0.6548
  164SAPE  H12R18452   2.252   5.827   7.768 -2.3047  0.6640 -0.8503
  164SAPE  C21318453   2.198   5.613   7.797 -0.5202  0.7841  0.0738
  164SAPE  H13R18454   2.289   5.549   7.785 -0.4819  0.1678  2.9437
  164SAPE  H13S18455   2.109   5.562   7.754  1.1734 -0.8823 -1.6649
  164SAPE  C21418456   2.179   5.612   7.946 -0.4435 -0.4621  0.3347
  164SAPE  H14R18457   2.142   5.707   7.987 -0.0369 -0.5400  0.9019
  164SAPE  C21518458   2.206   5.509   8.032  0.6580 -0.0921  0.0970
  164SAPE  H15R18459   2.195   5.521   8.141 -0.4126 -1.7398  0.1946
  164SAPE  C21618460   2.251   5.372   7.993 -0.2991 -0.2075 -0.0576
  164SAPE  H16R18461   2.354   5.364   7.952  0.7856  3.9796  1.3622
  164SAPE  H16S18462   2.189   5.343   7.905  0.0408 -1.2272  0.0274
  164SAPE  C21718463   2.224   5.271   8.109 -0.3286 -0.1430 -0.4389
  164SAPE  H17R18464   2.249   5.171   8.067 -3.9496 -1.1837 -0.4336
  164SAPE  H17S18465   2.116   5.286   8.129  0.3755  1.8700  2.7033
  164SAPE  C21818466   2.300   5.296   8.235  0.5241  0.0503 -1.0896
  164SAPE  H18R18467   2.312   5.402   8.265  0.0598 -1.2167  4.9969
  164SAPE  H18S18468   2.398   5.245   8.229  0.0769 -0.9329 -0.3659
  164SAPE  C21918469   2.221   5.239   8.357  0.8272  0.2262  0.1271
  164SAPE  H19R18470   2.212   5.131   8.335 -1.3897  0.5869 -1.0315
  164SAPE  H19S18471   2.115   5.272   8.365  1.1524  0.8780  2.8810
  164SAPE  C22018472   2.274   5.259   8.500  0.1147  0.0888  0.0489
  164SAPE  H20R18473   2.280   5.368   8.523  1.4659  0.4046 -1.6146
  164SAPE  H20S18474   2.376   5.216   8.504  0.4349  0.5968 -1.5412
  164SAPE  H20T18475   2.216   5.209   8.580  2.1999 -0.5917  1.2042
  164SAPE   C3318476   2.460   5.046   6.833 -0.1129  0.5507 -0.2060
  164SAPE   H3X18477   2.483   5.155   6.827 -0.1100  0.4971 -1.3129
  164SAPE   H3Y18478   2.560   4.998   6.826  0.1945  1.2830 -1.0405
  164SAPE   C3418479   2.395   4.982   6.961 -1.0439 -0.4338 -0.3749
  164SAPE   H4X18480   2.399   4.872   6.945 -0.5613 -0.4154 -0.3698
  164SAPE   H4Y18481   2.290   5.018   6.969 -1.1403 -0.9032  0.5344
  164SAPE   C3518482   2.479   5.020   7.081 -0.4535  0.5253  0.2795
  164SAPE   H5X18483   2.466   5.131   7.084  2.8637  1.0824 -1.1390
  164SAPE   H5Y18484   2.584   4.992   7.057 -1.1375 -0.9329 -1.1595
  164SAPE   C3618485   2.451   4.939   7.209  0.2310 -0.4860  0.3351
  164SAPE   H6X18486   2.481   4.834   7.189  1.5676  0.0439 -0.6011
  164SAPE   H6Y18487   2.343   4.932   7.234  0.1925 -0.1586  0.2583
  164SAPE   C3718488   2.512   5.004   7.334 -0.5611  0.1781  0.3161
  164SAPE   H7X18489   2.461   5.102   7.346  1.9706  1.5752  0.3234
  164SAPE   H7Y18490   2.617   5.031   7.311  0.1184 -0.8117  2.0245
  164SAPE   C3818491   2.508   4.938   7.464 -0.4548  0.8852 -0.4809
  164SAPE   H8X18492   2.558   4.839   7.454 -0.0152  1.2530 -2.2992
  164SAPE   H8Y18493   2.401   4.919   7.488  0.0743 -2.1772 -0.0803
  164SAPE   C3918494   2.579   5.016   7.569  0.0715 -1.1911  0.4682
  164SAPE   H9X18495   2.526   5.113   7.577 -2.8254 -2.5925 -0.4540
  164SAPE   H9Y18496   2.683   5.046   7.545 -1.0472  0.2979 -3.1946
  164SAPE  C31018497   2.582   4.961   7.713  0.0336 -0.3305  0.3415
  164SAPE  H10X18498   2.644   4.868   7.714 -0.0091 -0.3666  1.3859
  164SAPE  H10Y18499   2.483   4.942   7.760  0.5358  1.2235  2.1661
  164SAPE  C31118500   2.644   5.063   7.816  0.1181  0.7598  0.3355
  164SAPE  H11X18501   2.587   5.158   7.812  0.8933  1.2320  0.4014
  164SAPE  H11Y18502   2.745   5.097   7.786  0.0022 -0.4320 -1.6169
  164SAPE  C31218503   2.669   5.004   7.959  0.0770  0.1908 -0.1829
  164SAPE  H12X18504   2.748   4.926   7.962 -2.6379 -2.8248 -1.2181
  164SAPE  H12Y18505   2.586   4.937   7.990  1.2866 -0.4192  1.9787
  164SAPE  C31318506   2.688   5.122   8.058  0.1199  0.1714  0.8716
  164SAPE  H13X18507   2.613   5.200   8.034 -0.2677 -0.3963  0.1923
  164SAPE  H13Y18508   2.793   5.156   8.045  0.9163 -1.9782  1.2905
  164SAPE  C31418509   2.675   5.084   8.207 -0.4398  0.3940  0.4656
  164SAPE  H14X18510   2.733   4.994   8.239 -0.1173  0.5866  0.4289
  164SAPE  H14Y18511   2.568   5.059   8.224 -0.5404  0.5003  0.0005
  164SAPE  C31518512   2.729   5.201   8.288  0.0758 -0.0336 -0.0790
  164SAPE  H15X18513   2.695   5.295   8.239 -0.4181 -0.1335  0.0717
  164SAPE  H15Y18514   2.839   5.203   8.275  0.3925 -4.2229  0.6549
  164SAPE  C31618515   2.699   5.199   8.442 -0.5147  0.0576  0.5431
  164SAPE  H16X18516   2.704   5.089   8.461 -0.6674 -0.3099 -1.3210
  164SAPE  H16Y18517   2.595   5.225   8.471 -0.5898  1.4176 -0.8077
  164SAPE  C31718518   2.799   5.268   8.531  0.4587 -0.1137  1.1873
  164SAPE  H17X18519   2.797   5.373   8.494 -0.0640 -0.6251 -0.2895
  164SAPE  H17Y18520   2.900   5.225   8.514 -0.4601 -1.6594 -0.8362
  164SAPE  C31818521   2.768   5.253   8.679 -0.4740  0.5539 -0.4703
  164SAPE  H18X18522   2.774   5.147   8.711 -2.3213  0.4920 -0.2201
  164SAPE  H18Y18523   2.661   5.282   8.687  0.3250  3.9400 -0.3215
  164SAPE  H18Z18524   2.838   5.325   8.727  0.7277 -0.2778 -0.9369
  165SAPE     N18525   2.740   1.173   6.409  0.1424 -0.1051  0.4633
  165SAPE   HN118526   2.740   1.072   6.435 -0.6178 -0.5271 -1.0439
  165SAPE   HN218527   2.660   1.193   6.345  0.0479  0.7016  0.8280
  165SAPE   HN318528   2.813   1.200   6.340 -1.1544  0.9848 -0.5530
  165SAPE   C1218529   2.725   1.267   6.520  0.5922  0.3325  0.3521
  165SAPE  H12A18530   2.719   1.369   6.475  1.4132  0.1436 -0.2091
  165SAPE  H12B18531   2.812   1.265   6.589  2.5010 -0.4138 -1.9121
  165SAPE   C1118532   2.596   1.230   6.593  0.1580  0.4551 -0.4971
  165SAPE  H11A18533   2.589   1.276   6.694 -2.5331 -1.0236  0.0597
  165SAPE  H11B18534   2.598   1.119   6.599 -2.1703  0.3865 -0.2360
  165SAPE     P18535   2.387   1.371   6.507  0.0214  0.1508  0.3039
  165SAPE   O1318536   2.456   1.477   6.441 -0.1465 -0.5899  0.2385
  165SAPE   O1418537   2.264   1.322   6.445  0.4428 -0.5871 -0.2240
  165SAPE   O1218538   2.483   1.247   6.506 -0.0733 -0.8553  0.0416
  165SAPE   O1118539   2.358   1.400   6.660  0.1145 -0.3101  0.4634
  165SAPE    C118540   2.319   1.531   6.700  0.8972  0.5328  0.2850
  165SAPE    HA18541   2.373   1.610   6.643  1.9627 -0.9072 -0.7713
  165SAPE    HB18542   2.210   1.545   6.682  0.8338  0.8163  0.8506
  165SAPE    C218543   2.338   1.560   6.854  0.2196  0.1465  0.2609
  165SAPE    HS18544   2.441   1.600   6.868  0.8305 -0.1541 -2.6904
  165SAPE   O2118545   2.326   1.440   6.934  0.1997  0.3838 -0.1817
  165SAPE   C2118546   2.435   1.362   6.933 -0.2781 -0.1360  0.0539
  165SAPE   O2218547   2.549   1.401   6.930 -0.6158 -0.4737 -0.2230
  165SAPE   C2218548   2.389   1.219   6.954 -0.2007 -0.4415 -0.3776
  165SAPE   H2R18549   2.280   1.223   6.977  0.3025 -1.0556  2.4787
  165SAPE   H2S18550   2.406   1.165   6.858  2.1253  1.7565 -1.3044
  165SAPE    C318551   2.236   1.672   6.904  0.0633  0.1528 -0.5100
  165SAPE    HX18552   2.131   1.645   6.877 -1.0131  1.0569  2.4139
  165SAPE    HY18553   2.263   1.761   6.844  1.6157  0.2752  0.3389
  165SAPE   O3118554   2.250   1.705   7.043 -0.0624 -0.4054 -0.0247
  165SAPE   C3118555   2.166   1.648   7.125 -0.8258  0.3879  0.0157
  165SAPE   O3218556   2.061   1.598   7.094 -0.1160  0.0461  0.3112
  165SAPE   C3218557   2.209   1.679   7.266 -0.2578 -0.3426 -0.0133
  165SAPE   H2X18558   2.144   1.761   7.305 -1.4992 -0.2634 -2.0987
  165SAPE   H2Y18559   2.315   1.713   7.262 -0.7258  1.3146  0.7421
  165SAPE   C2318560   2.464   1.132   7.064 -0.0454 -0.0379 -0.0396
  165SAPE   H3R18561   2.564   1.115   7.018 -0.4496  1.9040 -1.7908
  165SAPE   H3S18562   2.421   1.030   7.074  2.2232 -0.9395  1.3209
  165SAPE   C2418563   2.461   1.190   7.203  0.3693 -0.4058  0.1070
  165SAPE   H4R18564   2.507   1.291   7.200 -0.0878 -0.1942 -2.7748
  165SAPE   H4S18565   2.534   1.129   7.260  0.3794  0.2555  0.8173
  165SAPE   C2518566   2.325   1.185   7.266  0.5903 -0.3733 -0.5532
  165SAPE   H5R18567   2.244   1.241   7.215  0.2624  0.6819  1.0411
  165SAPE   C2618568   2.276   1.128   7.375  0.2680 -0.0306 -0.0614
  165SAPE   H6R18569   2.170   1.142   7.401  0.4242  1.0624  0.0429
  165SAPE   C2718570   2.352   1.039   7.458  0.1216 -0.4194 -0.5591
  165SAPE   H7R18571   2.434   0.986   7.406  2.2576  1.1059  1.0452
  165SAPE   H7S18572   2.281   0.966   7.504 -0.1477  0.6814  0.8489
  165SAPE   C2818573   2.427   1.122   7.564  0.1798 -0.6086 -0.5505
  165SAPE   H8R18574   2.497   1.193   7.520  0.2674 -0.9975 -1.0443
  165SAPE   C2918575   2.422   1.109   7.697  0.3259 -0.5339  0.6381
  165SAPE   H9R18576   2.473   1.186   7.757 -1.0125 -0.6677  2.0110
  165SAPE  C21018577   2.345   1.021   7.783  0.0909  0.7353 -0.5564
  165SAPE  H10R18578   2.256   0.981   7.730 -0.0807  0.6921 -0.2386
  165SAPE  H10S18579   2.308   1.080   7.869  0.0856  1.1156 -0.8192
  165SAPE  C21118580   2.429   0.901   7.820  0.2489 -0.6767  0.1837
  165SAPE  H11R18581   2.491   0.856   7.740  0.3691 -3.2691  1.6284
  165SAPE  C21218582   2.439   0.837   7.933 -0.7339  0.0607 -0.2952
  165SAPE  H12R18583   2.516   0.759   7.940 -0.5671  0.0106 -2.1516
  165SAPE  C21318584   2.364   0.873   8.066 -0.4139  0.4426  0.1471
  165SAPE  H13R18585   2.333   0.775   8.108  0.2293  0.7245  1.3135
  165SAPE  H13S18586   2.268   0.928   8.055  0.3028  1.8202  0.5912
  165SAPE  C21418587   2.444   0.940   8.173 -0.1886 -0.3810  0.0928
  165SAPE  H14R18588   2.506   1.027   8.148  0.6322 -0.3497  2.0610
  165SAPE  C21518589   2.452   0.906   8.303  0.3363  0.6999  0.4465
  165SAPE  H15R18590   2.514   0.967   8.370  0.9610 -1.0795  1.5589
  165SAPE  C21618591   2.375   0.792   8.372 -0.0482  0.7980 -0.4009
  165SAPE  H16R18592   2.445   0.721   8.422  0.6057  1.6226 -0.1331
  165SAPE  H16S18593   2.303   0.732   8.312  0.4757  0.5931 -0.8310
  165SAPE  C21718594   2.296   0.832   8.504 -0.1916 -0.0074 -0.6525
  165SAPE  H17R18595   2.220   0.908   8.476 -0.3086  0.2396  0.2956
  165SAPE  H17S18596   2.372   0.870   8.576 -0.1902 -0.0648 -0.6252
  165SAPE  C21818597   2.209   0.728   8.575 -0.5292 -0.4100 -0.1554
  165SAPE  H18R18598   2.115   0.702   8.521 -0.6201 -1.8867  0.6702
  165SAPE  H18S18599   2.174   0.762   8.675 -0.9329  0.8771 -0.7133
  165SAPE  C21918600   2.283   0.600   8.600  0.0543 -0.3105 -0.2914
  165SAPE  H19R18601   2.382   0.622   8.644 -0.0191 -1.6585  0.6135
  165SAPE  H19S18602   2.298   0.549   8.502  0.1582 -0.1310 -0.3700
  165SAPE  C22018603   2.205   0.510   8.697 -0.4041  0.4373 -0.2698
  165SAPE  H20R18604   2.231   0.401   8.693 -0.6220  0.2386  2.3324
  165SAPE  H20S18605   2.100   0.516   8.663  0.0481 -0.1225 -1.8738
  165SAPE  H20T18606   2.213   0.544   8.802 -0.7360  0.3533 -0.2182
  165SAPE   C3318607   2.201   1.557   7.357  0.0807 -0.0020 -0.3395
  165SAPE   H3X18608   2.249   1.464   7.319  0.2675 -0.3650  0.7416
  165SAPE   H3Y18609   2.094   1.526   7.365 -0.1173  0.4321 -1.2450
  165SAPE   C3418610   2.248   1.570   7.496 -0.4870  0.3564 -0.1171
  165SAPE   H4X18611   2.228   1.674   7.529  0.9203 -0.5804  4.2694
  165SAPE   H4Y18612   2.359   1.565   7.504 -0.4863 -1.2773 -0.6909
  165SAPE   C3518613   2.187   1.477   7.599 -0.7203  0.7434 -0.2200
  165SAPE   H5X18614   2.174   1.375   7.557  0.1249  0.9102 -0.9181
  165SAPE   H5Y18615   2.083   1.510   7.619 -1.0558 -1.5143  2.3984
  165SAPE   C3618616   2.257   1.489   7.737  0.4365  0.0712 -0.1226
  165SAPE   H6X18617   2.277   1.597   7.756  1.3508 -0.1571  0.2629
  165SAPE   H6Y18618   2.356   1.440   7.734  1.2558  1.6949 -0.8427
  165SAPE   C3718619   2.189   1.436   7.864 -0.6565 -1.2038 -0.0514
  165SAPE   H7X18620   2.171   1.328   7.842  0.4079 -1.6467  1.0711
  165SAPE   H7Y18621   2.088   1.479   7.884 -0.1172  1.3996 -2.4226
  165SAPE   C3818622   2.268   1.455   7.993  0.0239  0.4066 -0.2675
  165SAPE   H8X18623   2.279   1.565   8.005 -1.2579  0.4221  1.1106
  165SAPE   H8Y18624   2.363   1.398   7.987  0.3808  0.9880 -0.2121
  165SAPE   C3918625   2.194   1.429   8.121  0.0240 -1.0697 -0.6235
  165SAPE   H9X18626   2.116   1.506   8.103  2.4960  1.5072 -1.0901
  165SAPE   H9Y18627   2.253   1.462   8.210 -1.5635  0.8920 -0.2154
  165SAPE  C31018628   2.149   1.282   8.148  0.4352 -0.0332  0.0617
  165SAPE  H10X18629   2.246   1.229   8.139  1.2956  1.5406 -0.1977
  165SAPE  H10Y18630   2.083   1.240   8.069 -0.4792 -2.7581  2.1220
  165SAPE  C31118631   2.076   1.280   8.282  0.5666 -0.1249  0.1079
  165SAPE  H11X18632   1.991   1.350   8.267  0.6091  0.0292  0.5700
  165SAPE  H11Y18633   2.154   1.299   8.359  0.6085 -1.6090  0.4696
  165SAPE  C31218634   2.028   1.129   8.303  0.0677 -0.5516 -0.5784
  165SAPE  H12X18635   2.114   1.060   8.320  0.5259  0.5428  1.9765
  165SAPE  H12Y18636   1.964   1.096   8.219  0.9570  2.6159 -2.6808
  165SAPE  C31318637   1.934   1.126   8.422 -0.5730 -0.2213 -0.4890
  165SAPE  H13X18638   1.843   1.184   8.396 -0.9275 -1.1845 -1.4623
  165SAPE  H13Y18639   1.979   1.182   8.506 -1.0770 -0.9226  0.2688
  165SAPE  C31418640   1.895   0.983   8.481 -0.6231  0.0002  0.9588
  165SAPE  H14X18641   1.986   0.934   8.521 -0.4283  1.1386  1.9802
  165SAPE  H14Y18642   1.870   0.924   8.391  2.9783 -0.3805  0.0715
  165SAPE  C31518643   1.780   0.982   8.583  0.8204 -0.9796 -0.1507
  165SAPE  H15X18644   1.755   0.878   8.612  0.4589 -0.5398  1.1924
  165SAPE  H15Y18645   1.697   1.031   8.529  0.3504 -2.1004 -0.4741
  165SAPE  C31618646   1.818   1.050   8.713  0.3030 -0.1490 -0.3296
  165SAPE  H16X18647   1.823   1.161   8.716 -1.1319 -0.0760  1.5511
  165SAPE  H16Y18648   1.914   1.000   8.737 -0.8326 -1.7963  1.0044
  165SAPE  C31718649   1.737   1.001   8.836 -0.3878 -0.3894  0.1439
  165SAPE  H17X18650   1.758   0.892   8.848  0.7072 -0.4345 -1.7565
  165SAPE  H17Y18651   1.630   1.010   8.809 -0.9257  0.4155  2.3556
  165SAPE  C31818652   1.748   1.089   8.958 -0.2356  0.2712 -0.8881
  165SAPE  H18X18653   1.674   1.078   9.039 -0.7260 -1.4382 -1.5156
  165SAPE  H18Y18654   1.735   1.194   8.925 -0.5811  0.3673 -0.4503
  165SAPE  H18Z18655   1.853   1.076   8.992 -0.9253 -3.6328  0.2199
  166SAPE     N18656   1.010   5.041   5.804 -0.6325 -0.6641  0.6933
  166SAPE   HN118657   1.028   4.940   5.823  0.0487 -0.3956  1.5164
  166SAPE   HN218658   0.965   5.080   5.889  0.9527 -0.6320  1.5596
  166SAPE   HN318659   0.947   5.047   5.721  0.2603 -0.1474  0.0312
  166SAPE   C1218660   1.143   5.113   5.765  0.3993  0.8140  0.4895
  166SAPE  H12A18661   1.145   5.109   5.654 -1.0736 -0.0269  0.4581
  166SAPE  H12B18662   1.221   5.054   5.817 -1.5178  1.3350  4.2731
  166SAPE   C1118663   1.136   5.253   5.816 -0.1967  0.2808  0.3032
  166SAPE  H11A18664   1.043   5.298   5.775  0.4574 -1.6500 -3.8306
  166SAPE  H11B18665   1.212   5.318   5.766 -0.8392  1.2441  0.5517
  166SAPE     P18666   1.269   5.312   6.031 -0.4667  0.1296  0.5210
  166SAPE   O1318667   1.379   5.211   6.015 -0.1736 -0.3745 -0.3832
  166SAPE   O1418668   1.297   5.445   5.985  0.2956  0.7117 -0.0732
  166SAPE   O1218669   1.136   5.260   5.957 -0.4261 -0.7776  0.9130
  166SAPE   O1118670   1.229   5.331   6.183 -0.3954  0.2428  0.6122
  166SAPE    C118671   1.141   5.253   6.253 -0.2182  0.7463  0.1009
  166SAPE    HA18672   1.037   5.289   6.238 -0.1108  0.9501 -0.1568
  166SAPE    HB18673   1.153   5.149   6.216 -0.1786  1.2441 -1.3370
  166SAPE    C218674   1.171   5.255   6.408 -0.2281 -0.0709 -0.4860
  166SAPE    HS18675   1.113   5.182   6.468 -1.1255 -2.6719 -4.1658
  166SAPE   O2118676   1.170   5.388   6.468 -0.3373  0.7585  0.4445
  166SAPE   C2118677   1.051   5.441   6.484  0.4123 -0.3364 -0.2757
  166SAPE   O2218678   0.947   5.401   6.437  0.4088 -0.6525 -0.7437
  166SAPE   C2218679   1.077   5.569   6.562 -0.4465 -0.4152 -0.5329
  166SAPE   H2R18680   1.160   5.547   6.633  0.1344 -1.7026 -1.5637
  166SAPE   H2S18681   1.098   5.643   6.482 -2.2389  2.0633  1.1377
  166SAPE    C318682   1.321   5.202   6.432  1.4627 -0.2548 -0.0741
  166SAPE    HX18683   1.386   5.263   6.365  1.9693 -0.6951  0.0128
  166SAPE    HY18684   1.326   5.101   6.387  2.0753 -0.7004  0.9624
  166SAPE   O3118685   1.370   5.200   6.566  0.2773 -0.0105  0.5808
  166SAPE   C3118686   1.339   5.094   6.646 -0.5059 -0.0963  0.4966
  166SAPE   O3218687   1.277   4.998   6.605  0.4455  0.4632 -0.5149
  166SAPE   C3218688   1.417   5.113   6.777 -0.6844  0.4354 -0.1825
  166SAPE   H2X18689   1.433   5.221   6.799  0.6056  0.4606 -1.1282
  166SAPE   H2Y18690   1.522   5.083   6.757 -0.4337  1.1384  0.0265
  166SAPE   C2318691   0.947   5.618   6.632 -0.4238  0.0554 -0.3512
  166SAPE   H3R18692   0.922   5.535   6.702  3.3656 -1.6340 -0.7887
  166SAPE   H3S18693   0.860   5.629   6.564 -0.9657  1.2724  0.4947
  166SAPE   C2418694   0.962   5.737   6.724  0.3393 -0.5902  0.1822
  166SAPE   H4R18695   1.018   5.816   6.669 -1.2653 -0.0026 -0.6805
  166SAPE   H4S18696   1.034   5.719   6.806  2.1540  0.5997 -1.0579
  166SAPE   C2518697   0.835   5.792   6.788  0.1372  0.4707 -0.0331
  166SAPE   H5R18698   0.756   5.831   6.723 -0.7452  0.1288  0.7964
  166SAPE   C2618699   0.806   5.806   6.918  0.0945  0.3371  0.3748
  166SAPE   H6R18700   0.703   5.839   6.941  0.8484  0.8042  3.6304
  166SAPE   C2718701   0.895   5.766   7.028 -0.8749 -0.1186 -0.4780
  166SAPE   H7R18702   0.976   5.839   7.049 -0.5902 -1.2087  2.6693
  166SAPE   H7S18703   0.948   5.670   7.008  0.0744 -0.5377  3.2963
  166SAPE   C2818704   0.834   5.751   7.163  0.1404 -0.5641 -0.4941
  166SAPE   H8R18705   0.769   5.662   7.169  1.0211 -1.2304 -0.5353
  166SAPE   C2918706   0.877   5.810   7.280  0.4086  0.2215 -0.3963
  166SAPE   H9R18707   0.834   5.770   7.373  2.4039  0.3646  0.6363
  166SAPE  C21018708   0.988   5.909   7.298  0.1379 -0.2886 -0.4992
  166SAPE  H10R18709   0.993   5.988   7.220  1.0424  0.8280  0.6645
  166SAPE  H10S18710   1.086   5.858   7.297  0.3543 -0.0361  1.9517
  166SAPE  C21118711   0.982   5.981   7.431 -0.0362 -0.2565  0.1558
  166SAPE  H11R18712   0.923   6.074   7.435 -0.2251 -0.3881  0.4365
  166SAPE  C21218713   1.037   5.943   7.552  0.4000 -0.7467 -0.0878
  166SAPE  H12R18714   1.028   6.001   7.645 -2.0642 -1.2687  0.0619
  166SAPE  C21318715   1.111   5.813   7.576  0.2030  0.4069  0.5022
  166SAPE  H13R18716   1.084   5.741   7.496  0.7819  1.3956 -0.6311
  166SAPE  H13S18717   1.068   5.770   7.669  0.7432  1.4093  1.2355
  166SAPE  C21418718   1.263   5.828   7.565  0.3125  0.5881  0.0372
  166SAPE  H14R18719   1.300   5.890   7.482  2.3698 -0.1751  0.3474
  166SAPE  C21518720   1.348   5.773   7.657  0.5574  0.0307  0.1371
  166SAPE  H15R18721   1.453   5.797   7.638  0.8277 -0.7233  0.5884
  166SAPE  C21618722   1.312   5.705   7.785 -0.1478 -0.0112 -0.2210
  166SAPE  H16R18723   1.204   5.680   7.791  0.2773 -1.7449  1.2955
  166SAPE  H16S18724   1.338   5.762   7.877  0.0376  0.8050 -0.7708
  166SAPE  C21718725   1.395   5.566   7.781 -0.0836 -0.4494 -0.3670
  166SAPE  H17R18726   1.500   5.600   7.769 -0.4909  1.2180  0.4461
  166SAPE  H17S18727   1.359   5.520   7.687 -0.1822 -0.5502 -0.2814
  166SAPE  C21818728   1.364   5.465   7.902 -0.0693  0.5770  0.3079
  166SAPE  H18R18729   1.412   5.366   7.883  0.1868  0.5648  1.0246
  166SAPE  H18S18730   1.254   5.450   7.899 -0.1204 -0.4723  3.8939
  166SAPE  C21918731   1.388   5.527   8.044 -0.2704  0.1932  0.1959
  166SAPE  H19R18732   1.355   5.450   8.117 -0.9525 -0.2822 -0.5904
  166SAPE  H19S18733   1.307   5.603   8.049  1.2448  2.0001 -1.3718
  166SAPE  C22018734   1.523   5.576   8.076 -0.2307 -0.6599 -0.3110
  166SAPE  H20R18735   1.539   5.611   8.180  1.6455  0.9884 -1.0817
  166SAPE  H20S18736   1.545   5.664   8.012  0.4866  0.0115  0.8184
  166SAPE  H20T18737   1.605   5.503   8.055  0.8816 -0.0094  1.5035
  166SAPE   C3318738   1.374   5.032   6.907 -0.6791  0.3252  0.0032
  166SAPE   H3X18739   1.361   4.923   6.889  0.1386  0.0213  1.1718
  166SAPE   H3Y18740   1.277   5.076   6.940 -1.6176 -1.8066  0.2425
  166SAPE   C3418741   1.481   5.052   7.018 -0.0749 -0.1252  0.1104
  166SAPE   H4X18742   1.518   5.156   7.015 -2.8342  0.9613  0.0878
  166SAPE   H4Y18743   1.568   4.989   6.993  0.1602  1.0884 -2.4531
  166SAPE   C3518744   1.449   5.025   7.162  0.3624 -1.2958  0.0841
  166SAPE   H5X18745   1.386   5.104   7.209  0.5257 -0.3677 -1.2131
  166SAPE   H5Y18746   1.541   5.044   7.221 -0.5223  0.3531  1.0177
  166SAPE   C3618747   1.384   4.888   7.193 -0.0088  0.0094 -0.2558
  166SAPE   H6X18748   1.458   4.807   7.174  0.5473 -0.2133  2.5131
  166SAPE   H6Y18749   1.297   4.866   7.127 -0.3467  0.7038 -0.0421
  166SAPE   C3718750   1.326   4.878   7.337  0.8812 -0.1120 -0.0724
  166SAPE   H7X18751   1.286   4.775   7.346  0.0881  0.1120 -0.9028
  166SAPE   H7Y18752   1.238   4.944   7.356  0.9729 -0.2491  0.8894
  166SAPE   C3818753   1.410   4.911   7.459 -0.2865  0.1164  0.0432
  166SAPE   H8X18754   1.438   5.018   7.462 -0.7518  0.3287 -1.8701
  166SAPE   H8Y18755   1.498   4.844   7.455 -1.1799 -1.4407  3.1878
  166SAPE   C3918756   1.325   4.892   7.588 -0.3373 -0.5606  0.2075
  166SAPE   H9X18757   1.298   4.786   7.602 -1.3734 -0.6702 -2.0685
  166SAPE   H9Y18758   1.225   4.940   7.576 -0.9088 -1.7639  0.0925
  166SAPE  C31018759   1.392   4.954   7.710  0.2589 -0.1101  0.0265
  166SAPE  H10X18760   1.428   5.057   7.692  1.3823 -0.7736 -1.7424
  166SAPE  H10Y18761   1.486   4.900   7.735  1.6595  1.8227 -0.7800
  166SAPE  C31118762   1.302   4.951   7.840 -0.8729  0.6992  0.4620
  166SAPE  H11X18763   1.300   4.845   7.872  2.0929  1.0007  2.0555
  166SAPE  H11Y18764   1.204   4.999   7.816 -1.5960 -0.9877 -0.0921
  166SAPE  C31218765   1.365   5.025   7.956 -0.3128 -0.0703  0.3591
  166SAPE  H12X18766   1.379   5.131   7.927  0.5776 -0.1839  0.3353
  166SAPE  H12Y18767   1.462   4.977   7.984 -0.0020  0.6608  0.5651
  166SAPE  C31318768   1.279   5.022   8.087 -0.5776 -0.1616 -0.2314
  166SAPE  H13X18769   1.263   4.915   8.111 -0.0245 -0.3052 -0.4979
  166SAPE  H13Y18770   1.179   5.065   8.063 -0.8531  0.4992  1.9207
  166SAPE  C31418771   1.357   5.094   8.202  0.2749  0.0613 -0.5576
  166SAPE  H14X18772   1.394   5.194   8.169  2.0176 -0.2582  0.3142
  166SAPE  H14Y18773   1.444   5.027   8.216 -0.4155 -1.1117 -1.6581
  166SAPE  C31518774   1.275   5.102   8.336 -0.4323  0.2675 -0.3873
  166SAPE  H15X18775   1.232   5.000   8.352 -0.7393  0.8221  3.2765
  166SAPE  H15Y18776   1.187   5.169   8.322  0.1906  1.5835  1.6326
  166SAPE  C31618777   1.358   5.152   8.457 -0.4618  0.7764 -0.3785
  166SAPE  H16X18778   1.371   5.259   8.429  0.1970  0.0162 -3.3923
  166SAPE  H16Y18779   1.455   5.099   8.459  0.3786  2.1711 -1.8603
  166SAPE  C31718780   1.290   5.144   8.597 -0.1206  0.6182 -0.2281
  166SAPE  H17X18781   1.359   5.159   8.684 -3.6536  0.4285  2.8539
  166SAPE  H17Y18782   1.236   5.049   8.615 -2.1293  1.8908  0.7576
  166SAPE  C31818783   1.196   5.265   8.619 -0.6641 -0.3926  0.4544
  166SAPE  H18X18784   1.239   5.357   8.574 -0.7154 -1.6562 -2.3701
  166SAPE  H18Y18785   1.174   5.294   8.724 -1.0867  1.3987 -0.0942
  166SAPE  H18Z18786   1.096   5.245   8.573 -0.0914 -0.8257 -0.6421
  167SAPE     N18787   3.745   4.614   6.088  0.4379 -0.0300  0.0074
  167SAPE   HN118788   3.664   4.608   6.152  1.5512 -0.1180  1.4597
  167SAPE   HN218789   3.806   4.692   6.122 -1.3143  0.4193  2.3268
  167SAPE   HN318790   3.701   4.653   6.002  1.0406  1.4056  0.3089
  167SAPE   C1218791   3.809   4.479   6.054 -0.6869  0.0557 -0.7752
  167SAPE  H12A18792   3.908   4.499   6.007  0.0849  1.1176  1.1855
  167SAPE  H12B18793   3.752   4.430   5.972 -2.2300 -0.1187  0.3511
  167SAPE   C1118794   3.810   4.378   6.173 -0.2660 -0.5696  0.7522
  167SAPE  H11A18795   3.885   4.425   6.241  1.5069  1.1481 -2.1620
  167SAPE  H11B18796   3.849   4.283   6.133 -2.3977 -0.9580 -0.5611
  167SAPE     P18797   3.575   4.289   6.171  0.0610  0.3598 -0.5121
  167SAPE   O1318798   3.521   4.359   6.057 -0.0987 -0.1146 -0.2580
  167SAPE   O1418799   3.630   4.150   6.159 -0.1750  0.3820  0.6554
  167SAPE   O1218800   3.688   4.370   6.237 -0.2886 -0.5148 -0.2821
  167SAPE   O1118801   3.461   4.284   6.285 -0.1469 -0.5407  0.2762
  167SAPE    C118802   3.488   4.335   6.419 -0.0956 -0.0807  0.0545
  167SAPE    HA18803   3.558   4.421   6.425 -1.4210  1.0081  0.2277
  167SAPE    HB18804   3.392   4.371   6.462 -0.0994 -1.2451  1.0596
  167SAPE    C218805   3.545   4.227   6.516  0.0425 -0.2172  0.9841
  167SAPE    HS18806   3.512   4.126   6.482 -1.5693  0.1061  1.4771
  167SAPE   O2118807   3.513   4.265   6.652 -0.1544  0.2265 -0.2851
  167SAPE   C2118808   3.469   4.165   6.737 -0.7734  0.0634  0.0533
  167SAPE   O2218809   3.451   4.053   6.694 -0.6236 -0.3322  0.2131
  167SAPE   C2218810   3.459   4.210   6.877  0.0522 -0.2434 -0.6192
  167SAPE   H2R18811   3.462   4.321   6.883 -1.5237 -0.2011  0.0471
  167SAPE   H2S18812   3.356   4.182   6.907  0.3032 -0.0419  0.4705
  167SAPE    C318813   3.703   4.222   6.507  0.3294 -0.2048 -0.9447
  167SAPE    HX18814   3.753   4.320   6.517  4.5129 -2.0262 -1.8126
  167SAPE    HY18815   3.726   4.170   6.411  0.1800  0.5098 -1.3727
  167SAPE   O3118816   3.758   4.149   6.622  0.0306  0.2522  0.0045
  167SAPE   C3118817   3.790   4.022   6.590 -0.0373 -0.0422 -0.3200
  167SAPE   O3218818   3.763   3.963   6.488 -0.3349 -0.3165  0.0431
  167SAPE   C3218819   3.860   3.957   6.709 -0.2417  0.4142 -0.7953
  167SAPE   H2X18820   3.779   3.964   6.785 -1.3935  2.1910 -2.1054
  167SAPE   H2Y18821   3.945   4.022   6.735 -0.2926 -0.5031  2.0103
  167SAPE   C2318822   3.559   4.137   6.974  0.6159 -0.0892  0.1898
  167SAPE   H3R18823   3.559   4.026   6.965 -0.2946 -0.1534  0.8948
  167SAPE   H3S18824   3.520   4.148   7.077  1.0885  0.7550  0.2832
  167SAPE   C2418825   3.696   4.201   6.976  0.5912 -0.3141  0.8768
  167SAPE   H4R18826   3.685   4.305   7.014 -0.0726 -0.3475  0.7774
  167SAPE   H4S18827   3.732   4.207   6.871 -4.4394 -0.7538 -1.1503
  167SAPE   C2518828   3.782   4.120   7.071 -0.4352  0.4242 -0.1533
  167SAPE   H5R18829   3.812   4.018   7.043  0.4245  0.1443  1.6005
  167SAPE   C2618830   3.816   4.156   7.199  0.3052  0.0960  0.0131
  167SAPE   H6R18831   3.874   4.080   7.255  1.2953 -0.4284 -1.6601
  167SAPE   C2718832   3.770   4.280   7.279  0.2492 -0.4232  0.0645
  167SAPE   H7R18833   3.721   4.244   7.371 -1.2810  1.6969  0.1518
  167SAPE   H7S18834   3.691   4.338   7.226  0.9182 -1.7575 -2.5662
  167SAPE   C2818835   3.877   4.377   7.318 -0.4179 -0.4701  0.2076
  167SAPE   H8R18836   3.929   4.436   7.241  1.1731 -0.3681  1.3055
  167SAPE   C2918837   3.916   4.418   7.447  1.0280  0.0909  0.6921
  167SAPE   H9R18838   4.006   4.481   7.455  1.7665 -0.7609 -0.4882
  167SAPE  C21018839   3.858   4.367   7.578 -0.3582 -0.5145  0.0285
  167SAPE  H10R18840   3.833   4.259   7.569  2.2745 -1.2543  0.7038
  167SAPE  H10S18841   3.764   4.422   7.601  0.1013 -0.4450  1.9009
  167SAPE  C21118842   3.949   4.374   7.698 -0.6816 -0.2129 -0.4122
  167SAPE  H11R18843   4.010   4.284   7.710 -1.9045 -1.1111 -0.7339
  167SAPE  C21218844   3.955   4.472   7.790 -0.3493 -0.4547 -0.1205
  167SAPE  H12R18845   4.021   4.464   7.877  0.5545  0.0900 -0.7436
  167SAPE  C21318846   3.864   4.592   7.794 -0.0798 -0.6256  0.2833
  167SAPE  H13R18847   3.756   4.578   7.771  0.2831  0.1976 -2.2979
  167SAPE  H13S18848   3.897   4.663   7.715  0.1147 -1.0620 -0.0344
  167SAPE  C21418849   3.875   4.674   7.921  0.4462 -0.4228  0.1125
  167SAPE  H14R18850   3.921   4.774   7.913 -0.4299 -0.1219 -1.6844
  167SAPE  C21518851   3.830   4.630   8.044  0.2070  0.4905 -0.1415
  167SAPE  H15R18852   3.835   4.694   8.133  0.7873  0.8414 -0.4174
  167SAPE  C21618853   3.759   4.501   8.070 -0.8694 -0.7932  0.4820
  167SAPE  H16R18854   3.780   4.466   8.173  0.0214  1.4807  1.1366
  167SAPE  H16S18855   3.787   4.426   7.994 -0.0906 -0.2270  0.1971
  167SAPE  C21718856   3.610   4.519   8.073 -0.4286 -0.3041  1.0677
  167SAPE  H17R18857   3.574   4.537   7.970 -2.6129 -0.0779  1.8100
  167SAPE  H17S18858   3.562   4.602   8.130 -0.5282  1.3185 -1.2590
  167SAPE  C21818859   3.538   4.395   8.119  0.4241 -0.1491 -0.5548
  167SAPE  H18R18860   3.428   4.411   8.111  0.2185 -0.9787  0.3533
  167SAPE  H18S18861   3.562   4.395   8.228 -1.0231  0.6743 -0.1922
  167SAPE  C21918862   3.564   4.277   8.025 -0.1771 -0.0343 -0.0898
  167SAPE  H19R18863   3.522   4.193   8.084  0.1046  0.0379  0.2155
  167SAPE  H19S18864   3.669   4.248   8.005 -0.1153 -1.1254  1.6230
  167SAPE  C22018865   3.480   4.274   7.896 -0.5363  0.1394  0.8391
  167SAPE  H20R18866   3.497   4.192   7.823 -0.6941 -1.2993  2.3856
  167SAPE  H20S18867   3.511   4.365   7.839 -0.3878  0.1505  0.9377
  167SAPE  H20T18868   3.372   4.283   7.920 -1.3584 -1.2651 -1.8955
  167SAPE   C3318869   3.919   3.818   6.687  0.0207  0.6729 -0.0509
  167SAPE   H3X18870   3.982   3.828   6.596 -0.7713  1.2962 -0.5503
  167SAPE   H3Y18871   3.846   3.738   6.663  1.2668 -0.3273 -0.5946
  167SAPE   C3418872   4.009   3.788   6.808 -0.2237 -0.2715  0.6308
  167SAPE   H4X18873   4.073   3.876   6.832 -0.6223  0.1839  0.0469
  167SAPE   H4Y18874   4.082   3.715   6.768 -0.1583  1.2770 -2.3228
  167SAPE   C3518875   3.938   3.745   6.938 -0.3254  0.2017  0.9805
  167SAPE   H5X18876   3.891   3.646   6.919  0.1980  0.2238 -0.5683
  167SAPE   H5Y18877   3.864   3.825   6.956  2.8063  3.2463  1.3815
  167SAPE   C3618878   4.023   3.746   7.064  0.8864 -0.3773 -0.4119
  167SAPE   H6X18879   4.090   3.835   7.070  1.2013 -0.5796 -0.8466
  167SAPE   H6Y18880   4.082   3.654   7.083  2.6724  1.0667  1.4827
  167SAPE   C3718881   3.931   3.759   7.188  0.1319 -0.2537 -0.0777
  167SAPE   H7X18882   3.886   3.660   7.208 -0.3060  0.0897  0.6812
  167SAPE   H7Y18883   3.844   3.827   7.175  0.7914  0.3168 -1.8552
  167SAPE   C3818884   4.005   3.811   7.320  0.0314  0.4014 -0.5440
  167SAPE   H8X18885   4.047   3.911   7.299 -0.6038  0.3751 -2.0052
  167SAPE   H8Y18886   4.093   3.748   7.346 -1.5815 -1.2059  1.4352
  167SAPE   C3918887   3.915   3.811   7.445  0.4975 -0.1548 -0.8573
  167SAPE   H9X18888   3.848   3.721   7.447 -0.4328  0.5272 -0.3882
  167SAPE   H9Y18889   3.859   3.907   7.444 -1.1426 -1.0313  0.5115
  167SAPE  C31018890   3.990   3.824   7.573  0.1976  0.3540  0.2601
  167SAPE  H10X18891   4.080   3.761   7.553 -0.9412 -1.8192  1.5884
  167SAPE  H10Y18892   3.930   3.780   7.656  2.2876  0.7035  2.0590
  167SAPE  C31118893   4.015   3.968   7.623 -0.5039  0.4985 -0.2786
  167SAPE  H11X18894   3.924   4.008   7.671 -0.4159 -0.5529  0.8288
  167SAPE  H11Y18895   4.057   4.040   7.550 -0.9619  0.3502 -0.6974
  167SAPE  C31218896   4.121   3.969   7.739  0.4506 -0.0998  0.2262
  167SAPE  H12X18897   4.136   4.076   7.762 -1.9697  1.0337 -2.7100
  167SAPE  H12Y18898   4.216   3.920   7.709  1.3452 -0.7842  3.7815
  167SAPE  C31318899   4.076   3.890   7.870  0.3273 -0.6522  0.4504
  167SAPE  H13X18900   4.161   3.892   7.942  0.0344  0.9668  0.7850
  167SAPE  H13Y18901   4.064   3.788   7.829 -0.4909 -0.5089  0.3204
  167SAPE  C31418902   3.952   3.952   7.937  0.1377 -0.3518 -0.4218
  167SAPE  H14X18903   3.866   3.884   7.919  1.6259 -1.2958 -5.6069
  167SAPE  H14Y18904   3.913   4.040   7.882  2.0899  0.5434 -0.4699
  167SAPE  C31518905   3.980   4.008   8.078 -1.1034 -0.7934  0.3782
  167SAPE  H15X18906   4.054   3.943   8.130  0.0982 -0.9294 -1.4027
  167SAPE  H15Y18907   3.886   4.000   8.136 -0.5266 -1.9178  1.1931
  167SAPE  C31618908   4.036   4.148   8.084 -0.2565 -0.1397  0.4210
  167SAPE  H16X18909   3.952   4.207   8.041 -1.5870  1.1581  4.3802
  167SAPE  H16Y18910   4.132   4.151   8.029 -0.3553 -0.7034  0.2078
  167SAPE  C31718911   4.069   4.190   8.225 -0.0502  0.4737 -0.1841
  167SAPE  H17X18912   4.132   4.113   8.273 -2.7018 -1.6648  0.0508
  167SAPE  H17Y18913   3.972   4.191   8.279  0.1930  0.0074  0.2706
  167SAPE  C31818914   4.125   4.340   8.232  0.2832 -0.2606 -0.8603
  167SAPE  H18X18915   4.215   4.354   8.169  1.1944 -0.3434  0.3771
  167SAPE  H18Y18916   4.130   4.368   8.340  1.9602  0.4164 -1.0922
  167SAPE  H18Z18917   4.043   4.406   8.195  1.3478  0.5119 -1.9132
  168SAPE     N18918   3.791   0.132   6.451 -0.0443 -0.3243  0.1436
  168SAPE   HN118919   3.858   0.110   6.375 -0.8492 -2.5575  0.0143
  168SAPE   HN218920   3.696   0.099   6.422 -0.6629  1.3884  0.0511
  168SAPE   HN318921   3.775   0.235   6.463 -0.7644 -0.4791  0.5781
  168SAPE   C1218922   3.830   0.094   6.597 -0.8303 -0.8897  0.3153
  168SAPE  H12A18923   3.870  -0.009   6.596  1.9740  0.1167 -0.0357
  168SAPE  H12B18924   3.735   0.109   6.651 -0.3866  0.6098  0.7291
  168SAPE   C1118925   3.932   0.182   6.666 -0.1770  0.4432 -0.1295
  168SAPE  H11A18926   3.944   0.135   6.766 -1.4798  1.7837  0.7073
  168SAPE  H11B18927   3.890   0.285   6.675 -0.0345  0.5220 -0.3535
  168SAPE     P18928   4.186   0.118   6.611  0.2363  0.1071  0.0612
  168SAPE   O1318929   4.191   0.004   6.513 -0.2355  0.4079 -0.0753
  168SAPE   O1418930   4.297   0.211   6.617 -0.0736 -0.1709 -0.4136
  168SAPE   O1218931   4.052   0.192   6.588  0.5794 -0.5454  0.2884
  168SAPE   O1118932   4.164   0.060   6.755  0.1541  0.2207  0.7623
  168SAPE    C118933   4.237   0.113   6.867  0.9818  0.7852  0.1787
  168SAPE    HA18934   4.236   0.224   6.869  0.9133  0.7832  0.3073
  168SAPE    HB18935   4.180   0.086   6.959 -0.4670  1.6000 -0.4601
  168SAPE    C218936   4.378   0.046   6.887  0.3428  0.3646  0.9202
  168SAPE    HS18937   4.418   0.043   6.783  0.2852 -0.5547  0.9128
  168SAPE   O2118938   4.349  -0.092   6.928 -0.0032  0.2959 -0.1493
  168SAPE   C2118939   4.464  -0.168   6.929  0.7601 -0.8823 -0.0263
  168SAPE   O2218940   4.565  -0.140   6.872 -0.3576 -0.9280 -0.0726
  168SAPE   C2218941   4.441  -0.306   6.994  0.5192  0.1481  0.6389
  168SAPE   H2R18942   4.355  -0.343   6.936 -0.8708  2.7603  0.8619
  168SAPE   H2S18943   4.537  -0.361   6.980 -0.8496 -1.7719 -1.9988
  168SAPE    C318944   4.469   0.128   6.981  0.0699  0.2296 -0.3132
  168SAPE    HX18945   4.470   0.229   6.934  2.3134  0.6547  0.5093
  168SAPE    HY18946   4.572   0.087   6.981 -0.5982 -1.7583  2.9079
  168SAPE   O3118947   4.420   0.125   7.112  0.8739 -0.5029  0.3065
  168SAPE   C3118948   4.353   0.233   7.162 -0.2144  0.4949 -1.0687
  168SAPE   O3218949   4.313   0.325   7.108 -0.1842 -0.1202  1.2437
  168SAPE   C3218950   4.325   0.199   7.316  0.1646  0.2144  0.1413
  168SAPE   H2X18951   4.216   0.215   7.325  0.1978  0.9315 -0.6377
  168SAPE   H2Y18952   4.393   0.265   7.374 -1.8763  1.2632  1.4146
  168SAPE   C2318953   4.398  -0.297   7.139  0.3466 -0.0129 -0.6589
  168SAPE   H3R18954   4.303  -0.240   7.151  0.6061  0.0830  1.2165
  168SAPE   H3S18955   4.482  -0.247   7.191  3.1419 -0.7314 -4.1318
  168SAPE   C2418956   4.362  -0.432   7.212 -0.4131  0.5904  0.1968
  168SAPE   H4R18957   4.283  -0.477   7.148  0.2784 -1.2316  0.5843
  168SAPE   H4S18958   4.315  -0.409   7.310  1.2718 -1.9423  1.7201
  168SAPE   C2518959   4.480  -0.519   7.221 -0.1387  0.8767 -0.0465
  168SAPE   H5R18960   4.525  -0.548   7.125  1.5236  2.3253  0.2429
  168SAPE   C2618961   4.550  -0.554   7.336  0.4933  0.2586  0.3978
  168SAPE   H6R18962   4.632  -0.625   7.316  1.7985  1.6703  0.5731
  168SAPE   C2718963   4.526  -0.514   7.476 -0.1427 -0.2214  0.7080
  168SAPE   H7R18964   4.426  -0.468   7.493 -1.6666 -2.5326 -1.4065
  168SAPE   H7S18965   4.602  -0.437   7.500  0.0610 -0.2903  0.2917
  168SAPE   C2818966   4.544  -0.622   7.579  0.4351 -0.4284  0.9207
  168SAPE   H8R18967   4.580  -0.712   7.527  0.3548  0.6977 -1.1811
  168SAPE   C2918968   4.506  -0.636   7.707 -0.7172 -0.3533 -0.0142
  168SAPE   H9R18969   4.528  -0.733   7.755 -0.4868 -0.5484 -0.5088
  168SAPE  C21018970   4.457  -0.519   7.788  0.1665  0.2062  0.5095
  168SAPE  H10R18971   4.415  -0.438   7.725  2.2809  0.2950 -0.8957
  168SAPE  H10S18972   4.543  -0.477   7.845 -1.4374  3.2441  0.8393
  168SAPE  C21118973   4.343  -0.571   7.874 -0.4793 -0.1437 -0.0303
  168SAPE  H11R18974   4.253  -0.599   7.817  1.0364 -2.2431 -1.5027
  168SAPE  C21218975   4.340  -0.589   8.008 -0.3837  0.4179 -0.2284
  168SAPE  H12R18976   4.248  -0.630   8.052  0.2346 -0.6253  0.1103
  168SAPE  C21318977   4.461  -0.583   8.099  0.6551 -0.3217 -0.4457
  168SAPE  H13R18978   4.409  -0.581   8.198 -0.0603 -0.3134 -0.8152
  168SAPE  H13S18979   4.519  -0.490   8.085  3.8374 -1.8841  1.3611
  168SAPE  C21418980   4.550  -0.704   8.080  0.5882 -0.1022  0.0475
  168SAPE  H14R18981   4.495  -0.798   8.098 -1.2187  0.9971  0.6066
  168SAPE  C21518982   4.676  -0.722   8.051  0.1707 -0.8902 -0.1175
  168SAPE  H15R18983   4.713  -0.825   8.040  1.0287 -0.5957 -0.0732
  168SAPE  C21618984   4.783  -0.614   8.041  0.1420 -0.1635 -0.0829
  168SAPE  H16R18985   4.744  -0.510   8.041  0.1975 -0.1418 -0.2849
  168SAPE  H16S18986   4.838  -0.622   7.944  0.9717 -0.0723  0.3742
  168SAPE  C21718987   4.875  -0.627   8.163  0.1782  0.5647 -0.2126
  168SAPE  H17R18988   4.972  -0.574   8.150  0.0395  0.7047 -0.7005
  168SAPE  H17S18989   4.906  -0.733   8.172 -0.9345  0.0457 -2.0266
  168SAPE  C21818990   4.807  -0.583   8.289 -0.9892 -0.1541  0.3109
  168SAPE  H18R18991   4.743  -0.667   8.323 -0.9513 -0.3830 -0.1867
  168SAPE  H18S18992   4.738  -0.501   8.262 -0.7573 -0.2578 -0.6128
  168SAPE  C21918993   4.897  -0.539   8.398  0.8106 -0.3779 -0.1578
  168SAPE  H19R18994   4.835  -0.489   8.476 -0.2563  0.5635 -1.5490
  168SAPE  H19S18995   4.958  -0.452   8.366 -2.7449  2.6942  0.7188
  168SAPE  C22018996   4.974  -0.646   8.458 -0.7474  0.3776  0.3056
  168SAPE  H20R18997   5.017  -0.722   8.389 -0.7986 -1.4902  2.2424
  168SAPE  H20S18998   4.917  -0.719   8.520  0.7419  0.6572  2.0705
  168SAPE  H20T18999   5.060  -0.610   8.518 -0.7800 -0.5897  0.9568
  168SAPE   C3319000   4.351   0.062   7.372  0.7675  0.2311 -0.5056
  168SAPE   H3X19001   4.454   0.025   7.353  0.6307 -0.2578 -0.3061
  168SAPE   H3Y19002   4.268   0.000   7.331 -1.7144  3.3613 -0.5709
  168SAPE   C3419003   4.329   0.078   7.519 -0.4928 -0.0060 -0.8074
  168SAPE   H4X19004   4.231   0.128   7.536 -0.9318 -0.8678 -0.7540
  168SAPE   H4Y19005   4.405   0.146   7.563  0.4524 -0.3866 -1.8082
  168SAPE   C3519006   4.342  -0.055   7.598 -0.2736  0.5628 -0.1456
  168SAPE   H5X19007   4.431  -0.109   7.560 -0.0426 -0.6363  1.9359
  168SAPE   H5Y19008   4.256  -0.124   7.582  0.6237 -0.5934 -0.1182
  168SAPE   C3619009   4.356  -0.029   7.748  0.0771  0.5445  0.8095
  168SAPE   H6X19010   4.262   0.019   7.784 -0.8487 -1.4159  1.1536
  168SAPE   H6Y19011   4.444   0.038   7.763 -0.0415  1.6215 -2.5266
  168SAPE   C3719012   4.367  -0.156   7.833  0.3837 -0.5074 -0.5958
  168SAPE   H7X19013   4.474  -0.185   7.840  0.4355  0.1235  3.4581
  168SAPE   H7Y19014   4.296  -0.229   7.789  0.6440 -0.0757 -1.7879
  168SAPE   C3819015   4.342  -0.112   7.980  0.2483  0.1980  0.6070
  168SAPE   H8X19016   4.238  -0.080   8.002  0.7642  1.2918  1.5312
  168SAPE   H8Y19017   4.407  -0.024   7.999  1.6413 -0.6031 -0.3115
  168SAPE   C3919018   4.382  -0.220   8.083 -0.4571 -0.8131 -0.4581
  168SAPE   H9X19019   4.471  -0.265   8.035 -0.1168 -0.0146 -0.5851
  168SAPE   H9Y19020   4.310  -0.302   8.103  0.6718 -1.6089  0.5072
  168SAPE  C31019021   4.426  -0.173   8.222  0.3291 -0.1692 -0.1814
  168SAPE  H10X19022   4.343  -0.136   8.286  2.9415  0.5696  3.0909
  168SAPE  H10Y19023   4.497  -0.088   8.218 -0.7042  0.6655 -3.4480
  168SAPE  C31119024   4.479  -0.289   8.307 -0.0043  0.1117 -0.5631
  168SAPE  H11X19025   4.574  -0.336   8.272  0.7666  1.9073 -0.9839
  168SAPE  H11Y19026   4.410  -0.376   8.312  1.1936 -0.8495  3.3835
  168SAPE  C31219027   4.487  -0.259   8.453 -0.1341 -0.3101 -0.5402
  168SAPE  H12X19028   4.524  -0.342   8.517  0.9642  1.8756  1.8347
  168SAPE  H12Y19029   4.394  -0.217   8.498 -0.8077 -0.3782 -1.8305
  168SAPE  C31319030   4.602  -0.161   8.497  0.3058 -0.6310 -0.8101
  168SAPE  H13X19031   4.597  -0.061   8.449  1.9531  0.4932  1.1745
  168SAPE  H13Y19032   4.698  -0.212   8.475 -0.2779 -3.1052  1.7332
  168SAPE  C31419033   4.592  -0.132   8.647 -0.9710 -0.0776  0.3785
  168SAPE  H14X19034   4.599  -0.228   8.703 -0.4997  0.5593  1.4444
  168SAPE  H14Y19035   4.490  -0.095   8.671 -1.4208  0.2808 -1.8030
  168SAPE  C31519036   4.705  -0.039   8.697 -0.3110 -0.3678 -0.0189
  168SAPE  H15X19037   4.705   0.058   8.642  0.8442  0.1421  0.8227
  168SAPE  H15Y19038   4.809  -0.076   8.681  0.2708  1.8880 -2.2027
  168SAPE  C31619039   4.691  -0.002   8.848 -0.2341  0.5378 -0.3968
  168SAPE  H16X19040   4.594   0.051   8.858 -0.7132 -0.1410 -1.3379
  168SAPE  H16Y19041   4.776   0.064   8.877  3.1816 -2.7202 -2.1817
  168SAPE  C31719042   4.693  -0.126   8.941 -0.7980 -0.1796  0.8254
  168SAPE  H17X19043   4.632  -0.208   8.895  1.3511 -0.0826 -2.5419
  168SAPE  H17Y19044   4.649  -0.113   9.042 -1.0234  0.7422  0.6131
  168SAPE  C31819045   4.828  -0.198   8.965  0.0055  0.2603  0.1317
  168SAPE  H18X19046   4.913  -0.128   8.977  0.3717  0.4599 -2.9033
  168SAPE  H18Y19047   4.854  -0.263   8.878 -2.1874 -0.4020 -0.1051
  168SAPE  H18Z19048   4.819  -0.256   9.059  0.6098  0.2361  0.1734
  169SAPE     N19049   2.534   0.485   6.612 -0.3515 -0.7211 -0.5050
  169SAPE   HN119050   2.481   0.401   6.641  0.4382 -1.7653 -1.9805
  169SAPE   HN219051   2.567   0.456   6.518  0.4028 -1.1375 -0.1190
  169SAPE   HN319052   2.610   0.498   6.681 -0.6548 -1.6240  0.0219
  169SAPE   C1219053   2.459   0.618   6.603 -0.1902  0.1246 -0.0979
  169SAPE  H12A19054   2.372   0.620   6.672 -0.5258  0.4341 -0.5215
  169SAPE  H12B19055   2.418   0.619   6.500  2.6590 -1.2261 -1.3489
  169SAPE   C1119056   2.558   0.734   6.620 -0.0124  0.1652 -1.2601
  169SAPE  H11A19057   2.602   0.723   6.722 -1.7684 -0.8725 -0.5800
  169SAPE  H11B19058   2.498   0.828   6.625  0.9974  0.7814  0.2750
  169SAPE     P19059   2.796   0.808   6.521 -0.2574 -0.1183 -0.2564
  169SAPE   O1319060   2.857   0.796   6.383  0.1020 -0.3426  0.0772
  169SAPE   O1419061   2.789   0.947   6.577  0.0309 -0.1690 -0.2986
  169SAPE   O1219062   2.648   0.745   6.514  0.3447 -0.3998  0.2490
  169SAPE   O1119063   2.878   0.713   6.615  0.2108  0.6646 -0.0739
  169SAPE    C119064   2.939   0.583   6.588 -0.4829 -0.2412 -0.3180
  169SAPE    HA19065   2.870   0.520   6.529 -2.1568  0.0874  1.2036
  169SAPE    HB19066   3.037   0.589   6.535 -0.0467 -0.0126  0.4903
  169SAPE    C219067   2.969   0.518   6.727 -0.2868  0.1737 -0.4505
  169SAPE    HS19068   2.917   0.421   6.732  1.4665 -0.7538  0.9730
  169SAPE   O2119069   2.935   0.591   6.844  0.4762  0.4351 -0.1368
  169SAPE   C2119070   2.799   0.582   6.863  0.1409  0.0588 -0.3444
  169SAPE   O2219071   2.717   0.526   6.793  0.6520  0.5750  0.0635
  169SAPE   C2219072   2.762   0.649   6.998 -0.1004  0.2841 -0.2900
  169SAPE   H2R19073   2.810   0.589   7.078  0.1137  1.0778  0.1843
  169SAPE   H2S19074   2.790   0.756   6.996 -0.1216  0.2883 -0.4304
  169SAPE    C319075   3.130   0.485   6.724  0.5735  0.0625  0.3810
  169SAPE    HX19076   3.185   0.581   6.713 -0.3617  0.6227  0.4361
  169SAPE    HY19077   3.143   0.428   6.629 -1.1040 -0.6095  0.5249
  169SAPE   O3119078   3.174   0.414   6.842  0.2862  0.1722  0.2360
  169SAPE   C3119079   3.143   0.283   6.835 -0.0155 -0.7150  0.3205
  169SAPE   O3219080   3.092   0.229   6.740 -0.0859  0.3717 -0.3945
  169SAPE   C3219081   3.189   0.211   6.962  0.5187 -0.3711 -0.3131
  169SAPE   H2X19082   3.115   0.242   7.038 -2.1465 -1.6540 -2.2122
  169SAPE   H2Y19083   3.293   0.237   6.989 -0.1434 -0.3773  2.5246
  169SAPE   C2319084   2.602   0.641   7.022  0.6816  0.0113  0.9450
  169SAPE   H3R19085   2.570   0.543   6.980  0.2244 -1.0091  3.4715
  169SAPE   H3S19086   2.560   0.724   6.961  0.8924 -1.5029 -1.3641
  169SAPE   C2419087   2.557   0.629   7.170  0.3181  0.0381  0.6886
  169SAPE   H4R19088   2.607   0.541   7.217 -2.2790 -0.2336  3.1559
  169SAPE   H4S19089   2.448   0.612   7.170  0.0930  1.0218 -2.1966
  169SAPE   C2519090   2.580   0.763   7.234 -0.0104  0.1608  0.0377
  169SAPE   H5R19091   2.541   0.851   7.181 -1.9007  0.1203  1.2681
  169SAPE   C2619092   2.646   0.793   7.350 -1.0857 -0.5396  0.0143
  169SAPE   H6R19093   2.660   0.896   7.385 -3.4178 -0.2191  0.1043
  169SAPE   C2719094   2.727   0.701   7.442 -1.0125 -0.7855  0.2991
  169SAPE   H7R19095   2.817   0.742   7.492 -1.9833 -0.5944  1.9561
  169SAPE   H7S19096   2.769   0.613   7.388  2.7286 -0.5549  2.4842
  169SAPE   C2819097   2.645   0.640   7.557  0.3236 -0.3466  0.3731
  169SAPE   H8R19098   2.573   0.561   7.532 -1.7287  1.7339 -0.7114
  169SAPE   C2919099   2.676   0.661   7.688 -0.0927 -0.7856 -0.3475
  169SAPE   H9R19100   2.623   0.601   7.764 -1.3367 -1.1506 -1.4736
  169SAPE  C21019101   2.774   0.753   7.753 -0.9985  0.5654  0.4113
  169SAPE  H10R19102   2.719   0.846   7.776 -2.5814  0.2371 -1.7375
  169SAPE  H10S19103   2.855   0.777   7.681  0.0088  0.9787  1.6406
  169SAPE  C21119104   2.837   0.687   7.872  0.3430 -0.0147  0.2892
  169SAPE  H11R19105   2.887   0.589   7.864 -1.3668 -1.0337  1.4062
  169SAPE  C21219106   2.838   0.739   7.991 -0.4764 -0.5149 -0.0394
  169SAPE  H12R19107   2.901   0.683   8.063 -0.2621  1.6003  1.5027
  169SAPE  C21319108   2.784   0.872   8.031  0.1386 -0.3549  0.0505
  169SAPE  H13R19109   2.775   0.867   8.141  2.7403  1.8603  0.4620
  169SAPE  H13S19110   2.683   0.891   7.988  0.4487  2.8509  0.4985
  169SAPE  C21419111   2.872   1.000   7.992  0.6756  0.8731 -0.2214
  169SAPE  H14R19112   2.819   1.065   7.921  0.0793  2.1867  1.3440
  169SAPE  C21519113   2.983   1.041   8.054 -0.2335  0.1347 -0.2163
  169SAPE  H15R19114   3.030   1.129   8.008 -1.8295 -0.4422 -3.1721
  169SAPE  C21619115   3.045   0.978   8.186  0.0354  0.2362  0.3510
  169SAPE  H16R19116   3.154   0.968   8.171 -0.1348 -2.9511  0.5362
  169SAPE  H16S19117   3.015   0.872   8.199 -1.2532  0.6818  1.2696
  169SAPE  C21719118   3.009   1.062   8.313  0.4493  0.3985 -0.0854
  169SAPE  H17R19119   3.004   1.173   8.303 -1.6386  0.5497  1.6993
  169SAPE  H17S19120   3.099   1.053   8.378  0.2014  2.5265  0.6484
  169SAPE  C21819121   2.892   0.999   8.393  0.0376  0.2835 -0.4317
  169SAPE  H18R19122   2.897   0.888   8.405 -1.0024  0.3275  0.5677
  169SAPE  H18S19123   2.798   1.021   8.338 -0.2657  2.6323  0.9055
  169SAPE  C21919124   2.868   1.064   8.529 -0.2018 -0.1602 -0.3316
  169SAPE  H19R19125   2.870   1.175   8.524 -1.1711 -0.1231 -0.0306
  169SAPE  H19S19126   2.958   1.050   8.593 -0.0997 -0.2960 -0.5000
  169SAPE  C22019127   2.738   1.034   8.608 -0.3177  0.0589 -0.3501
  169SAPE  H20R19128   2.652   1.028   8.539  0.4263  0.1841 -1.3174
  169SAPE  H20S19129   2.716   1.105   8.691 -0.8874 -1.0033  0.4358
  169SAPE  H20T19130   2.757   0.943   8.668  2.8782  0.8177  0.0049
  169SAPE   C3319131   3.180   0.057   6.964 -0.1561 -0.3887  1.1701
  169SAPE   H3X19132   3.262   0.025   6.896 -0.1364 -0.0852  1.0523
  169SAPE   H3Y19133   3.090   0.027   6.906  1.3103 -0.6110 -1.1345
  169SAPE   C3419134   3.208  -0.001   7.104 -0.1752  0.0763  0.0647
  169SAPE   H4X19135   3.189  -0.111   7.107 -0.3230  0.1096  2.7445
  169SAPE   H4Y19136   3.130   0.030   7.177 -0.3360 -0.6389  0.2102
  169SAPE   C3519137   3.337   0.026   7.162 -0.4649  0.2631  0.4064
  169SAPE   H5X19138   3.350   0.136   7.155  1.4186  0.0807  0.3719
  169SAPE   H5Y19139   3.424  -0.009   7.102 -1.8178  2.3962 -3.0804
  169SAPE   C3619140   3.357  -0.039   7.306 -0.0394  0.0945  0.4659
  169SAPE   H6X19141   3.456  -0.006   7.346 -0.9891  0.4442  2.6572
  169SAPE   H6Y19142   3.364  -0.149   7.296  0.7602  0.0594  1.2735
  169SAPE   C3719143   3.252  -0.008   7.408 -1.0533  0.0032  0.3635
  169SAPE   H7X19144   3.162  -0.068   7.383 -0.4667 -0.2150 -1.3544
  169SAPE   H7Y19145   3.227   0.101   7.403  0.6775  0.3897 -0.6836
  169SAPE   C3819146   3.293  -0.041   7.555  0.2608  0.4582  0.2894
  169SAPE   H8X19147   3.325  -0.147   7.566  1.5758  0.9921  1.9673
  169SAPE   H8Y19148   3.189  -0.020   7.587 -1.0007  0.0379 -3.0674
  169SAPE   C3919149   3.403   0.042   7.615 -0.7260 -0.6461  0.7536
  169SAPE   H9X19150   3.395   0.145   7.572  0.9759 -1.1863 -0.9898
  169SAPE   H9Y19151   3.500   0.014   7.569 -0.8811  1.5164 -1.1247
  169SAPE  C31019152   3.405   0.047   7.770  0.2835  0.0848  0.3804
  169SAPE  H10X19153   3.392  -0.055   7.811  1.8705 -0.2848  0.0078
  169SAPE  H10Y19154   3.311   0.102   7.793 -0.8527 -1.2300 -0.9350
  169SAPE  C31119155   3.522   0.124   7.825 -0.1246  0.1825 -0.9059
  169SAPE  H11X19156   3.514   0.230   7.794 -2.3102  0.4311  0.3070
  169SAPE  H11Y19157   3.616   0.075   7.792  1.1936  1.8026  0.2905
  169SAPE  C31219158   3.531   0.140   7.975 -0.1545  0.3383 -0.2520
  169SAPE  H12X19159   3.554   0.043   8.024  0.6022  1.0442  0.8399
  169SAPE  H12Y19160   3.434   0.172   8.018 -0.7427 -2.3500  0.5486
  169SAPE  C31319161   3.646   0.244   8.004  0.5740 -0.6809  0.9042
  169SAPE  H13X19162   3.610   0.338   7.957 -1.2820 -2.5118 -1.6177
  169SAPE  H13Y19163   3.739   0.212   7.952  1.0238  0.1428  1.1677
  169SAPE  C31419164   3.690   0.268   8.149  0.1730  0.1459  0.5659
  169SAPE  H14X19165   3.796   0.302   8.149 -0.1355  1.3949 -2.6720
  169SAPE  H14Y19166   3.683   0.166   8.191 -0.6589 -0.7931 -1.7182
  169SAPE  C31519167   3.581   0.344   8.220 -0.3916 -0.3366  0.2139
  169SAPE  H15X19168   3.483   0.301   8.191  0.2471 -1.3109 -0.5882
  169SAPE  H15Y19169   3.582   0.448   8.179 -0.8223 -0.1080  0.7798
  169SAPE  C31619170   3.604   0.361   8.365 -0.8008 -0.4446 -0.3467
  169SAPE  H16X19171   3.690   0.430   8.377 -0.7853 -0.2215 -1.5709
  169SAPE  H16Y19172   3.631   0.269   8.419  2.8038  2.0771  2.6193
  169SAPE  C31719173   3.491   0.428   8.437  0.2553 -0.1406  0.8341
  169SAPE  H17X19174   3.394   0.385   8.404  0.9094 -1.2519  0.3276
  169SAPE  H17Y19175   3.492   0.535   8.405  0.3233  0.0992  1.5957
  169SAPE  C31819176   3.499   0.449   8.588 -0.1429  0.5214  0.3973
  169SAPE  H18X19177   3.599   0.488   8.617  1.0150 -1.9690  0.0601
  169SAPE  H18Y19178   3.469   0.367   8.657 -1.0192 -0.6255 -1.2912
  169SAPE  H18Z19179   3.430   0.534   8.604  2.5845  2.9497  0.0401
  170SAPE     N19180   4.162   5.071   6.220 -0.2642  0.5293 -0.1173
  170SAPE   HN119181   4.118   5.104   6.132  0.5734 -1.3166 -1.2984
  170SAPE   HN219182   4.265   5.085   6.212 -0.3441  2.9004  1.8471
  170SAPE   HN319183   4.128   4.973   6.224  0.4174  0.2679 -0.5558
  170SAPE   C1219184   4.092   5.149   6.332  0.6056 -0.3565  0.3203
  170SAPE  H12A19185   4.122   5.255   6.320 -0.0078 -0.4676 -3.2684
  170SAPE  H12B19186   4.116   5.109   6.433  0.5277 -1.7528 -0.1905
  170SAPE   C1119187   3.938   5.145   6.303 -0.5128 -0.7349 -0.1630
  170SAPE  H11A19188   3.916   5.210   6.216 -2.0185 -1.7790 -0.5929
  170SAPE  H11B19189   3.895   5.202   6.388 -2.3088 -0.6487 -1.0920
  170SAPE     P19190   3.751   4.971   6.239 -0.1654 -0.2768  0.0748
  170SAPE   O1319191   3.739   5.011   6.094  0.0070 -0.0951 -0.4604
  170SAPE   O1419192   3.708   4.832   6.271  0.0044 -0.1842  0.7621
  170SAPE   O1219193   3.894   5.010   6.297  0.1420 -0.0458 -0.3589
  170SAPE   O1119194   3.659   5.068   6.320  0.0219 -0.1016 -0.1329
  170SAPE    C119195   3.551   5.035   6.413 -0.0182 -0.4936 -0.4138
  170SAPE    HA19196   3.454   5.066   6.368 -0.9216 -1.6422  0.6559
  170SAPE    HB19197   3.552   4.925   6.428  0.9605 -0.3789  0.5059
  170SAPE    C219198   3.572   5.090   6.554 -0.1719  0.7863 -0.9468
  170SAPE    HS19199   3.588   5.199   6.538  1.1094  1.1007  1.8600
  170SAPE   O2119200   3.690   5.025   6.612  0.2486  0.5250 -0.1555
  170SAPE   C2119201   3.786   5.102   6.643  0.5300 -0.0215 -0.1327
  170SAPE   O2219202   3.789   5.223   6.635 -0.8792 -0.2663  0.3703
  170SAPE   C2219203   3.899   5.020   6.699  0.4627 -0.3333 -0.1297
  170SAPE   H2R19204   3.872   4.912   6.696 -0.6533 -0.0897  0.4284
  170SAPE   H2S19205   3.990   5.036   6.638  1.0312 -0.0686  0.7538
  170SAPE    C319206   3.449   5.063   6.644  0.4545  0.6904  0.3582
  170SAPE    HX19207   3.426   4.954   6.640 -1.1093  0.9650  0.9805
  170SAPE    HY19208   3.355   5.107   6.604 -0.4709 -1.1186  0.4340
  170SAPE   O3119209   3.474   5.090   6.784 -0.8786 -0.1526 -0.2208
  170SAPE   C3119210   3.466   5.222   6.812  0.1595  0.3379 -0.8840
  170SAPE   O3219211   3.423   5.306   6.739  0.1713 -0.3654 -0.0518
  170SAPE   C3219212   3.486   5.246   6.968  0.1211 -0.5925  0.8179
  170SAPE   H2X19213   3.412   5.311   7.019  2.9981  2.3419  1.5874
  170SAPE   H2Y19214   3.591   5.277   6.986  0.5717 -1.7662  0.3047
  170SAPE   C2319215   3.939   5.056   6.850  0.6926  0.1803 -0.1558
  170SAPE   H3R19216   3.957   5.165   6.862 -0.9166  0.5482 -0.8161
  170SAPE   H3S19217   4.026   4.998   6.888 -0.2802 -0.9079  0.4945
  170SAPE   C2419218   3.823   5.015   6.948 -0.4319  0.5816  0.1039
  170SAPE   H4R19219   3.737   5.084   6.930 -1.0738  0.2440  1.6524
  170SAPE   H4S19220   3.861   5.046   7.048  0.9737  0.4556 -0.3745
  170SAPE   C2519221   3.769   4.871   6.954  0.1091 -0.6218  0.0432
  170SAPE   H5R19222   3.699   4.839   6.876 -2.1830  1.3508  1.1813
  170SAPE   C2619223   3.802   4.788   7.057  0.9753 -0.0804 -0.4049
  170SAPE   H6R19224   3.762   4.686   7.046  0.9424 -0.1231  0.1103
  170SAPE   C2719225   3.919   4.815   7.157 -0.5846 -0.1294  0.0706
  170SAPE   H7R19226   3.871   4.815   7.258  1.5590 -1.9597  1.1569
  170SAPE   H7S19227   3.967   4.915   7.147 -4.4129  2.2608  2.5619
  170SAPE   C2819228   4.012   4.698   7.169 -0.0505  0.9074 -0.2763
  170SAPE   H8R19229   3.995   4.624   7.089 -0.2732  1.6901 -0.9713
  170SAPE   C2919230   4.132   4.707   7.235 -0.4878  0.0792 -0.1117
  170SAPE   H9R19231   4.209   4.628   7.232  0.0622  0.6215 -0.4960
  170SAPE  C21019232   4.176   4.826   7.311 -0.6698  0.2441  0.9174
  170SAPE  H10R19233   4.095   4.848   7.384 -0.5716  3.9588  0.1307
  170SAPE  H10S19234   4.183   4.912   7.240  1.5539 -2.2059 -2.0624
  170SAPE  C21119235   4.303   4.819   7.394 -0.2538  0.1824 -0.5371
  170SAPE  H11R19236   4.393   4.821   7.331 -1.1664 -1.7645 -2.0190
  170SAPE  C21219237   4.308   4.822   7.531  0.0611 -0.3276  0.3584
  170SAPE  H12R19238   4.410   4.826   7.574 -0.0706 -0.2941  0.6674
  170SAPE  C21319239   4.199   4.822   7.634 -0.0322  0.1263  0.4058
  170SAPE  H13R19240   4.170   4.718   7.660  0.3840  0.1458  0.9664
  170SAPE  H13S19241   4.107   4.867   7.592  0.9237  0.6127 -1.3068
  170SAPE  C21419242   4.241   4.908   7.752  0.8692  0.2668  0.1123
  170SAPE  H14R19243   4.239   5.016   7.733 -1.4521  0.2950  0.2530
  170SAPE  C21519244   4.260   4.862   7.880 -0.3163  0.3369  0.0960
  170SAPE  H15R19245   4.304   4.931   7.953  2.5084 -0.7316 -0.4816
  170SAPE  C21619246   4.254   4.718   7.933 -0.5875 -0.0380  0.3499
  170SAPE  H16R19247   4.247   4.649   7.846  0.8832 -0.5622  0.6156
  170SAPE  H16S19248   4.162   4.696   7.992 -2.2322 -0.3270 -2.1850
  170SAPE  C21719249   4.366   4.673   8.027 -0.2490  0.0380  0.0240
  170SAPE  H17R19250   4.465   4.696   7.981 -0.1520  2.4614  1.2805
  170SAPE  H17S19251   4.368   4.562   8.024 -0.4749  0.0075  0.8157
  170SAPE  C21819252   4.352   4.738   8.168  0.5695 -0.2088 -0.7000
  170SAPE  H18R19253   4.260   4.799   8.177  1.2833  0.8867 -0.5031
  170SAPE  H18S19254   4.435   4.813   8.174 -0.5651  1.0500 -0.2687
  170SAPE  C21919255   4.350   4.631   8.284  0.0844 -0.1051 -0.5664
  170SAPE  H19R19256   4.443   4.571   8.293 -0.6175 -0.9842  1.8027
  170SAPE  H19S19257   4.268   4.567   8.248 -0.3907 -0.1018  0.4561
  170SAPE  C22019258   4.323   4.692   8.419 -0.4888  0.2353  0.0527
  170SAPE  H20R19259   4.414   4.740   8.462 -1.5488  0.7349  1.8673
  170SAPE  H20S19260   4.292   4.619   8.497  1.9326  0.2615  1.1279
  170SAPE  H20T19261   4.248   4.774   8.416  0.3513  1.0622  1.0859
  170SAPE   C3319262   3.463   5.113   7.044 -0.2056  0.8731 -0.7856
  170SAPE   H3X19263   3.524   5.033   6.998 -1.5480 -1.2075  0.8743
  170SAPE   H3Y19264   3.354   5.094   7.040 -0.6145  2.9468 -0.4651
  170SAPE   C3419265   3.511   5.109   7.189 -0.3948 -0.5417  0.1645
  170SAPE   H4X19266   3.452   5.178   7.254 -1.6390 -1.2518 -0.1863
  170SAPE   H4Y19267   3.616   5.146   7.182 -0.8489  0.5329 -1.6607
  170SAPE   C3519268   3.489   4.974   7.248  0.2426 -0.5966 -0.2887
  170SAPE   H5X19269   3.517   4.894   7.176 -0.4401 -0.0892 -1.1302
  170SAPE   H5Y19270   3.383   4.963   7.279  0.1250  3.7592  1.5483
  170SAPE   C3619271   3.562   4.960   7.386 -0.1770 -0.2476 -0.4108
  170SAPE   H6X19272   3.511   5.022   7.463  1.8354  1.1127 -0.1220
  170SAPE   H6Y19273   3.670   4.983   7.382  0.0378 -1.3815 -1.7248
  170SAPE   C3719274   3.545   4.811   7.438  0.3539 -0.2577 -0.4270
  170SAPE   H7X19275   3.587   4.753   7.353 -0.5525 -0.9537 -0.4130
  170SAPE   H7Y19276   3.437   4.791   7.454  0.4897  1.1585  3.4884
  170SAPE   C3819277   3.623   4.787   7.573  0.9190  0.4745  0.0807
  170SAPE   H8X19278   3.732   4.804   7.559  1.2414 -0.6085  1.0576
  170SAPE   H8Y19279   3.607   4.683   7.610 -0.7232  0.3231 -0.9638
  170SAPE   C3919280   3.573   4.880   7.688 -0.3647  0.2256 -0.0836
  170SAPE   H9X19281   3.564   4.987   7.659  2.3657  0.9840  1.4482
  170SAPE   H9Y19282   3.648   4.876   7.770 -1.2378 -0.1565  0.7148
  170SAPE  C31019283   3.454   4.808   7.749 -0.9968  0.4235 -0.9127
  170SAPE  H10X19284   3.484   4.719   7.808 -0.8153  0.8049 -0.4199
  170SAPE  H10Y19285   3.383   4.767   7.674 -0.7760 -0.5496 -0.5952
  170SAPE  C31119286   3.376   4.899   7.841  0.0635 -0.0619  1.0593
  170SAPE  H11X19287   3.313   4.971   7.785 -0.2738 -0.7232  0.5847
  170SAPE  H11Y19288   3.444   4.964   7.902  1.4573  1.6514 -2.0924
  170SAPE  C31219289   3.274   4.830   7.934  0.1334  0.0174 -0.0628
  170SAPE  H12X19290   3.303   4.724   7.951 -0.6996 -0.1069  0.6524
  170SAPE  H12Y19291   3.173   4.837   7.888  0.3338 -1.0704 -0.7119
  170SAPE  C31319292   3.250   4.904   8.065 -0.1916 -0.1884  0.3449
  170SAPE  H13X19293   3.206   5.003   8.042  0.1809  0.0743  0.7488
  170SAPE  H13Y19294   3.338   4.931   8.127 -0.7692  1.2603  0.5826
  170SAPE  C31419295   3.154   4.830   8.153  0.1789 -0.0796 -0.5732
  170SAPE  H14X19296   3.202   4.769   8.233  0.7767 -0.4350 -1.1895
  170SAPE  H14Y19297   3.099   4.751   8.097 -0.0277 -1.1717  1.1079
  170SAPE  C31519298   3.056   4.926   8.225  0.1462 -0.5280 -0.0828
  170SAPE  H15X19299   2.990   4.873   8.298 -0.1969  2.8180  2.3033
  170SAPE  H15Y19300   2.999   4.967   8.139  1.7627  0.1475 -0.8665
  170SAPE  C31619301   3.110   5.033   8.317 -0.5612 -0.0825 -0.0068
  170SAPE  H16X19302   3.017   5.076   8.360 -0.7908 -1.0533  0.4872
  170SAPE  H16Y19303   3.165   5.109   8.257 -2.1366  2.1388  1.2272
  170SAPE  C31719304   3.214   4.977   8.421  0.3306  0.0842 -0.1114
  170SAPE  H17X19305   3.302   4.926   8.377  1.3044  0.4990  1.2806
  170SAPE  H17Y19306   3.162   4.887   8.460 -0.1614  0.4257  0.0458
  170SAPE  C31819307   3.264   5.062   8.540 -0.2594  0.2066 -0.2032
  170SAPE  H18X19308   3.331   5.000   8.604  0.5952  1.4446  0.1276
  170SAPE  H18Y19309   3.172   5.089   8.596 -0.0419 -1.9988  1.3714
  170SAPE  H18Z19310   3.308   5.160   8.514 -0.1038  0.3465  0.5565
  171SAPE     N19311   5.481   4.614   6.244 -0.1926  0.7113  0.1603
  171SAPE   HN119312   5.389   4.592   6.200 -0.4285  0.0682  0.9305
  171SAPE   HN219313   5.527   4.699   6.208  0.0538  1.5350  2.2473
  171SAPE   HN319314   5.548   4.539   6.217  0.9104  1.7637 -0.1038
  171SAPE   C1219315   5.458   4.638   6.393 -0.0748  0.3972 -0.2400
  171SAPE  H12A19316   5.469   4.540   6.445  0.9904  0.6743  0.0745
  171SAPE  H12B19317   5.356   4.680   6.404 -0.8401 -0.9213 -1.9073
  171SAPE   C1119318   5.566   4.730   6.448  0.0629 -0.3393 -0.4934
  171SAPE  H11A19319   5.654   4.663   6.454 -1.6089 -2.5974  0.0555
  171SAPE  H11B19320   5.533   4.753   6.552  0.2521  1.5659 -0.8189
  171SAPE     P19321   5.484   4.975   6.392  0.1134  0.4835 -0.9356
  171SAPE   O1319322   5.516   5.067   6.282  0.1207  0.5672  0.0324
  171SAPE   O1419323   5.347   4.928   6.407 -0.2539  0.3114  0.8183
  171SAPE   O1219324   5.580   4.851   6.375 -0.3774  0.2849  0.0399
  171SAPE   O1119325   5.534   5.045   6.528  0.4081 -0.1328 -0.5482
  171SAPE    C119326   5.659   5.116   6.531 -0.3744  0.2147  0.9584
  171SAPE    HA19327   5.676   5.165   6.433  1.0617 -1.4857  0.2976
  171SAPE    HB19328   5.647   5.194   6.609 -0.7295 -0.0056  1.1314
  171SAPE    C219329   5.785   5.026   6.570  0.0542  0.2217 -0.8987
  171SAPE    HS19330   5.788   4.958   6.482 -1.1269  0.7032 -1.3243
  171SAPE   O2119331   5.762   4.951   6.691 -0.1725 -0.2428 -0.1218
  171SAPE   C2119332   5.847   4.850   6.718  0.1006 -0.1261  0.4427
  171SAPE   O2219333   5.933   4.804   6.645  0.2154 -0.0518  0.3699
  171SAPE   C2219334   5.793   4.782   6.847 -0.8829 -0.9208 -0.2186
  171SAPE   H2R19335   5.693   4.828   6.861  0.8490  3.4076 -0.5098
  171SAPE   H2S19336   5.776   4.673   6.844  2.3579 -1.6766  2.3929
  171SAPE    C319337   5.922   5.110   6.577  0.2669 -0.3636 -0.3994
  171SAPE    HX19338   5.937   5.155   6.476  1.6889 -0.0827 -0.0783
  171SAPE    HY19339   6.001   5.034   6.596 -0.0631 -1.1660 -2.0612
  171SAPE   O3119340   5.936   5.211   6.681  0.0304  0.1146 -0.4356
  171SAPE   C3119341   5.910   5.341   6.648  0.0164  0.4501  0.0452
  171SAPE   O3219342   5.863   5.380   6.543  0.1591  0.6578 -0.3158
  171SAPE   C3219343   5.958   5.427   6.771 -0.1411 -0.7176  0.0092
  171SAPE   H2X19344   5.873   5.442   6.840  0.2177  0.8906  0.1380
  171SAPE   H2Y19345   5.971   5.530   6.730 -2.7079 -0.4787 -0.3522
  171SAPE   C2319346   5.879   4.821   6.973  0.2954 -0.7996 -0.2537
  171SAPE   H3R19347   5.811   4.804   7.060  1.3675 -2.0744  0.3542
  171SAPE   H3S19348   5.900   4.930   6.971  0.6290 -0.8243  0.8820
  171SAPE   C2419349   6.013   4.739   7.002  0.4800 -0.2564  0.6743
  171SAPE   H4R19350   6.064   4.783   7.091  0.5509  0.8329  0.1182
  171SAPE   H4S19351   6.075   4.751   6.911 -0.8869  0.2316 -0.2131
  171SAPE   C2519352   5.966   4.597   7.027 -0.6641  0.5025 -0.4594
  171SAPE   H5R19353   5.915   4.558   6.937  0.2570  0.4786 -0.9870
  171SAPE   C2619354   5.970   4.522   7.136 -1.0003 -0.3472 -0.3796
  171SAPE   H6R19355   5.955   4.413   7.128 -0.3704 -0.4552 -0.1065
  171SAPE   C2719356   6.038   4.568   7.260  0.1215  0.1375 -0.0152
  171SAPE   H7R19357   6.098   4.662   7.264  1.6401 -0.7226 -1.5872
  171SAPE   H7S19358   6.113   4.486   7.260 -1.5849 -1.5537 -2.7231
  171SAPE   C2819359   5.940   4.564   7.377  0.1026  0.3183 -0.3265
  171SAPE   H8R19360   5.834   4.538   7.362 -0.2194  1.3358  0.0802
  171SAPE   C2919361   5.971   4.606   7.506  1.3508 -0.3229  0.8250
  171SAPE   H9R19362   5.892   4.614   7.581  1.3080  4.3647  0.5622
  171SAPE  C21019363   6.098   4.659   7.548  0.5987  0.2708  0.8566
  171SAPE  H10R19364   6.165   4.695   7.467 -0.6252  0.3443 -0.1502
  171SAPE  H10S19365   6.160   4.585   7.603 -1.0511 -1.0949  0.9417
  171SAPE  C21119366   6.077   4.776   7.646  0.4308  0.0487  0.5028
  171SAPE  H11R19367   6.071   4.867   7.586  0.2181 -0.6676 -0.5931
  171SAPE  C21219368   6.061   4.771   7.781  0.2969  0.7493 -0.8742
  171SAPE  H12R19369   6.037   4.862   7.838 -1.7923 -0.5702  0.4933
  171SAPE  C21319370   6.047   4.644   7.867 -0.0540  0.3255 -0.2985
  171SAPE  H13R19371   5.995   4.563   7.812  3.0308 -1.3520 -0.9515
  171SAPE  H13S19372   5.994   4.649   7.964 -2.2026 -1.8435 -1.2533
  171SAPE  C21419373   6.183   4.585   7.896 -1.0266 -0.8486  0.2721
  171SAPE  H14R19374   6.237   4.532   7.817 -0.5247 -0.8170  0.5882
  171SAPE  C21519375   6.252   4.587   8.017  0.3651  0.7455  0.4880
  171SAPE  H15R19376   6.356   4.551   8.010  1.0623  2.5614  1.0407
  171SAPE  C21619377   6.207   4.656   8.147 -0.2796 -0.0885  0.8218
  171SAPE  H16R19378   6.129   4.732   8.126  0.7004  0.8327  0.4005
  171SAPE  H16S19379   6.295   4.716   8.180 -0.6037  0.8597  0.0214
  171SAPE  C21719380   6.164   4.560   8.254 -0.4479  0.1298  0.3038
  171SAPE  H17R19381   6.085   4.494   8.212 -1.2115  0.5540  1.0237
  171SAPE  H17S19382   6.113   4.606   8.341  1.5173 -1.7657  2.6026
  171SAPE  C21819383   6.285   4.477   8.311  0.0170 -0.4458 -0.5710
  171SAPE  H18R19384   6.373   4.543   8.319 -1.8271  1.9205  1.9958
  171SAPE  H18S19385   6.313   4.399   8.236  3.3582 -0.1280  0.2207
  171SAPE  C21919386   6.249   4.404   8.437  0.4210  0.0762 -0.2894
  171SAPE  H19R19387   6.322   4.324   8.461  1.4141  0.8154 -0.7979
  171SAPE  H19S19388   6.157   4.344   8.420 -0.0877  1.0162 -0.9554
  171SAPE  C22019389   6.228   4.497   8.561  0.2003  0.0020  0.5547
  171SAPE  H20R19390   6.126   4.540   8.560 -1.0469 -2.7892 -0.1819
  171SAPE  H20S19391   6.308   4.575   8.558  2.4650 -2.2162 -0.5518
  171SAPE  H20T19392   6.243   4.430   8.648 -0.3242 -1.0288 -0.1249
  171SAPE   C3319393   6.076   5.365   6.845 -0.2441  0.4418 -0.3731
  171SAPE   H3X19394   6.156   5.356   6.769  1.7313  1.4330  1.4747
  171SAPE   H3Y19395   6.055   5.269   6.897 -0.4322  2.4608  3.7179
  171SAPE   C3419396   6.135   5.461   6.954  0.3048  0.5409  0.1823
  171SAPE   H4X19397   6.153   5.564   6.916  0.1718  0.6282  0.3536
  171SAPE   H4Y19398   6.234   5.419   6.979  1.3032  2.5054 -0.2394
  171SAPE   C3519399   6.051   5.462   7.082  0.8381  0.0108 -0.2054
  171SAPE   H5X19400   6.045   5.357   7.116 -3.1013 -0.5287 -2.0622
  171SAPE   H5Y19401   5.951   5.504   7.060  0.0637 -1.0730  1.1252
  171SAPE   C3619402   6.100   5.548   7.199 -0.1398 -0.4530  0.1541
  171SAPE   H6X19403   6.123   5.655   7.179 -0.0223 -0.1817  1.6346
  171SAPE   H6Y19404   6.203   5.518   7.229  0.8434  1.5488 -0.9872
  171SAPE   C3719405   6.004   5.534   7.326 -0.2400 -0.0999  0.0033
  171SAPE   H7X19406   5.979   5.429   7.353 -0.6758 -0.0690 -0.2698
  171SAPE   H7Y19407   5.905   5.570   7.292 -2.4436 -3.8013  1.8516
  171SAPE   C3819408   6.057   5.604   7.456 -0.0731  0.0873 -0.7659
  171SAPE   H8X19409   5.967   5.610   7.522  0.5712  0.4936  0.0912
  171SAPE   H8Y19410   6.078   5.708   7.422 -0.3586  0.6884  0.7966
  171SAPE   C3919411   6.169   5.537   7.539 -0.2167  0.3072  0.5183
  171SAPE   H9X19412   6.260   5.576   7.490 -0.9553  0.5524 -0.6781
  171SAPE   H9Y19413   6.170   5.426   7.533 -1.0049  0.2454  1.1858
  171SAPE  C31019414   6.171   5.577   7.688 -0.2914  0.0971  0.1790
  171SAPE  H10X19415   6.133   5.680   7.697 -2.1129 -0.5228 -0.0356
  171SAPE  H10Y19416   6.271   5.572   7.736 -0.6576 -0.2411  0.9225
  171SAPE  C31119417   6.075   5.498   7.777 -0.1035 -0.8639  0.1722
  171SAPE  H11X19418   6.101   5.390   7.778  1.2291 -0.5579  0.6886
  171SAPE  H11Y19419   5.974   5.508   7.731 -1.1722 -2.5464  2.0301
  171SAPE  C31219420   6.069   5.560   7.922 -0.3561  0.2341  0.0913
  171SAPE  H12X19421   5.992   5.497   7.971 -0.3679 -1.1607 -1.5923
  171SAPE  H12Y19422   6.044   5.668   7.929 -0.9569  0.0060  1.7847
  171SAPE  C31319423   6.196   5.525   8.007  0.0559  0.1226  0.3926
  171SAPE  H13X19424   6.279   5.569   7.947  0.7433 -1.3619  0.2024
  171SAPE  H13Y19425   6.210   5.415   7.997  0.0882  0.1708 -0.1078
  171SAPE  C31419426   6.192   5.573   8.152 -0.4636  0.5071 -0.2074
  171SAPE  H14X19427   6.094   5.545   8.195  0.7098 -0.5464  1.9063
  171SAPE  H14Y19428   6.193   5.684   8.154 -1.1654  0.4968  1.3208
  171SAPE  C31519429   6.308   5.516   8.235  0.0083  0.3279 -0.5336
  171SAPE  H15X19430   6.408   5.542   8.192  0.4326 -0.3235  0.0418
  171SAPE  H15Y19431   6.300   5.406   8.226  1.2533 -0.1713  3.0928
  171SAPE  C31619432   6.301   5.553   8.378  0.0479 -0.3303  0.0128
  171SAPE  H16X19433   6.201   5.524   8.417 -0.0660  0.0714  0.0221
  171SAPE  H16Y19434   6.297   5.664   8.381 -0.9936 -0.3677  0.9209
  171SAPE  C31719435   6.404   5.492   8.468 -0.3181  0.1569  0.0123
  171SAPE  H17X19436   6.401   5.560   8.556 -0.1601  3.0419 -2.1019
  171SAPE  H17Y19437   6.503   5.501   8.419 -0.3733 -0.1615 -0.1572
  171SAPE  C31819438   6.371   5.350   8.522  0.1296  0.4681 -0.8145
  171SAPE  H18X19439   6.372   5.273   8.442  2.5556 -1.9090  1.2989
  171SAPE  H18Y19440   6.265   5.354   8.556  0.1640 -0.2765 -0.6048
  171SAPE  H18Z19441   6.444   5.322   8.601 -0.5064  1.9190  0.3427
  172SAPE     N19442   5.307   3.823   6.510  0.2593  0.1309 -0.4716
  172SAPE   HN119443   5.223   3.765   6.490 -0.7284  1.3972 -0.1276
  172SAPE   HN219444   5.335   3.809   6.609  0.7645 -0.1657 -0.6523
  172SAPE   HN319445   5.278   3.921   6.487  2.2083  1.0813  0.8199
  172SAPE   C1219446   5.424   3.779   6.431 -0.4239 -1.0023 -0.3213
  172SAPE  H12A19447   5.406   3.679   6.386 -2.9982 -0.3233 -0.9703
  172SAPE  H12B19448   5.506   3.773   6.506 -0.6376  0.6017  0.0866
  172SAPE   C1119449   5.468   3.878   6.325 -0.2345 -0.5232  0.5104
  172SAPE  H11A19450   5.568   3.841   6.292 -0.9300 -0.0260 -2.4518
  172SAPE  H11B19451   5.488   3.976   6.373  3.2109 -1.8320  2.0371
  172SAPE     P19452   5.279   3.998   6.199  0.0745  0.1952 -0.1539
  172SAPE   O1319453   5.344   4.124   6.163  0.3571 -0.0306  0.1049
  172SAPE   O1419454   5.177   3.949   6.107 -0.3178  0.0619  0.6208
  172SAPE   O1219455   5.390   3.880   6.208  0.1533  0.3146 -0.1085
  172SAPE   O1119456   5.211   4.004   6.339  0.3178 -0.0204 -0.3270
  172SAPE    C119457   5.068   3.974   6.354 -0.1182  0.1211 -0.0989
  172SAPE    HA19458   5.014   4.004   6.262  2.4619 -0.9936 -2.1146
  172SAPE    HB19459   5.056   3.864   6.360 -0.4567  0.1976  1.0056
  172SAPE    C219460   5.003   4.041   6.480 -0.4020  0.3423  0.3605
  172SAPE    HS19461   5.023   4.150   6.484 -1.6134  0.7155 -1.9388
  172SAPE   O2119462   5.048   3.974   6.600 -0.1600 -0.1959 -0.4384
  172SAPE   C2119463   5.035   4.043   6.704  0.2005  0.7502 -0.6561
  172SAPE   O2219464   5.007   4.163   6.709  0.2206  0.4726 -0.7019
  172SAPE   C2219465   5.048   3.945   6.826  0.0709 -0.1903  0.0454
  172SAPE   H2R19466   4.949   3.897   6.843 -0.3006  1.0579  1.6413
  172SAPE   H2S19467   5.112   3.858   6.802 -1.0082 -1.0161  0.0810
  172SAPE    C319468   4.853   4.024   6.463  0.0316  0.4318 -0.0695
  172SAPE    HX19469   4.843   3.916   6.437  1.0848  0.6797 -1.6574
  172SAPE    HY19470   4.826   4.076   6.369  0.1213 -0.4963 -0.6296
  172SAPE   O3119471   4.770   4.064   6.578 -0.5349 -0.4148 -0.1617
  172SAPE   C3119472   4.731   4.191   6.571 -0.4281  0.1597  0.7304
  172SAPE   O3219473   4.749   4.266   6.477  0.2296  0.3057 -0.1360
  172SAPE   C3219474   4.666   4.236   6.703  0.2718 -0.0518  0.6094
  172SAPE   H2X19475   4.725   4.191   6.786  3.7167 -0.5577 -1.8981
  172SAPE   H2Y19476   4.565   4.189   6.703  0.7436 -1.1684 -1.6188
  172SAPE   C2319477   5.100   4.018   6.948 -0.6116 -0.1169 -0.6837
  172SAPE   H3R19478   5.019   4.089   6.976  0.6720  0.2365  2.5310
  172SAPE   H3S19479   5.193   4.072   6.922 -1.0455  0.1522 -1.7374
  172SAPE   C2419480   5.135   3.936   7.080 -0.3950 -0.1932  0.0233
  172SAPE   H4R19481   5.055   3.860   7.096  0.8358 -1.6044 -0.2657
  172SAPE   H4S19482   5.145   4.007   7.164  0.5364 -0.6268  0.2934
  172SAPE   C2519483   5.267   3.862   7.064 -0.5567 -0.5429  0.4071
  172SAPE   H5R19484   5.287   3.840   6.958  0.4487 -1.9476  0.8625
  172SAPE   C2619485   5.359   3.845   7.159 -0.0802  0.8458  0.5118
  172SAPE   H6R19486   5.451   3.791   7.133 -0.3044  0.4514  0.5408
  172SAPE   C2719487   5.352   3.891   7.301 -0.6738 -0.6844  0.4860
  172SAPE   H7R19488   5.407   3.822   7.369 -1.2039 -0.2815  1.3356
  172SAPE   H7S19489   5.247   3.890   7.337 -0.6117  0.6536  0.7635
  172SAPE   C2819490   5.424   4.023   7.325  0.2226 -0.0011  0.0176
  172SAPE   H8R19491   5.431   4.090   7.237  0.8604  2.1543  1.6280
  172SAPE   C2919492   5.485   4.075   7.437  1.4197  0.7773  0.1652
  172SAPE   H9R19493   5.505   4.183   7.439 -4.0199  2.2775 -2.9176
  172SAPE  C21019494   5.495   4.002   7.571  0.2551  0.2233 -0.1977
  172SAPE  H10R19495   5.587   4.044   7.618 -0.4981  1.8296 -0.0913
  172SAPE  H10S19496   5.512   3.896   7.540 -0.6916 -0.4942  1.6024
  172SAPE  C21119497   5.375   4.016   7.656  0.5384 -0.3309 -0.2434
  172SAPE  H11R19498   5.274   4.015   7.612  1.0300  1.3348 -1.5288
  172SAPE  C21219499   5.379   4.019   7.789 -0.3903 -0.4234 -0.6328
  172SAPE  H12R19500   5.282   4.023   7.842 -0.9063 -3.4208 -1.1548
  172SAPE  C21319501   5.497   4.017   7.886 -0.0303 -1.0635  0.4772
  172SAPE  H13R19502   5.493   4.098   7.963  0.8988  1.2986 -1.8133
  172SAPE  H13S19503   5.582   4.016   7.815 -0.6159 -0.2321 -0.2552
  172SAPE  C21419504   5.495   3.882   7.943 -0.0367  0.6226 -0.0464
  172SAPE  H14R19505   5.528   3.801   7.878 -0.7207  0.9335 -0.8089
  172SAPE  C21519506   5.430   3.855   8.062 -0.1236  0.5808 -0.5200
  172SAPE  H15R19507   5.439   3.755   8.107 -2.2275  0.0070 -1.2464
  172SAPE  C21619508   5.364   3.955   8.148  0.7855  0.1429  0.0349
  172SAPE  H16R19509   5.271   3.989   8.097  0.6053 -0.9538 -0.3894
  172SAPE  H16S19510   5.438   4.038   8.158  0.9851 -0.0596  0.2519
  172SAPE  C21719511   5.321   3.901   8.279  0.3723 -0.7775 -1.1080
  172SAPE  H17R19512   5.246   3.819   8.276  0.2342 -0.8534  1.6675
  172SAPE  H17S19513   5.261   3.982   8.325  1.5231 -0.6192  0.1816
  172SAPE  C21819514   5.435   3.863   8.362 -0.5012  0.3943 -0.0860
  172SAPE  H18R19515   5.510   3.945   8.371  1.5128 -1.4307  0.7678
  172SAPE  H18S19516   5.491   3.786   8.304  0.8808  1.3979 -0.1561
  172SAPE  C21919517   5.403   3.812   8.503 -0.4050 -0.0050 -0.5094
  172SAPE  H19R19518   5.493   3.789   8.564  0.2436  1.7156 -0.7670
  172SAPE  H19S19519   5.340   3.721   8.512 -2.1996  1.2901  0.7719
  172SAPE  C22019520   5.323   3.917   8.580  0.1743 -0.1149  0.3581
  172SAPE  H20R19521   5.367   3.913   8.682  2.4446  2.2792 -0.4056
  172SAPE  H20S19522   5.215   3.893   8.573  0.0291  0.0772  1.7823
  172SAPE  H20T19523   5.358   4.014   8.539  1.7171 -1.2307 -1.1398
  172SAPE   C3319524   4.658   4.385   6.721 -0.5987 -0.2265 -0.3438
  172SAPE   H3X19525   4.581   4.433   6.656 -2.1256 -1.2325  0.6400
  172SAPE   H3Y19526   4.755   4.431   6.694 -1.6687  1.1918 -2.0777
  172SAPE   C3419527   4.636   4.416   6.869 -0.1098  0.2190 -0.3220
  172SAPE   H4X19528   4.693   4.353   6.941 -0.6399  0.3352  0.1984
  172SAPE   H4Y19529   4.532   4.382   6.885 -0.3843  1.3938  0.4933
  172SAPE   C3519530   4.653   4.565   6.910  0.1910 -0.7890  0.5164
  172SAPE   H5X19531   4.584   4.613   6.837  0.8514 -0.6072 -0.0027
  172SAPE   H5Y19532   4.748   4.621   6.898 -1.4877  2.7268  2.3159
  172SAPE   C3619533   4.608   4.591   7.046 -0.0357  0.1059 -0.6020
  172SAPE   H6X19534   4.514   4.533   7.057 -1.6080  2.5330 -0.6033
  172SAPE   H6Y19535   4.597   4.699   7.068  0.3632  0.3668 -1.6322
  172SAPE   C3719536   4.698   4.537   7.160 -0.0988  0.0822  0.3925
  172SAPE   H7X19537   4.802   4.563   7.130 -0.8969  1.1459 -1.6683
  172SAPE   H7Y19538   4.693   4.426   7.160  0.5724  0.0342 -0.8891
  172SAPE   C3819539   4.658   4.583   7.304 -0.2791 -0.2165  0.2671
  172SAPE   H8X19540   4.550   4.566   7.325 -0.7538  1.1191 -0.9811
  172SAPE   H8Y19541   4.679   4.691   7.296  0.3064 -0.1603  2.0801
  172SAPE   C3919542   4.758   4.549   7.419 -0.5435 -0.5788  0.1839
  172SAPE   H9X19543   4.853   4.606   7.407 -2.5256  2.8555 -0.6658
  172SAPE   H9Y19544   4.775   4.439   7.412 -2.0078 -0.7056 -2.2107
  172SAPE  C31019545   4.702   4.594   7.556  0.6684  0.2360  0.0284
  172SAPE  H10X19546   4.597   4.557   7.558  0.3359  0.8025 -3.0652
  172SAPE  H10Y19547   4.697   4.704   7.546  0.4420  0.0911 -1.7224
  172SAPE  C31119548   4.775   4.541   7.685  0.3059  0.2682  0.3438
  172SAPE  H11X19549   4.880   4.568   7.659  0.5413 -0.6434  0.3252
  172SAPE  H11Y19550   4.765   4.431   7.690 -4.5554  0.5570  1.3862
  172SAPE  C31219551   4.717   4.592   7.821  0.0591 -0.2639 -0.0058
  172SAPE  H12X19552   4.609   4.571   7.836  0.3235 -0.3537  2.0225
  172SAPE  H12Y19553   4.725   4.702   7.828  2.0016 -0.4700  1.9737
  172SAPE  C31319554   4.796   4.531   7.940  0.0040  0.1750 -0.2262
  172SAPE  H13X19555   4.903   4.555   7.921  0.0213 -0.4599 -0.9874
  172SAPE  H13Y19556   4.793   4.421   7.929  1.6705  0.2042 -1.2752
  172SAPE  C31419557   4.748   4.586   8.076  0.3529 -0.4171 -0.2515
  172SAPE  H14X19558   4.640   4.559   8.086  0.1799  1.1564  4.0482
  172SAPE  H14Y19559   4.739   4.697   8.080 -0.5707 -0.4088 -1.6781
  172SAPE  C31519560   4.816   4.526   8.200  0.1007 -0.0268  0.2076
  172SAPE  H15X19561   4.925   4.548   8.201  0.0678  0.3742 -1.5852
  172SAPE  H15Y19562   4.805   4.417   8.186  2.0252  0.0173 -2.4395
  172SAPE  C31619563   4.760   4.567   8.338 -0.0100  0.8436  0.7311
  172SAPE  H16X19564   4.817   4.520   8.421 -0.5189  1.1036  1.2334
  172SAPE  H16Y19565   4.662   4.514   8.342  0.8438 -0.7451  1.6805
  172SAPE  C31719566   4.758   4.712   8.375 -0.6027  0.4201  0.4151
  172SAPE  H17X19567   4.684   4.766   8.312 -0.1933  1.6970  1.0055
  172SAPE  H17Y19568   4.858   4.749   8.346 -0.6950 -1.0852 -2.1489
  172SAPE  C31819569   4.720   4.736   8.530  0.7881 -0.0353  0.2605
  172SAPE  H18X19570   4.615   4.703   8.545  0.2049  2.7985  3.5938
  172SAPE  H18Y19571   4.740   4.844   8.544  2.8578 -0.5176  1.4883
  172SAPE  H18Z19572   4.784   4.670   8.594  2.3549  0.9548 -0.2179
  173SOPE     N19573   1.861   1.139  10.742  0.2703  0.2485  0.3776
  173SOPE   HN119574   1.798   1.143  10.659  0.4427  0.8832  0.2734
  173SOPE   HN219575   1.929   1.215  10.723  1.0655 -0.3805  0.6965
  173SOPE   HN319576   1.900   1.043  10.748  0.6419  0.4130  0.5999
  173SOPE   C1219577   1.787   1.159  10.868 -0.1421  0.7636  0.1216
  173SOPE  H12A19578   1.699   1.092  10.867  0.9873 -0.7636 -0.8163
  173SOPE  H12B19579   1.753   1.265  10.870  0.4590  0.9534  1.2779
  173SOPE   C1119580   1.884   1.137  10.983 -0.0397  0.2331 -0.2297
  173SOPE  H11A19581   1.828   1.158  11.077  0.9614 -0.5584  0.5763
  173SOPE  H11B19582   1.961   1.217  10.976 -0.3741  0.4499 -1.5532
  173SOPE     P19583   1.880   0.875  11.037 -0.5497  0.3567  0.0826
  173SOPE   O1319584   1.731   0.889  11.029 -0.0268 -0.1828 -0.2558
  173SOPE   O1419585   1.928   0.841  11.170  0.0317  0.0202 -0.0394
  173SOPE   O1219586   1.949   1.010  10.990 -0.2372 -0.1234 -0.4304
  173SOPE   O1119587   1.920   0.766  10.932  0.3703  0.0449  0.2847
  173SOPE    C119588   2.051   0.713  10.918  0.3063  0.7372 -0.2265
  173SOPE    HA19589   2.055   0.602  10.917  0.8371  0.5881  3.6825
  173SOPE    HB19590   2.122   0.745  10.997  2.2711  0.5352 -1.8076
  173SOPE    C219591   2.113   0.744  10.775  0.1674 -0.1417  0.9553
  173SOPE    HS19592   2.129   0.854  10.764  3.5874 -0.7985 -2.6538
  173SOPE   O2119593   2.024   0.691  10.680 -0.2441  0.1796 -0.1411
  173SOPE   C2119594   1.949   0.780  10.614  0.3745 -0.3969 -0.3130
  173SOPE   O2219595   1.951   0.899  10.639  0.1757 -0.0945  0.2240
  173SOPE   C2219596   1.867   0.707  10.509 -0.4038  0.4236  0.1984
  173SOPE   H2R19597   1.762   0.723  10.542 -0.6617 -0.1039 -0.3522
  173SOPE   H2S19598   1.890   0.599  10.524 -0.6645  0.3278 -0.0782
  173SOPE    C319599   2.256   0.689  10.759 -0.3832  0.3146  0.6189
  173SOPE    HX19600   2.247   0.580  10.776  1.8017  0.1245  0.9246
  173SOPE    HY19601   2.311   0.739  10.842  0.8812 -0.1646  0.1056
  173SOPE   O3119602   2.318   0.731  10.636  0.0876  0.2816  0.4004
  173SOPE   C3119603   2.362   0.627  10.563 -0.2641 -0.2906  0.4008
  173SOPE   O3219604   2.380   0.512  10.593 -0.3564 -0.6582  0.4170
  173SOPE   C3219605   2.386   0.672  10.423 -0.0995 -0.1913 -0.4817
  173SOPE   H2X19606   2.488   0.634  10.399 -0.1897 -1.0464  0.4342
  173SOPE   H2Y19607   2.392   0.782  10.418 -0.0307 -0.1234  0.8285
  173SOPE   C2319608   1.904   0.761  10.366 -0.1539 -0.7734  0.0769
  173SOPE   H3R19609   1.879   0.679  10.297  0.5625 -1.1343  0.2338
  173SOPE   H3S19610   2.012   0.780  10.349 -0.0468 -1.9125 -0.5909
  173SOPE   C2419611   1.820   0.893  10.336 -0.0399  0.3781 -0.4120
  173SOPE   H4R19612   1.715   0.876  10.368  1.4937 -1.3347  4.5944
  173SOPE   H4S19613   1.867   0.970  10.402 -2.9515  1.8513  0.1065
  173SOPE   C2519614   1.821   0.931  10.188 -0.7214 -0.8758 -0.4247
  173SOPE   H5R19615   1.743   1.008  10.170 -0.5138 -0.1791  1.4474
  173SOPE   H5S19616   1.919   0.969  10.153 -0.0562 -1.5263  0.6803
  173SOPE   C2619617   1.794   0.821  10.086 -0.0326 -0.8008  0.0794
  173SOPE   H6R19618   1.882   0.753  10.096  0.4222 -0.0955  0.9386
  173SOPE   H6S19619   1.702   0.766  10.113 -1.5396  1.3912 -0.3713
  173SOPE   C2719620   1.796   0.873   9.943  0.0152 -0.1429  0.3523
  173SOPE   H7R19621   1.696   0.910   9.913 -1.6623 -2.3116  2.7803
  173SOPE   H7S19622   1.860   0.964   9.943 -0.3350  0.1172 -0.5183
  173SOPE   C2819623   1.860   0.776   9.843  0.5565 -0.3488  0.3102
  173SOPE   H8R19624   1.884   0.837   9.753 -1.2211  1.6559  1.0819
  173SOPE   H8S19625   1.950   0.732   9.889 -0.3648 -1.5569  1.0158
  173SOPE   C2919626   1.755   0.678   9.818 -0.3699  0.4350  0.1934
  173SOPE   H9119627   1.774   0.590   9.881 -0.4376  0.8971  0.8674
  173SOPE  C21019628   1.652   0.683   9.729 -0.7442 -0.4498 -0.0663
  173SOPE  H10119629   1.580   0.600   9.737 -1.4453  0.3042  2.5966
  173SOPE  C21119630   1.609   0.786   9.632  0.2933  0.3589  0.1026
  173SOPE  H11R19631   1.692   0.855   9.607  0.6959 -0.0395  0.3199
  173SOPE  H11S19632   1.527   0.849   9.671 -1.4943 -1.6383 -0.2603
  173SOPE  C21219633   1.556   0.704   9.512 -0.9123  0.1049  0.4750
  173SOPE  H12R19634   1.457   0.660   9.538 -0.8235 -0.4013 -0.0077
  173SOPE  H12S19635   1.621   0.617   9.485 -1.3201 -0.2662  0.6790
  173SOPE  C21319636   1.545   0.777   9.378  0.6125 -0.3240  0.1157
  173SOPE  H13R19637   1.649   0.811   9.358  0.4679 -1.2580 -2.6269
  173SOPE  H13S19638   1.477   0.864   9.388  0.7130 -0.0434 -1.3552
  173SOPE  C21419639   1.479   0.688   9.268 -0.0352 -0.5034  0.0559
  173SOPE  H14R19640   1.369   0.705   9.266  0.1730  1.0236  0.3202
  173SOPE  H14S19641   1.489   0.578   9.278 -1.4949 -0.6031  0.8044
  173SOPE  C21519642   1.550   0.718   9.140  0.5605 -0.5757  0.7275
  173SOPE  H15R19643   1.654   0.683   9.126  0.0182 -1.6249 -1.0466
  173SOPE  H15S19644   1.541   0.829   9.137 -0.4227 -0.6627 -0.2983
  173SOPE  C21619645   1.484   0.661   9.008  0.1941 -0.2620 -0.1387
  173SOPE  H16R19646   1.385   0.710   8.993  0.0371 -0.8042 -0.9166
  173SOPE  H16S19647   1.472   0.552   9.024  2.5993 -0.6145 -0.3249
  173SOPE  C21719648   1.564   0.692   8.880  0.4795  0.4224 -0.3842
  173SOPE  H17R19649   1.671   0.671   8.902 -0.4242 -4.0535  0.5663
  173SOPE  H17S19650   1.547   0.801   8.864 -1.4358  0.1832 -0.2350
  173SOPE  C21819651   1.520   0.614   8.750  0.0831  0.0376  0.5128
  173SOPE  H18R19652   1.415   0.632   8.716 -0.1874 -0.2876  1.1482
  173SOPE  H18S19653   1.538   0.506   8.767  1.8438  0.2296  0.0765
  173SOPE  H18T19654   1.570   0.633   8.653 -2.7941 -0.7519 -1.2740
  173SOPE   C3319655   2.284   0.620  10.320  0.1118 -0.1066  0.3808
  173SOPE   H3X19656   2.192   0.680  10.303  0.1389 -0.4046 -0.9724
  173SOPE   H3Y19657   2.257   0.514  10.339 -0.9883  0.5925  3.2340
  173SOPE   C3419658   2.340   0.623  10.174 -0.5160 -0.2727 -0.0178
  173SOPE   H4X19659   2.416   0.543  10.159 -0.5626 -0.0870 -1.3830
  173SOPE   H4Y19660   2.385   0.721  10.147  1.0023 -1.5009 -2.3293
  173SOPE   C3519661   2.224   0.602  10.073 -0.2434  0.1895  0.4936
  173SOPE   H5X19662   2.176   0.702  10.064 -1.8851 -0.6470 -0.7948
  173SOPE   H5Y19663   2.153   0.532  10.122 -0.4637 -0.3051 -0.5065
  173SOPE   C3619664   2.271   0.549   9.938 -1.0907 -0.3392  0.5576
  173SOPE   H6X19665   2.314   0.448   9.953 -1.1300 -0.2634  1.2061
  173SOPE   H6Y19666   2.357   0.614   9.907 -1.0871 -1.1379 -1.2700
  173SOPE   C3719667   2.156   0.538   9.838  1.0124  0.4771  0.3170
  173SOPE   H7X19668   2.118   0.640   9.814 -0.7854 -0.2384 -0.0365
  173SOPE   H7Y19669   2.080   0.476   9.890  2.0115  0.1883  1.4761
  173SOPE   C3819670   2.195   0.480   9.700  0.3231  0.1937  0.0469
  173SOPE   H8X19671   2.209   0.370   9.713  0.0860  0.3633  2.0501
  173SOPE   H8Y19672   2.291   0.527   9.669  0.6286  0.4682  1.3388
  173SOPE   C3919673   2.075   0.501   9.596  0.4634  0.0824 -0.3281
  173SOPE   H9X19674   2.045   0.607   9.577  0.5279  0.0572 -0.5664
  173SOPE   H9Y19675   1.986   0.453   9.642 -0.3881  0.2672 -1.7103
  173SOPE  C31019676   2.088   0.426   9.461 -0.1991  0.0846 -0.0047
  173SOPE  H10X19677   2.095   0.317   9.482 -0.7582 -0.4437 -2.3341
  173SOPE  H10Y19678   2.176   0.466   9.406  0.5526 -0.8814  0.4675
  173SOPE  C31119679   1.962   0.440   9.367 -0.1217 -0.2202 -0.6663
  173SOPE  H11X19680   1.928   0.546   9.375 -0.1889 -0.3154  0.5802
  173SOPE  H11Y19681   1.876   0.390   9.417 -0.1980  1.9748  1.6035
  173SOPE  C31219682   1.988   0.401   9.220  0.3922 -0.6768  0.2273
  173SOPE  H12X19683   1.986   0.291   9.204 -2.9207 -0.4652 -1.7670
  173SOPE  H12Y19684   2.085   0.447   9.194  1.0516 -1.2408  1.5884
  173SOPE  C31319685   1.872   0.464   9.144  0.0946 -0.1474 -0.2543
  173SOPE  H13X19686   1.883   0.573   9.166 -1.0554  0.0369 -0.5537
  173SOPE  H13Y19687   1.775   0.429   9.183  1.2451 -1.4365  1.5815
  173SOPE  C31419688   1.887   0.435   8.991  0.2163 -0.0303 -0.9378
  173SOPE  H14X19689   1.990   0.425   8.952  0.9737 -3.3960  1.5386
  173SOPE  H14Y19690   1.840   0.522   8.940  0.3246 -0.1168 -1.1902
  173SOPE  C31519691   1.803   0.307   8.953  0.3850  0.7644  0.1798
  173SOPE  H15X19692   1.702   0.315   9.000 -0.9927  0.0554 -2.4913
  173SOPE  H15Y19693   1.860   0.223   8.997  1.7578  1.3876 -0.3501
  173SOPE  C31619694   1.785   0.301   8.797  0.1996 -0.0345  0.7589
  173SOPE  H16X19695   1.882   0.273   8.751 -0.0349 -1.8310  1.2893
  173SOPE  H16Y19696   1.761   0.405   8.768  1.0147  0.0887  0.4979
  173SOPE  C31719697   1.680   0.197   8.748 -0.8233  0.1742 -0.7443
  173SOPE  H17X19698   1.674   0.205   8.637 -0.9477 -1.1436 -0.8512
  173SOPE  H17Y19699   1.579   0.220   8.788  0.2075  1.1813  1.4311
  173SOPE  C31819700   1.718   0.057   8.796  0.5438 -0.2536 -0.4244
  173SOPE  H18X19701   1.648  -0.017   8.751  2.1114 -1.7839 -0.4972
  173SOPE  H18Y19702   1.729   0.037   8.905  2.8918 -1.3264 -0.7923
  173SOPE  H18Z19703   1.816   0.034   8.748  0.4820 -1.7307  0.0867
  174SOPE     N19704   1.468   1.489  11.150  0.5454  0.4476 -0.2785
  174SOPE   HN119705   1.558   1.474  11.198  0.2051  0.3768  0.3449
  174SOPE   HN219706   1.474   1.573  11.089  0.4781  2.3023  2.1470
  174SOPE   HN319707   1.398   1.520  11.220  0.6784  1.5991 -0.6383
  174SOPE   C1219708   1.411   1.364  11.089  0.8703  0.3321 -0.3137
  174SOPE  H12A19709   1.426   1.280  11.159  2.7674  0.2867 -0.7203
  174SOPE  H12B19710   1.472   1.337  11.000  3.8511  0.1430  1.6610
  174SOPE   C1119711   1.266   1.393  11.036  0.2770  0.0392 -0.5781
  174SOPE  H11A19712   1.211   1.417  11.130  4.1274  1.9416  1.4451
  174SOPE  H11B19713   1.235   1.298  10.988 -0.6392 -0.6743  1.3041
  174SOPE     P19714   1.115   1.532  10.877  0.0146  0.4549 -0.0814
  174SOPE   O1319715   1.050   1.636  10.964  0.0607  0.1609  0.7253
  174SOPE   O1419716   1.032   1.413  10.854  0.4537 -0.1077 -0.4574
  174SOPE   O1219717   1.259   1.494  10.938  0.7889  0.0531 -0.0412
  174SOPE   O1119718   1.148   1.606  10.742  0.0410 -0.2671 -0.0770
  174SOPE    C119719   1.058   1.713  10.703 -0.7579  0.3380  0.3651
  174SOPE    HA19720   1.110   1.752  10.613 -0.0371 -1.2088  0.0781
  174SOPE    HB19721   1.068   1.800  10.772  0.4759  0.5765 -0.1007
  174SOPE    C219722   0.913   1.671  10.672  0.2809 -0.0139 -0.3814
  174SOPE    HS19723   0.858   1.667  10.768 -0.3531 -0.4432 -0.7535
  174SOPE   O2119724   0.907   1.539  10.608 -0.2941 -0.2075 -0.5168
  174SOPE   C2119725   0.800   1.471  10.626 -0.5840  1.1252  0.1226
  174SOPE   O2219726   0.691   1.513  10.671  0.0014  0.2267  0.5580
  174SOPE   C2219727   0.817   1.329  10.558 -0.6542  0.1670  0.1237
  174SOPE   H2R19728   0.832   1.260  10.644 -2.3053  0.4948  0.7110
  174SOPE   H2S19729   0.909   1.317  10.495 -0.9269  1.9472 -0.6966
  174SOPE    C319730   0.857   1.775  10.574  0.1696 -0.3976 -0.9963
  174SOPE    HX19731   0.862   1.865  10.639 -0.1264 -0.0489 -1.4474
  174SOPE    HY19732   0.748   1.766  10.553 -0.6908  1.9262  1.8507
  174SOPE   O3119733   0.938   1.802  10.460 -0.0411  0.0432  0.3548
  174SOPE   C3119734   0.897   1.764  10.336 -0.3267  0.2630  0.6762
  174SOPE   O3219735   0.797   1.705  10.308  0.1956  0.1095 -0.4848
  174SOPE   C3219736   1.001   1.802  10.223 -0.1119 -0.0806  0.0495
  174SOPE   H2X19737   1.077   1.865  10.275  1.5288  0.9935 -3.3253
  174SOPE   H2Y19738   0.952   1.870  10.151  0.6218  2.0465  1.4593
  174SOPE   C2319739   0.690   1.259  10.496  0.0980  1.0590  0.3106
  174SOPE   H3R19740   0.601   1.280  10.559 -0.1799  1.7482 -0.3003
  174SOPE   H3S19741   0.717   1.152  10.512  0.1185  1.3410  2.5024
  174SOPE   C2419742   0.656   1.309  10.350 -0.7277  0.0313  0.2247
  174SOPE   H4R19743   0.582   1.245  10.296  0.5472  0.3972 -2.1017
  174SOPE   H4S19744   0.620   1.414  10.357 -1.5525 -0.1520 -0.8344
  174SOPE   C2519745   0.773   1.307  10.252 -0.6722  0.8237  0.5614
  174SOPE   H5R19746   0.733   1.330  10.151  0.5585 -1.0770 -0.4018
  174SOPE   H5S19747   0.856   1.378  10.272  1.7452 -1.2290 -1.5003
  174SOPE   C2619748   0.832   1.158  10.236  0.2647 -0.1296  0.6941
  174SOPE   H6R19749   0.892   1.142  10.329  1.4987 -1.5793 -0.2974
  174SOPE   H6S19750   0.745   1.089  10.230 -1.6154  2.1736  0.0968
  174SOPE   C2719751   0.923   1.140  10.113 -0.1363 -0.0154  0.0631
  174SOPE   H7R19752   1.011   1.208  10.119 -0.0736  0.2137 -2.5256
  174SOPE   H7S19753   0.965   1.038  10.108  0.2663  0.1609 -0.1531
  174SOPE   C2819754   0.859   1.184   9.975  0.2983  0.2522 -0.3413
  174SOPE   H8R19755   0.840   1.294   9.981 -1.4132 -0.0672  0.5901
  174SOPE   H8S19756   0.942   1.177   9.900 -0.7182  2.5497 -1.8079
  174SOPE   C2919757   0.733   1.109   9.943  0.3327 -0.4350 -0.3265
  174SOPE   H9119758   0.669   1.103  10.032  1.4584  2.0094  0.7237
  174SOPE  C21019759   0.690   1.068   9.818  0.0472  0.5777  0.5528
  174SOPE  H10119760   0.593   1.016   9.816 -0.1473  0.9506 -0.2389
  174SOPE  C21119761   0.757   1.069   9.684  1.1921 -0.2909 -0.5607
  174SOPE  H11R19762   0.815   1.164   9.676 -1.3458  1.4764  0.4969
  174SOPE  H11S19763   0.670   1.080   9.616 -0.3177  2.8837  1.6060
  174SOPE  C21219764   0.851   0.954   9.648  0.1712  0.1320  0.2527
  174SOPE  H12R19765   0.872   0.966   9.540 -2.9637 -0.0768 -0.4900
  174SOPE  H12S19766   0.802   0.855   9.665  1.1759 -1.0616 -3.1161
  174SOPE  C21319767   0.986   0.954   9.716 -0.5774 -0.0676 -0.2858
  174SOPE  H13R19768   0.966   0.951   9.825 -0.9199 -1.5356 -0.3783
  174SOPE  H13S19769   1.038   1.044   9.677 -0.9645 -0.1191 -0.9332
  174SOPE  C21419770   1.076   0.839   9.671 -0.0540  0.2282  0.7023
  174SOPE  H14R19771   1.069   0.829   9.560 -1.9150 -1.4972  0.8967
  174SOPE  H14S19772   1.022   0.744   9.693 -1.4089  1.3487  2.5875
  174SOPE  C21519773   1.215   0.833   9.736  0.4219 -0.3739  0.4324
  174SOPE  H15R19774   1.263   0.927   9.701 -1.3270  0.3625 -0.0610
  174SOPE  H15S19775   1.262   0.739   9.701  0.9048 -0.2403  0.7005
  174SOPE  C21619776   1.215   0.833   9.887 -0.2434  0.1383  0.1630
  174SOPE  H16R19777   1.153   0.748   9.923 -0.7189  0.5727  0.3856
  174SOPE  H16S19778   1.167   0.928   9.918 -0.6893  0.3100 -0.9980
  174SOPE  C21719779   1.357   0.844   9.945  0.0647  0.2056  0.4785
  174SOPE  H17R19780   1.392   0.943   9.911 -0.8842  0.7967  1.1785
  174SOPE  H17S19781   1.420   0.761   9.906 -0.0833  0.5030 -0.3949
  174SOPE  C21819782   1.370   0.829  10.096 -0.5187  0.0816  0.3990
  174SOPE  H18R19783   1.469   0.794  10.133  1.9881  1.5269 -4.2004
  174SOPE  H18S19784   1.284   0.764  10.124 -0.0462 -0.4797  0.5653
  174SOPE  H18T19785   1.355   0.928  10.143  0.5216  0.6397 -0.4186
  174SOPE   C3319786   1.077   1.690  10.159 -0.1835  0.6873  0.5140
  174SOPE   H3X19787   1.096   1.610  10.234  0.4106  1.5858  1.3498
  174SOPE   H3Y19788   1.176   1.721  10.117  0.5766  1.2258  2.5762
  174SOPE   C3419789   1.003   1.608  10.043  0.2571  0.3144 -0.5191
  174SOPE   H4X19790   0.898   1.598  10.077 -0.3191 -3.5037 -2.8776
  174SOPE   H4Y19791   1.046   1.507  10.026  0.0664 -0.5240  3.0804
  174SOPE   C3519792   1.017   1.681   9.909  0.2857 -0.3030  0.0470
  174SOPE   H5X19793   1.122   1.680   9.873  0.2581 -2.1363 -0.0988
  174SOPE   H5Y19794   0.982   1.787   9.909  0.5853 -0.2010  0.4678
  174SOPE   C3619795   0.925   1.618   9.807 -0.8206  0.4714 -0.1230
  174SOPE   H6X19796   0.884   1.684   9.728 -0.4278  0.0644 -0.6813
  174SOPE   H6Y19797   0.828   1.578   9.843 -1.0679  1.9996  0.9655
  174SOPE   C3719798   1.005   1.524   9.718  0.2229  0.0295 -0.7590
  174SOPE   H7X19799   1.034   1.434   9.776  0.5532  0.2431 -0.5890
  174SOPE   H7Y19800   1.097   1.574   9.682  0.6359 -0.7534 -0.7929
  174SOPE   C3819801   0.925   1.475   9.597 -0.0080 -0.3579 -0.1297
  174SOPE   H8X19802   0.903   1.570   9.544  1.4786 -0.4982 -1.0406
  174SOPE   H8Y19803   0.826   1.439   9.632 -0.6100  1.6825  0.4256
  174SOPE   C3919804   0.990   1.377   9.500 -0.5006 -0.2970 -0.6253
  174SOPE   H9X19805   1.010   1.290   9.567  0.5500  0.0192 -0.5100
  174SOPE   H9Y19806   1.085   1.422   9.464 -0.0912  0.0362  0.7971
  174SOPE  C31019807   0.901   1.343   9.388  0.0383 -0.2281 -0.0436
  174SOPE  H10X19808   0.886   1.430   9.321  0.2486  1.1796  1.6741
  174SOPE  H10Y19809   0.799   1.318   9.422 -0.5201 -0.1931 -1.6053
  174SOPE  C31119810   0.949   1.228   9.306 -0.1963 -0.1178 -0.3521
  174SOPE  H11X19811   0.944   1.132   9.362  0.1111  0.1975  0.2236
  174SOPE  H11Y19812   1.053   1.240   9.270  0.1560 -0.8755  0.3874
  174SOPE  C31219813   0.867   1.199   9.177 -0.4685 -0.1350 -0.5802
  174SOPE  H12X19814   0.858   1.299   9.130 -2.5314  0.8252  1.6778
  174SOPE  H12Y19815   0.763   1.165   9.200 -1.3564  1.2615 -2.2870
  174SOPE  C31319816   0.947   1.110   9.070  0.3575  0.3786  0.1184
  174SOPE  H13X19817   0.977   1.019   9.128  0.3393  0.3315  0.0531
  174SOPE  H13Y19818   1.038   1.164   9.039 -0.6479  2.6445  0.9352
  174SOPE  C31419819   0.862   1.063   8.958 -0.4160 -0.1787 -0.8714
  174SOPE  H14X19820   0.763   1.032   8.998 -0.0317  0.7622  0.9103
  174SOPE  H14Y19821   0.897   0.975   8.900  1.2696  0.1320 -0.3886
  174SOPE  C31519822   0.838   1.175   8.857  0.4762  0.6701 -0.3990
  174SOPE  H15X19823   0.937   1.207   8.820  0.0898  1.6650 -0.6008
  174SOPE  H15Y19824   0.804   1.261   8.918 -0.3961  0.1602 -0.1419
  174SOPE  C31619825   0.742   1.140   8.742  0.0214 -0.5754 -0.5354
  174SOPE  H16X19826   0.639   1.129   8.780 -0.4159 -2.8011 -2.1608
  174SOPE  H16Y19827   0.761   1.038   8.703  1.9494 -0.8271  0.9165
  174SOPE  C31719828   0.758   1.237   8.624  0.5769  0.3050 -0.6468
  174SOPE  H17X19829   0.702   1.191   8.541  2.0296 -0.3506 -1.3074
  174SOPE  H17Y19830   0.865   1.253   8.596  0.6750  0.3625 -0.2468
  174SOPE  C31819831   0.688   1.373   8.656 -0.5723  0.1579 -0.1236
  174SOPE  H18X19832   0.659   1.411   8.555 -1.0343 -0.0016 -0.0521
  174SOPE  H18Y19833   0.758   1.446   8.702  0.6868 -0.3290 -1.1949
  174SOPE  H18Z19834   0.604   1.366   8.728 -0.2877  1.4751  0.3595
  175SOPE     N19835   2.467   2.329  10.897  0.2767  0.0076  0.5058
  175SOPE   HN119836   2.473   2.252  10.966  0.5731  0.6868  1.2537
  175SOPE   HN219837   2.550   2.391  10.888  0.0880  0.1158 -0.6928
  175SOPE   HN319838   2.385   2.384  10.930 -0.8623 -0.9219 -0.6457
  175SOPE   C1219839   2.442   2.270  10.758 -0.1918 -0.3910  0.1640
  175SOPE  H12A19840   2.338   2.230  10.754 -0.7771  1.1651 -2.7396
  175SOPE  H12B19841   2.513   2.186  10.744  0.6761 -0.1519  2.7608
  175SOPE   C1119842   2.440   2.374  10.639  0.0493 -0.7344 -0.3050
  175SOPE  H11A19843   2.376   2.460  10.668  2.2209  1.1892 -0.8561
  175SOPE  H11B19844   2.406   2.313  10.553  0.4601 -1.4597  0.0389
  175SOPE     P19845   2.636   2.541  10.675  0.7202  0.5478  0.2680
  175SOPE   O1319846   2.779   2.537  10.658 -0.4207 -0.1423  0.1580
  175SOPE   O1419847   2.591   2.555  10.817 -0.3578 -0.2119 -0.2431
  175SOPE   O1219848   2.572   2.416  10.609 -0.4383  0.1229  0.3269
  175SOPE   O1119849   2.570   2.658  10.589 -0.2651  0.3772 -0.0271
  175SOPE    C119850   2.582   2.657  10.451 -0.1383 -1.0193 -0.3683
  175SOPE    HA19851   2.682   2.612  10.432  0.3918 -1.7071  3.2144
  175SOPE    HB19852   2.590   2.764  10.425  1.1951 -1.1807 -0.7081
  175SOPE    C219853   2.468   2.588  10.366 -0.2565  0.1466 -0.4191
  175SOPE    HS19854   2.472   2.479  10.387  0.8552  0.2528 -0.0228
  175SOPE   O2119855   2.491   2.606  10.221 -0.0228  0.6440 -0.6411
  175SOPE   C2119856   2.453   2.502  10.143  0.4384 -0.0877  0.0655
  175SOPE   O2219857   2.412   2.398  10.186 -0.1600  0.1288 -0.7237
  175SOPE   C2219858   2.442   2.543   9.997  0.3176  0.0270 -1.0661
  175SOPE   H2R19859   2.542   2.580   9.965  2.0187 -1.4208  2.0980
  175SOPE   H2S19860   2.371   2.627   9.981  0.0605 -0.2001 -1.1153
  175SOPE    C319861   2.331   2.639  10.409 -0.1850 -0.1998 -0.1625
  175SOPE    HX19862   2.328   2.749  10.398 -1.6830 -0.4102 -2.5980
  175SOPE    HY19863   2.325   2.625  10.519 -0.2319  0.7500 -0.0373
  175SOPE   O3119864   2.212   2.586  10.344 -0.3066  0.2182  0.5936
  175SOPE   C3119865   2.098   2.639  10.371 -0.2127  0.6515 -0.0341
  175SOPE   O3219866   2.069   2.724  10.456  0.1398  0.6978  0.2192
  175SOPE   C3219867   1.993   2.581  10.279  0.2049 -0.0391 -0.1261
  175SOPE   H2X19868   1.890   2.613  10.307  0.0749  0.0767 -0.7088
  175SOPE   H2Y19869   1.997   2.470  10.290 -1.2749  0.0232  1.4219
  175SOPE   C2319870   2.396   2.427   9.909 -0.2439 -0.6324  0.6725
  175SOPE   H3R19871   2.314   2.378   9.966  0.0623  0.1677  1.8436
  175SOPE   H3S19872   2.482   2.357   9.897 -0.4256 -0.7551  0.0774
  175SOPE   C2419873   2.364   2.481   9.769  0.4231 -0.4206 -0.4441
  175SOPE   H4R19874   2.269   2.537   9.784 -0.7328 -2.3743 -0.0991
  175SOPE   H4S19875   2.451   2.544   9.743  0.0220 -0.3110 -1.5660
  175SOPE   C2519876   2.335   2.369   9.668 -1.0681  0.3460 -0.5105
  175SOPE   H5R19877   2.427   2.307   9.665 -0.4381  1.2588 -0.7227
  175SOPE   H5S19878   2.257   2.305   9.713  0.1272 -0.0171  1.1167
  175SOPE   C2619879   2.295   2.422   9.525 -0.4999  0.0112  0.5739
  175SOPE   H6R19880   2.186   2.443   9.529 -0.3090  1.3091 -0.4305
  175SOPE   H6S19881   2.339   2.523   9.509 -1.9326  0.3809 -1.3601
  175SOPE   C2719882   2.328   2.319   9.410  0.1110 -1.0839  0.0232
  175SOPE   H7R19883   2.436   2.296   9.407  0.1031 -1.1334  0.1061
  175SOPE   H7S19884   2.275   2.226   9.441 -0.2886 -0.7076  0.4964
  175SOPE   C2819885   2.299   2.378   9.270  0.5348 -0.1610 -0.8294
  175SOPE   H8R19886   2.334   2.482   9.288  0.5569 -0.1701 -0.8194
  175SOPE   H8S19887   2.369   2.334   9.196  2.8181 -0.4929  1.3986
  175SOPE   C2919888   2.157   2.359   9.249 -0.2779 -0.5672 -0.2153
  175SOPE   H9119889   2.096   2.392   9.334  0.0141 -2.4376  0.7770
  175SOPE  C21019890   2.093   2.303   9.145 -0.8741  0.5920  0.0963
  175SOPE  H10119891   1.984   2.289   9.153 -0.6155 -1.3924  0.5915
  175SOPE  C21119892   2.165   2.248   9.022 -0.0862 -0.2360 -0.2617
  175SOPE  H11R19893   2.154   2.138   9.019 -1.6512 -0.0866 -1.8187
  175SOPE  H11S19894   2.274   2.271   9.020 -0.1309 -0.0725 -1.3251
  175SOPE  C21219895   2.103   2.298   8.895  0.6866  0.7301  0.0871
  175SOPE  H12R19896   2.108   2.409   8.890  0.7732  0.6764 -2.8068
  175SOPE  H12S19897   1.996   2.269   8.895 -0.2536  3.6206  2.9604
  175SOPE  C21319898   2.167   2.243   8.768 -0.7427  0.0431  0.1794
  175SOPE  H13R19899   2.273   2.273   8.774 -0.4689 -1.1618  2.1721
  175SOPE  H13S19900   2.116   2.296   8.684  0.3388  1.5663  0.4415
  175SOPE  C21419901   2.172   2.095   8.738 -0.0534  0.0924 -0.2712
  175SOPE  H14R19902   2.066   2.062   8.738  0.8704 -3.2915 -1.7034
  175SOPE  H14S19903   2.219   2.034   8.818 -0.9586  2.0135  1.8368
  175SOPE  C21519904   2.237   2.063   8.606 -0.4238 -0.1405  0.6597
  175SOPE  H15R19905   2.346   2.083   8.602 -0.3853 -0.4537 -0.1481
  175SOPE  H15S19906   2.183   2.128   8.533 -0.4380 -1.3317 -0.4323
  175SOPE  C21619907   2.232   1.911   8.561 -1.0690  0.1670  0.5807
  175SOPE  H16R19908   2.130   1.878   8.534 -0.8086  0.2738 -0.5487
  175SOPE  H16S19909   2.252   1.845   8.649 -1.2028 -1.2128 -0.3960
  175SOPE  C21719910   2.330   1.885   8.450 -0.5073 -0.5120 -0.3152
  175SOPE  H17R19911   2.438   1.906   8.470 -0.4387 -0.8953 -0.2686
  175SOPE  H17S19912   2.296   1.959   8.375 -0.3141 -0.3410 -0.2374
  175SOPE  C21819913   2.300   1.752   8.391 -0.4639  0.4068 -0.0473
  175SOPE  H18R19914   2.192   1.736   8.370 -0.0478 -1.8482 -0.7804
  175SOPE  H18S19915   2.316   1.679   8.473 -1.0061 -0.8220 -0.9912
  175SOPE  H18T19916   2.364   1.716   8.307 -1.5729 -0.1620 -0.6661
  175SOPE   C3319917   2.035   2.621  10.134  0.4403  0.0061 -0.7648
  175SOPE   H3X19918   2.123   2.560  10.104  0.1791 -0.7422 -0.0377
  175SOPE   H3Y19919   2.050   2.731  10.125 -0.2520 -0.0635 -3.8053
  175SOPE   C3419920   1.929   2.565  10.040  0.2598  0.3355  0.7917
  175SOPE   H4X19921   1.837   2.626  10.027  1.1082  1.4934 -0.0312
  175SOPE   H4Y19922   1.888   2.466  10.070 -2.8706  1.2613 -0.0246
  175SOPE   C3519923   1.976   2.562   9.893  0.2221  0.3066 -0.0060
  175SOPE   H5X19924   2.067   2.499   9.888  2.7572  3.8168 -1.3348
  175SOPE   H5Y19925   2.007   2.662   9.859 -0.4196  0.9743  1.2654
  175SOPE   C3619926   1.855   2.529   9.800  0.2219  0.5747 -0.1910
  175SOPE   H6X19927   1.778   2.604   9.827  1.2628  1.5194  0.2816
  175SOPE   H6Y19928   1.813   2.433   9.835  0.3531  0.6087  0.0666
  175SOPE   C3719929   1.890   2.542   9.651 -0.0019  0.4173 -0.0510
  175SOPE   H7X19930   1.962   2.461   9.628 -0.2229  0.4381 -0.8355
  175SOPE   H7Y19931   1.946   2.636   9.630  0.8323  0.0160  0.3245
  175SOPE   C3819932   1.771   2.534   9.553 -0.1313 -0.1741 -0.8972
  175SOPE   H8X19933   1.691   2.611   9.561  0.8820  0.7402  1.3690
  175SOPE   H8Y19934   1.729   2.432   9.562 -0.0403 -0.0388  1.5999
  175SOPE   C3919935   1.822   2.546   9.411  0.3328 -0.8495  0.3638
  175SOPE   H9X19936   1.903   2.473   9.391  0.8946 -0.8048  2.2764
  175SOPE   H9Y19937   1.858   2.651   9.410 -0.6449 -0.5014 -0.5495
  175SOPE  C31019938   1.717   2.536   9.302  0.0916  0.1299  0.1087
  175SOPE  H10X19939   1.636   2.610   9.317 -1.0369 -1.0773  0.0804
  175SOPE  H10Y19940   1.681   2.431   9.304  1.0304 -0.2000  0.4430
  175SOPE  C31119941   1.776   2.584   9.165  0.0035 -0.3461  0.8426
  175SOPE  H11X19942   1.880   2.544   9.167 -0.0545 -0.6836 -0.9250
  175SOPE  H11Y19943   1.789   2.694   9.155  2.1309 -0.3530  2.6052
  175SOPE  C31219944   1.708   2.539   9.033 -0.0458 -0.4653 -0.0308
  175SOPE  H12X19945   1.632   2.619   9.014 -0.9410  0.4189  5.5672
  175SOPE  H12Y19946   1.663   2.439   9.018  0.3428 -0.3751 -2.1965
  175SOPE  C31319947   1.813   2.540   8.924  0.1378  0.4778 -0.1818
  175SOPE  H13X19948   1.855   2.437   8.917 -0.9131 -0.1316  1.6811
  175SOPE  H13Y19949   1.890   2.620   8.933 -0.8036  1.1847  2.2598
  175SOPE  C31419950   1.745   2.565   8.784 -0.5630 -0.3950  0.9364
  175SOPE  H14X19951   1.696   2.665   8.786  0.6301  0.2634 -0.4197
  175SOPE  H14Y19952   1.659   2.497   8.771  0.0164 -1.1124  0.7781
  175SOPE  C31519953   1.844   2.557   8.664  0.4021 -0.5147  0.1837
  175SOPE  H15X19954   1.783   2.529   8.575  2.2800  1.8109 -1.9752
  175SOPE  H15Y19955   1.909   2.469   8.683 -1.5763 -2.1205 -0.1465
  175SOPE  C31619956   1.935   2.678   8.637 -0.0425  0.2147 -0.2192
  175SOPE  H16X19957   2.008   2.692   8.719  0.6655 -0.6946 -0.6760
  175SOPE  H16Y19958   1.876   2.772   8.635  0.4448  0.5732  1.1417
  175SOPE  C31719959   2.006   2.666   8.504 -0.3006 -0.3698 -0.0039
  175SOPE  H17X19960   2.064   2.758   8.481 -0.0347 -0.7374 -0.8558
  175SOPE  H17Y19961   1.928   2.651   8.425  1.9295 -0.6912 -2.2670
  175SOPE  C31819962   2.088   2.532   8.493 -0.2189  0.2339 -0.3329
  175SOPE  H18X19963   2.028   2.440   8.512  1.2153 -0.9561 -1.2800
  175SOPE  H18Y19964   2.182   2.527   8.553 -0.2548 -2.2379 -0.3623
  175SOPE  H18Z19965   2.123   2.530   8.387  3.6344  3.4145  0.6328
  176SOPE     N19966   1.957   2.188  11.112 -0.4872 -0.6829 -0.2923
  176SOPE   HN119967   1.987   2.088  11.112 -0.8002 -0.8140 -2.0247
  176SOPE   HN219968   2.017   2.245  11.175 -2.0050  2.0613 -1.1739
  176SOPE   HN319969   1.859   2.190  11.148 -0.7686 -0.8556 -1.0363
  176SOPE   C1219970   1.970   2.243  10.972  0.0904  0.1819 -0.2093
  176SOPE  H12A19971   2.049   2.188  10.915 -1.8931 -1.2097 -1.7437
  176SOPE  H12B19972   1.995   2.351  10.971 -1.5905  0.6128  1.0188
  176SOPE   C1119973   1.838   2.234  10.899 -0.4442 -0.1013 -0.4711
  176SOPE  H11A19974   1.822   2.125  10.883 -0.9064  0.2994 -3.2986
  176SOPE  H11B19975   1.843   2.293  10.805  1.1590  0.1945 -0.2332
  176SOPE     P19976   1.644   2.401  10.967 -0.0760  0.1712 -0.0772
  176SOPE   O1319977   1.716   2.527  10.922  0.1623  0.4758  0.1882
  176SOPE   O1419978   1.538   2.401  11.077  0.7896 -0.1984  0.2769
  176SOPE   O1219979   1.738   2.283  10.990 -0.1760  0.3200 -0.2773
  176SOPE   O1119980   1.575   2.352  10.839  0.2231  0.9251  0.1506
  176SOPE    C119981   1.488   2.232  10.844  0.5765  0.4916  0.0093
  176SOPE    HA19982   1.394   2.236  10.904 -0.4785  0.0101 -1.5600
  176SOPE    HB19983   1.547   2.144  10.877 -0.0614 -1.1988 -2.9821
  176SOPE    C219984   1.460   2.198  10.691  0.5244  0.4877  1.0170
  176SOPE    HS19985   1.552   2.223  10.634 -0.5385  1.9627 -0.1336
  176SOPE   O2119986   1.355   2.281  10.652 -0.0470 -0.0324  0.8757
  176SOPE   C2119987   1.349   2.294  10.513 -0.4395 -0.9097  0.1776
  176SOPE   O2219988   1.442   2.278  10.436 -0.2814 -0.8803  0.4367
  176SOPE   C2219989   1.199   2.322  10.476 -0.2889 -0.9596 -0.1705
  176SOPE   H2R19990   1.188   2.428  10.447 -0.3341 -1.0118 -0.3434
  176SOPE   H2S19991   1.141   2.300  10.568 -0.1163  0.8496  0.4053
  176SOPE    C319992   1.419   2.044  10.674  0.0237 -0.0558 -0.8373
  176SOPE    HX19993   1.333   2.011  10.737  0.5257  0.9926  0.4495
  176SOPE    HY19994   1.511   1.996  10.712 -1.3326 -1.9211  0.2673
  176SOPE   O3119995   1.387   2.010  10.532 -0.0044 -0.1807 -1.1896
  176SOPE   C3119996   1.488   1.992  10.460  0.4804 -0.0588  0.8575
  176SOPE   O3219997   1.606   1.991  10.494 -0.4719 -0.7487  0.2250
  176SOPE   C3219998   1.438   1.927  10.333  0.1902  0.5015  0.7254
  176SOPE   H2X19999   1.349   1.982  10.296  0.0307 -0.7360 -0.8186
  176SOPE   H2Y20000   1.403   1.826  10.360  0.0175  0.6026  0.8797
  176SOPE   C2320001   1.137   2.231  10.375 -0.4289  0.1785  0.7915
  176SOPE   H3R20002   1.026   2.241  10.378 -0.8853 -2.0574 -2.7436
  176SOPE   H3S20003   1.174   2.127  10.385  1.2788  0.6499 -0.2732
  176SOPE   C2420004   1.165   2.282  10.227  0.6516 -0.1023  0.5187
  176SOPE   H4R20005   1.140   2.391  10.223  0.6811 -0.0481  1.5062
  176SOPE   H4S20006   1.271   2.256  10.207  0.8214  0.7009  0.3316
  176SOPE   C2520007   1.070   2.215  10.125  0.7892 -0.0285 -0.0415
  176SOPE   H5R20008   1.065   2.110  10.163 -1.2021  0.7861  2.1974
  176SOPE   H5S20009   0.973   2.262  10.152  0.7098 -0.3252  0.2081
  176SOPE   C2620010   1.116   2.220   9.977  0.1899 -0.5647 -0.0744
  176SOPE   H6R20011   1.139   2.325   9.949 -1.6012 -0.6255 -2.0202
  176SOPE   H6S20012   1.212   2.167   9.967  1.4416  1.7198 -0.8038
  176SOPE   C2720013   1.012   2.150   9.894 -0.6120  0.2378 -0.1756
  176SOPE   H7R20014   0.989   2.049   9.935  1.2863 -0.6782 -1.1900
  176SOPE   H7S20015   0.922   2.214   9.906 -2.6408 -2.4351 -0.1031
  176SOPE   C2820016   1.060   2.142   9.745  0.4479  0.0130  0.1139
  176SOPE   H8R20017   0.965   2.106   9.702  0.1775  1.6984 -0.7725
  176SOPE   H8S20018   1.084   2.239   9.697  1.2234 -0.6311 -0.8659
  176SOPE   C2920019   1.171   2.046   9.709 -0.2325  0.2907  0.5761
  176SOPE   H9120020   1.241   2.034   9.793 -0.1477  1.1864  0.6385
  176SOPE  C21020021   1.192   1.992   9.587 -0.5402 -0.4238 -0.8044
  176SOPE  H10120022   1.275   1.919   9.582  0.0268  0.1025  0.4215
  176SOPE  C21120023   1.109   1.996   9.462 -0.7809 -0.8382 -0.1249
  176SOPE  H11R20024   1.174   2.032   9.380  0.5458 -1.0427  0.8049
  176SOPE  H11S20025   1.031   2.075   9.472  0.8458  0.6009  2.3366
  176SOPE  C21220026   1.039   1.861   9.409 -0.3272 -1.3792 -0.2472
  176SOPE  H12R20027   0.956   1.886   9.340 -1.3801 -0.3030  1.3462
  176SOPE  H12S20028   0.993   1.806   9.495  0.4585 -2.5101 -0.5323
  176SOPE  C21320029   1.137   1.779   9.338 -0.6509 -0.2037 -0.3372
  176SOPE  H13R20030   1.214   1.739   9.408  0.3170 -0.0293 -1.2747
  176SOPE  H13S20031   1.196   1.848   9.274 -2.5597  2.7552  0.8868
  176SOPE  C21420032   1.093   1.658   9.260  0.2336  0.4628 -0.2267
  176SOPE  H14R20033   1.004   1.683   9.198 -0.7471 -1.3897  0.3534
  176SOPE  H14S20034   1.053   1.590   9.339  0.7492  1.0672  0.5573
  176SOPE  C21520035   1.202   1.585   9.186  0.1034  0.4916  0.3082
  176SOPE  H15R20036   1.173   1.484   9.150  1.6562  0.1494 -0.0510
  176SOPE  H15S20037   1.287   1.563   9.254  0.8254 -2.5557 -1.3830
  176SOPE  C21620038   1.258   1.670   9.066  0.3310 -0.4133 -0.4290
  176SOPE  H16R20039   1.343   1.615   9.021  0.7489 -0.1357  0.0192
  176SOPE  H16S20040   1.308   1.764   9.098  3.6786 -1.8849 -0.9496
  176SOPE  C21720041   1.150   1.686   8.958 -0.5190 -0.3545  0.1637
  176SOPE  H17R20042   1.051   1.715   8.998  0.0059  2.5669 -0.4680
  176SOPE  H17S20043   1.127   1.582   8.924 -1.2606 -0.8056  1.9384
  176SOPE  C21820044   1.193   1.767   8.837 -0.1388  0.0146 -0.2526
  176SOPE  H18R20045   1.283   1.717   8.797 -1.0224 -0.4740 -1.7035
  176SOPE  H18S20046   1.202   1.877   8.852  0.5899 -0.2078  1.0876
  176SOPE  H18T20047   1.121   1.743   8.755  0.5329  0.9504 -1.1466
  176SOPE   C3320048   1.547   1.906  10.224  0.4463  0.2605 -0.4106
  176SOPE   H3X20049   1.616   1.821  10.245  0.4217 -0.1791 -1.9815
  176SOPE   H3Y20050   1.611   1.996  10.218 -0.1892  0.8135  0.7865
  176SOPE   C3420051   1.486   1.873  10.085  0.1102  0.3043 -0.0414
  176SOPE   H4X20052   1.409   1.946  10.052 -1.1707 -2.0247 -2.6628
  176SOPE   H4Y20053   1.432   1.776  10.092 -0.5448  0.7572  3.3020
  176SOPE   C3520054   1.589   1.860   9.973 -0.7037  0.0564  0.1451
  176SOPE   H5X20055   1.663   1.780   9.995 -0.2640  1.2085  3.3803
  176SOPE   H5Y20056   1.641   1.951   9.937  4.3382 -1.7503  1.9383
  176SOPE   C3620057   1.508   1.804   9.850  0.2819  0.4429  0.1479
  176SOPE   H6X20058   1.440   1.886   9.820  0.1943  0.6341  0.8587
  176SOPE   H6Y20059   1.447   1.718   9.885  0.6252  0.4913  0.8854
  176SOPE   C3720060   1.606   1.766   9.733  0.7838 -0.3568  0.6294
  176SOPE   H7X20061   1.686   1.705   9.781  0.1876 -1.0576  0.7510
  176SOPE   H7Y20062   1.643   1.863   9.692  2.4736 -0.4749  1.7240
  176SOPE   C3820063   1.544   1.680   9.617 -0.3541 -0.8760 -0.0516
  176SOPE   H8X20064   1.446   1.720   9.584 -2.0358 -1.8851  3.2486
  176SOPE   H8Y20065   1.515   1.579   9.653 -2.0731 -0.5004 -0.3351
  176SOPE   C3920066   1.634   1.660   9.491 -0.2929  0.1956  0.5915
  176SOPE   H9X20067   1.718   1.600   9.533  0.8497 -1.1263 -3.1480
  176SOPE   H9Y20068   1.682   1.757   9.467 -2.5330  2.2530  3.7386
  176SOPE  C31020069   1.577   1.587   9.367  0.0640 -0.4539 -0.3439
  176SOPE  H10X20070   1.480   1.634   9.339  0.0414  1.8159  2.9378
  176SOPE  H10Y20071   1.562   1.481   9.396  0.8777 -1.1617 -2.3750
  176SOPE  C31120072   1.669   1.600   9.244 -0.1166  0.0418 -0.1241
  176SOPE  H11X20073   1.763   1.550   9.277  0.7348  0.7699 -1.3606
  176SOPE  H11Y20074   1.692   1.705   9.215  0.2840 -0.3667 -1.3371
  176SOPE  C31220075   1.621   1.507   9.126  0.2937 -0.4211 -0.4289
  176SOPE  H12X20076   1.519   1.541   9.096  0.8299  2.5893  0.7762
  176SOPE  H12Y20077   1.615   1.405   9.169 -0.2606 -0.8016 -1.3669
  176SOPE  C31320078   1.714   1.521   9.002 -0.1767  0.0678 -0.1167
  176SOPE  H13X20079   1.814   1.479   9.026  0.8192  0.9636 -2.3706
  176SOPE  H13Y20080   1.741   1.629   8.996  1.4668 -0.2089  1.4603
  176SOPE  C31420081   1.653   1.486   8.866  0.1888  0.2259  0.4404
  176SOPE  H14X20082   1.547   1.520   8.862 -0.3648 -1.3958  0.5925
  176SOPE  H14Y20083   1.660   1.377   8.845  1.3757  0.3154  0.2851
  176SOPE  C31520084   1.729   1.546   8.747  0.5211 -0.1713  0.4829
  176SOPE  H15X20085   1.711   1.655   8.734  0.5159 -0.0007  1.7563
  176SOPE  H15Y20086   1.682   1.495   8.660 -0.6950  1.4075  0.1625
  176SOPE  C31620087   1.881   1.528   8.751 -0.3777 -0.1844  0.1798
  176SOPE  H16X20088   1.902   1.419   8.752 -0.3814 -0.2123 -1.2978
  176SOPE  H16Y20089   1.917   1.573   8.846 -2.6408  0.0611  0.9788
  176SOPE  C31720090   1.955   1.574   8.620 -0.4063  0.4147  0.0653
  176SOPE  H17X20091   1.975   1.682   8.635  3.5869 -0.0688 -0.7310
  176SOPE  H17Y20092   1.890   1.565   8.530 -1.2516 -1.5186  0.8127
  176SOPE  C31820093   2.087   1.503   8.614  0.1551  0.1571  0.0019
  176SOPE  H18X20094   2.149   1.543   8.531  0.8068  1.3895  1.0405
  176SOPE  H18Y20095   2.078   1.393   8.622  2.3845  0.0121  1.3484
  176SOPE  H18Z20096   2.139   1.534   8.707  1.9818 -0.2841 -0.8322
  177SOPE     N20097   1.031   6.297  10.907 -0.0006 -0.5038 -1.0061
  177SOPE   HN120098   1.084   6.209  10.890 -2.8804 -2.3955 -0.9449
  177SOPE   HN220099   0.943   6.291  10.851 -0.9502 -0.8897  0.4695
  177SOPE   HN320100   1.078   6.385  10.878 -1.6166  0.6827 -0.2180
  177SOPE   C1220101   0.995   6.306  11.060  0.2094  0.4534  0.1379
  177SOPE  H12A20102   1.094   6.305  11.110  0.2200 -1.4798  0.1470
  177SOPE  H12B20103   0.943   6.210  11.081 -0.0425  0.7420  0.8837
  177SOPE   C1120104   0.900   6.430  11.072  0.4753 -0.0606 -0.0473
  177SOPE  H11A20105   0.954   6.512  11.020  0.3075  2.8313  3.8974
  177SOPE  H11B20106   0.899   6.435  11.183  0.9938 -1.1260  0.0228
  177SOPE     P20107   0.644   6.462  11.079 -0.2711  0.0082  0.0744
  177SOPE   O1320108   0.651   6.607  11.100 -0.2082  0.4035 -0.0454
  177SOPE   O1420109   0.618   6.382  11.201  0.2674  0.7584  0.1207
  177SOPE   O1220110   0.774   6.408  11.010 -0.0484  0.3404 -0.3871
  177SOPE   O1120111   0.536   6.425  10.972 -0.1943  0.1916 -0.3372
  177SOPE    C120112   0.510   6.503  10.856  0.2868  0.1081  0.5601
  177SOPE    HA20113   0.491   6.608  10.885 -0.2585 -0.3126  1.7713
  177SOPE    HB20114   0.420   6.458  10.809 -0.3584  1.3592  0.5764
  177SOPE    C220115   0.621   6.491  10.741  0.2809  0.3432  0.0705
  177SOPE    HS20116   0.724   6.502  10.782  0.7747 -1.3575 -0.6468
  177SOPE   O2120117   0.592   6.593  10.651 -0.6196  0.3196  0.3742
  177SOPE   C2120118   0.696   6.651  10.597 -0.0413  0.2212  0.2091
  177SOPE   O2220119   0.814   6.624  10.617 -0.8301  0.3155 -0.0633
  177SOPE   C2220120   0.643   6.761  10.507  0.3604 -0.4425  0.6560
  177SOPE   H2R20121   0.732   6.812  10.465  1.1104  0.5359  3.2493
  177SOPE   H2S20122   0.605   6.830  10.585  0.9706  0.6887 -0.0198
  177SOPE    C320123   0.613   6.356  10.668 -0.8297 -0.1158  0.0810
  177SOPE    HX20124   0.511   6.357  10.624 -0.5852 -0.9608 -0.5267
  177SOPE    HY20125   0.633   6.275  10.742 -1.0839 -1.2894 -1.1112
  177SOPE   O3120126   0.699   6.353  10.555  0.0289  0.0504  0.6450
  177SOPE   C3120127   0.826   6.307  10.585 -0.1685  0.3104 -0.0208
  177SOPE   O3220128   0.870   6.284  10.691 -0.1000  0.1411 -0.1123
  177SOPE   C3220129   0.912   6.283  10.456  0.4024 -0.0661  0.1764
  177SOPE   H2X20130   0.995   6.214  10.482 -0.4905 -0.9437  0.7604
  177SOPE   H2Y20131   0.924   6.389  10.427 -4.0504  0.3068 -0.9912
  177SOPE   C2320132   0.542   6.717  10.398 -0.3336 -0.3468 -0.2828
  177SOPE   H3R20133   0.448   6.674  10.439 -0.4777 -1.1790 -1.4441
  177SOPE   H3S20134   0.585   6.633  10.341  0.6262  0.2719 -0.5048
  177SOPE   C2420135   0.507   6.827  10.292 -0.0414  0.5417 -0.0331
  177SOPE   H4R20136   0.597   6.842  10.229  1.5226  0.0636  2.0156
  177SOPE   H4S20137   0.433   6.785  10.220  1.3361  0.1811 -1.2811
  177SOPE   C2520138   0.459   6.960  10.346  0.1738 -0.4533  0.2566
  177SOPE   H5R20139   0.385   6.954  10.429 -0.0685 -0.0004  0.0796
  177SOPE   H5S20140   0.547   7.024  10.371 -0.0226  1.0752 -2.5356
  177SOPE   C2620141   0.385   7.053  10.252  0.3862 -0.6785  0.8898
  177SOPE   H6R20142   0.453   7.083  10.170 -0.9183 -0.8910 -0.3173
  177SOPE   H6S20143   0.309   6.987  10.204  0.1615  0.6162 -0.6560
  177SOPE   C2720144   0.326   7.173  10.319  0.6132 -0.4208  0.2635
  177SOPE   H7R20145   0.240   7.148  10.385  0.2488 -1.2388 -0.4944
  177SOPE   H7S20146   0.401   7.214  10.390 -0.2553 -1.5798  1.9130
  177SOPE   C2820147   0.275   7.278  10.219  0.5875  0.3039  0.1909
  177SOPE   H8R20148   0.226   7.358  10.277 -0.3395  0.3155 -0.5823
  177SOPE   H8S20149   0.367   7.317  10.170 -1.4430  2.4284 -2.2290
  177SOPE   C2920150   0.167   7.222  10.132 -0.2162 -0.6301 -0.2271
  177SOPE   H9120151   0.110   7.142  10.181 -0.5601 -1.7512 -2.3628
  177SOPE  C21020152   0.161   7.238  10.000  0.7081 -0.3544  0.7947
  177SOPE  H10120153   0.078   7.189   9.947  0.3657  0.6327  0.3953
  177SOPE  C21120154   0.240   7.335   9.923 -0.7247  0.5688 -0.0617
  177SOPE  H11R20155   0.351   7.326   9.934 -0.8213 -0.1349  0.4417
  177SOPE  H11S20156   0.215   7.435   9.965 -2.3290 -0.7670  2.4238
  177SOPE  C21220157   0.205   7.337   9.776 -0.0315 -0.7095 -0.1767
  177SOPE  H12R20158   0.227   7.441   9.745  1.5191 -0.6361  1.0514
  177SOPE  H12S20159   0.096   7.323   9.761  0.1236  0.4269 -3.0865
  177SOPE  C21320160   0.284   7.244   9.682 -0.5180 -1.1055 -0.4266
  177SOPE  H13R20161   0.283   7.141   9.724  0.6538 -0.6816  0.7300
  177SOPE  H13S20162   0.386   7.286   9.669 -0.8402 -0.4805 -1.0152
  177SOPE  C21420163   0.206   7.239   9.550  0.1333  0.2514 -0.4045
  177SOPE  H14R20164   0.187   7.344   9.519  0.1809  0.4841  0.3496
  177SOPE  H14S20165   0.108   7.196   9.578  1.5394 -1.0124  3.1811
  177SOPE  C21520166   0.270   7.150   9.444 -0.3515 -0.1148 -0.3120
  177SOPE  H15R20167   0.187   7.116   9.379 -0.1568  2.2506 -1.9139
  177SOPE  H15S20168   0.311   7.055   9.483  0.3707 -0.8082 -2.5747
  177SOPE  C21620169   0.360   7.231   9.355  0.5965  0.4434  0.3148
  177SOPE  H16R20170   0.433   7.290   9.415  1.2039 -2.0007  2.1415
  177SOPE  H16S20171   0.299   7.303   9.298 -0.7079 -0.9697 -0.1304
  177SOPE  C21720172   0.436   7.153   9.247 -0.2074  0.0066 -0.7196
  177SOPE  H17R20173   0.509   7.097   9.309  0.1863  1.2353 -0.0259
  177SOPE  H17S20174   0.489   7.230   9.187  3.1907  0.6338  2.6471
  177SOPE  C21820175   0.364   7.049   9.164 -0.4105  0.1890 -0.1679
  177SOPE  H18R20176   0.436   6.972   9.128 -0.2930  0.3748 -0.3357
  177SOPE  H18S20177   0.324   7.100   9.074 -1.5304 -0.5484 -0.1033
  177SOPE  H18T20178   0.280   6.996   9.214 -1.9739  2.3299 -0.3678
  177SOPE   C3320179   0.845   6.235  10.330  0.0640 -0.7181 -0.2193
  177SOPE   H3X20180   0.764   6.304  10.300  1.8920  2.2540  1.2083
  177SOPE   H3Y20181   0.797   6.135  10.338 -0.7775 -0.2332  1.0863
  177SOPE   C3420182   0.942   6.234  10.214 -0.3555 -0.2742 -0.1280
  177SOPE   H4X20183   1.011   6.147  10.221  1.1799  0.6370 -2.4567
  177SOPE   H4Y20184   1.001   6.328  10.209 -1.0601  0.1241 -1.1983
  177SOPE   C3520185   0.860   6.226  10.091 -0.3063 -0.3926 -0.1371
  177SOPE   H5X20186   0.816   6.325  10.068 -2.7809 -0.7002  2.6922
  177SOPE   H5Y20187   0.773   6.158  10.103 -1.6126  1.3173  0.3451
  177SOPE   C3620188   0.939   6.195   9.961 -0.3271 -0.1401 -0.4272
  177SOPE   H6X20189   0.999   6.102   9.960  1.8146  1.1478  0.2780
  177SOPE   H6Y20190   1.017   6.275   9.960  1.3151 -1.6545 -1.7592
  177SOPE   C3720191   0.851   6.205   9.835 -0.2395  0.0947 -0.1380
  177SOPE   H7X20192   0.784   6.293   9.838 -0.5742 -0.1752  0.3661
  177SOPE   H7Y20193   0.780   6.121   9.844 -1.3290  0.9057 -0.9236
  177SOPE   C3820194   0.936   6.206   9.712  0.1663 -0.0143  0.2029
  177SOPE   H8X20195   1.000   6.115   9.716  0.1700 -0.2685 -2.9591
  177SOPE   H8Y20196   1.010   6.288   9.716  0.1457 -0.0543  2.1491
  177SOPE   C3920197   0.860   6.181   9.579 -0.1922  0.0240 -0.3254
  177SOPE   H9X20198   0.785   6.262   9.575  0.7613  0.8876 -2.7635
  177SOPE   H9Y20199   0.805   6.084   9.573 -1.3940  0.7461 -1.4198
  177SOPE  C31020200   0.947   6.201   9.456 -0.0466 -0.2502  0.1375
  177SOPE  H10X20201   1.005   6.108   9.438 -1.0783 -1.1555  1.3189
  177SOPE  H10Y20202   1.021   6.282   9.472 -0.0222 -0.5087  1.4058
  177SOPE  C31120203   0.876   6.233   9.320 -0.2397 -0.0629  0.1203
  177SOPE  H11X20204   0.814   6.323   9.337 -0.2175  0.4563 -2.2809
  177SOPE  H11Y20205   0.798   6.161   9.289  0.8582 -1.0117 -0.5295
  177SOPE  C31220206   0.975   6.256   9.205  0.0266 -0.7543 -0.4078
  177SOPE  H12X20207   1.012   6.152   9.191 -3.9601 -2.5198  0.7524
  177SOPE  H12Y20208   1.060   6.321   9.235  1.7524 -3.1823  0.3791
  177SOPE  C31320209   0.908   6.311   9.082  0.1847 -0.0523  0.3179
  177SOPE  H13X20210   0.873   6.416   9.083  1.4110  0.5706 -3.5069
  177SOPE  H13Y20211   0.819   6.247   9.064 -0.6658  1.1158  0.2997
  177SOPE  C31420212   1.007   6.300   8.966  0.7423  0.3101 -0.3341
  177SOPE  H14X20213   1.042   6.195   8.952  2.0338  0.8361 -1.2717
  177SOPE  H14Y20214   1.099   6.361   8.981 -0.3879  1.6628  1.4452
  177SOPE  C31520215   0.952   6.358   8.836  0.0171  0.5780  0.6125
  177SOPE  H15X20216   0.955   6.468   8.853 -0.3652  0.8843 -1.1104
  177SOPE  H15Y20217   0.847   6.326   8.822 -0.2286  1.3860  0.5311
  177SOPE  C31620218   1.044   6.335   8.714  0.3595 -0.7405  0.1179
  177SOPE  H16X20219   1.146   6.350   8.756  0.1587  0.0358  0.3449
  177SOPE  H16Y20220   1.016   6.414   8.640  1.4681  1.8227  2.2502
  177SOPE  C31720221   1.023   6.200   8.647 -0.8791 -0.2975  0.2947
  177SOPE  H17X20222   0.920   6.178   8.614 -0.1157  0.5745 -3.0438
  177SOPE  H17Y20223   1.057   6.125   8.722  2.2853 -0.5294 -1.2182
  177SOPE  C31820224   1.108   6.188   8.521 -0.2667  0.2334  0.1967
  177SOPE  H18X20225   1.214   6.172   8.550 -0.3615 -0.3098  0.2501
  177SOPE  H18Y20226   1.104   6.282   8.462 -2.3460 -0.4869 -0.9264
  177SOPE  H18Z20227   1.070   6.101   8.463 -1.3009  1.8963 -1.7881
  178SOPE     N20228   3.975   0.095  10.919  0.2183 -0.3666  0.6530
  178SOPE   HN120229   3.993  -0.007  10.918  0.5223 -0.3075  0.0152
  178SOPE   HN220230   3.890   0.122  10.973  0.1461  0.4514  0.1435
  178SOPE   HN320231   3.961   0.128  10.822 -1.2459  0.7431  1.1885
  178SOPE   C1220232   4.102   0.159  10.980 -0.4620 -0.2471  0.1104
  178SOPE  H12A20233   4.113   0.136  11.088  0.6468  3.4039  0.8953
  178SOPE  H12B20234   4.090   0.268  10.968 -2.7881 -0.3760  0.7049
  178SOPE   C1120235   4.232   0.121  10.894  0.7701  0.8091 -0.3393
  178SOPE  H11A20236   4.327   0.136  10.949 -0.0424  0.6542  1.1600
  178SOPE  H11B20237   4.239   0.186  10.804 -1.3514 -0.9036 -1.8444
  178SOPE     P20238   4.309  -0.134  10.876  0.0241 -0.2031 -0.1087
  178SOPE   O1320239   4.248  -0.269  10.867 -0.5668 -0.5842  0.4564
  178SOPE   O1420240   4.386  -0.105  10.998 -0.4454 -0.0858 -0.4974
  178SOPE   O1220241   4.212  -0.012  10.841 -0.1245 -0.0537  0.0648
  178SOPE   O1120242   4.412  -0.117  10.758  0.4542  0.3003  0.2006
  178SOPE    C120243   4.389  -0.144  10.616 -0.2622  0.0263 -0.2605
  178SOPE    HA20244   4.471  -0.100  10.555  1.4776 -0.2314  1.7936
  178SOPE    HB20245   4.294  -0.094  10.586  0.2321  0.7747 -0.6418
  178SOPE    C220246   4.385  -0.289  10.575 -0.5085 -0.3650 -0.1727
  178SOPE    HS20247   4.293  -0.330  10.622 -0.1339  0.3049  1.2110
  178SOPE   O2120248   4.506  -0.357  10.623  0.2067  0.8757  0.5015
  178SOPE   C2120249   4.497  -0.484  10.647 -0.2323  0.4827  0.2009
  178SOPE   O2220250   4.390  -0.550  10.640 -0.1999 -0.0100  1.1886
  178SOPE   C2220251   4.634  -0.540  10.685  0.0846  0.6292 -0.0162
  178SOPE   H2R20252   4.656  -0.530  10.794 -1.5904 -2.2554  0.6909
  178SOPE   H2S20253   4.707  -0.467  10.642 -1.7284  2.3351 -0.3151
  178SOPE    C320254   4.384  -0.315  10.423 -0.0357  0.7488 -0.3266
  178SOPE    HX20255   4.388  -0.425  10.411  0.5575  0.7885 -0.5288
  178SOPE    HY20256   4.471  -0.259  10.382 -0.0977 -0.3062 -1.9990
  178SOPE   O3120257   4.261  -0.273  10.351 -0.2590 -0.0987 -0.1379
  178SOPE   C3120258   4.249  -0.298  10.222  0.0060 -0.4850  0.3590
  178SOPE   O3220259   4.329  -0.367  10.163 -0.0808 -0.1577  0.0379
  178SOPE   C3220260   4.119  -0.253  10.170  1.4310 -0.1501  0.5157
  178SOPE   H2X20261   4.078  -0.163  10.221  0.4050  0.8896 -2.0069
  178SOPE   H2Y20262   4.058  -0.336  10.211  1.7452 -0.2104  0.8680
  178SOPE   C2320263   4.667  -0.674  10.621 -0.3414 -0.1579 -0.2053
  178SOPE   H3R20264   4.777  -0.695  10.623 -0.4822 -0.8741  1.5583
  178SOPE   H3S20265   4.623  -0.673  10.519 -0.4736  1.8142 -0.1649
  178SOPE   C2420266   4.611  -0.793  10.702  0.3395 -0.9432 -0.3068
  178SOPE   H4R20267   4.651  -0.777  10.805 -1.0377 -2.9245  0.6053
  178SOPE   H4S20268   4.500  -0.778  10.700  0.4747  0.0895 -2.4159
  178SOPE   C2520269   4.646  -0.927  10.642 -0.4382 -0.1711 -0.5169
  178SOPE   H5R20270   4.606  -1.009  10.705  0.2898 -0.5445 -0.5285
  178SOPE   H5S20271   4.598  -0.931  10.542 -1.4354  0.0666 -0.0527
  178SOPE   C2620272   4.793  -0.957  10.616  0.1268  0.3007  0.0302
  178SOPE   H6R20273   4.840  -0.885  10.546 -0.2048  0.2523 -0.2398
  178SOPE   H6S20274   4.855  -0.937  10.707  1.0386  1.6391 -0.8341
  178SOPE   C2720275   4.819  -1.107  10.578  0.2738 -0.7734 -1.1991
  178SOPE   H7R20276   4.930  -1.110  10.574  0.5836  1.7066  2.0085
  178SOPE   H7S20277   4.787  -1.174  10.660  1.7408 -1.9659 -1.5532
  178SOPE   C2820278   4.748  -1.152  10.454  0.0273 -0.2256 -0.2314
  178SOPE   H8R20279   4.642  -1.174  10.480  0.1276 -0.8004 -0.3005
  178SOPE   H8S20280   4.740  -1.084  10.367 -1.3945  0.4110  0.3633
  178SOPE   C2920281   4.803  -1.282  10.397  0.2778  0.1171  0.5695
  178SOPE   H9120282   4.740  -1.370  10.419 -1.6065  0.7119 -2.0171
  178SOPE  C21020283   4.924  -1.312  10.339  0.6458 -0.3968  0.2321
  178SOPE  H10120284   4.953  -1.411  10.300  2.2736 -0.0761  0.5343
  178SOPE  C21120285   5.022  -1.208  10.304  0.1773 -0.0905  0.0241
  178SOPE  H11R20286   5.113  -1.226  10.365 -0.1351 -1.0519  0.2232
  178SOPE  H11S20287   4.979  -1.110  10.333 -1.9017  0.1687 -3.3940
  178SOPE  C21220288   5.059  -1.223  10.154 -0.3818  0.3833  0.2320
  178SOPE  H12R20289   5.142  -1.152  10.133  0.9278 -1.7084 -2.3674
  178SOPE  H12S20290   4.977  -1.177  10.095 -0.3277  0.6254  0.3438
  178SOPE  C21320291   5.099  -1.363  10.097  0.2430  0.1329 -0.1216
  178SOPE  H13R20292   5.006  -1.422  10.102 -0.3524  0.9562 -1.0527
  178SOPE  H13S20293   5.185  -1.404  10.153 -0.0996 -0.2505  0.1214
  178SOPE  C21420294   5.138  -1.353   9.953 -0.8398  0.2372  0.4576
  178SOPE  H14R20295   5.190  -1.446   9.923 -1.2068  0.2532 -0.2437
  178SOPE  H14S20296   5.205  -1.265   9.949  0.6400 -0.6838  2.7071
  178SOPE  C21520297   5.011  -1.331   9.866 -0.1780  0.3180  0.2467
  178SOPE  H15R20298   4.958  -1.236   9.885 -0.3481  0.3207 -0.2268
  178SOPE  H15S20299   4.942  -1.415   9.891  0.0946  0.2880  0.9149
  178SOPE  C21620300   5.055  -1.336   9.720  0.5517  0.0153  0.1160
  178SOPE  H16R20301   5.094  -1.435   9.690  0.9694 -0.1150  1.0639
  178SOPE  H16S20302   5.140  -1.265   9.713  0.9747 -0.5272 -0.3497
  178SOPE  C21720303   4.938  -1.306   9.637  0.6627 -0.3400 -0.2104
  178SOPE  H17R20304   4.877  -1.215   9.657  0.4414 -0.0555 -2.0015
  178SOPE  H17S20305   4.868  -1.390   9.659  3.2709 -2.1845  1.7325
  178SOPE  C21820306   4.965  -1.297   9.491  1.6642  0.7372  0.4867
  178SOPE  H18R20307   5.041  -1.224   9.458  0.3033  2.3011  0.6632
  178SOPE  H18S20308   4.868  -1.285   9.438 -0.2497  0.0935  3.5729
  178SOPE  H18T20309   5.003  -1.398   9.464  1.2909  0.0645  2.3026
  178SOPE   C3320310   4.122  -0.247  10.017 -0.1395 -0.4641  0.2787
  178SOPE   H3X20311   4.207  -0.179   9.996  0.1777 -1.5871 -2.5615
  178SOPE   H3Y20312   4.025  -0.202   9.983 -1.1728 -1.2068  2.1242
  178SOPE   C3420313   4.128  -0.377   9.937  0.0711  0.3269  0.7072
  178SOPE   H4X20314   4.031  -0.423   9.965 -0.4589  1.3345  0.5971
  178SOPE   H4Y20315   4.209  -0.441   9.977 -0.0509 -1.6223 -1.9002
  178SOPE   C3520316   4.154  -0.363   9.786  0.2505  0.5917 -1.2868
  178SOPE   H5X20317   4.256  -0.322   9.768  1.0968 -0.9760 -0.2715
  178SOPE   H5Y20318   4.077  -0.296   9.743 -0.2727  0.6359 -0.3182
  178SOPE   C3620319   4.132  -0.486   9.693 -0.2211 -0.3064 -0.4861
  178SOPE   H6X20320   4.040  -0.544   9.716  0.8680 -2.2981 -0.8484
  178SOPE   H6Y20321   4.218  -0.554   9.713 -0.3394 -1.2997 -3.0045
  178SOPE   C3720322   4.152  -0.451   9.543 -0.0530 -0.3056 -0.6527
  178SOPE   H7X20323   4.227  -0.369   9.543  1.2833 -1.4461  0.7968
  178SOPE   H7Y20324   4.058  -0.414   9.496  1.2295  1.2008 -2.1442
  178SOPE   C3820325   4.195  -0.572   9.456  0.7401 -0.0008 -0.1240
  178SOPE   H8X20326   4.132  -0.661   9.477  1.8640 -0.9770 -0.7751
  178SOPE   H8Y20327   4.298  -0.604   9.479  0.0765 -2.8695 -0.7127
  178SOPE   C3920328   4.182  -0.540   9.303  0.4404 -0.1051 -0.1893
  178SOPE   H9X20329   4.245  -0.452   9.278  1.3307 -0.7417 -0.2615
  178SOPE   H9Y20330   4.073  -0.523   9.292  0.0292 -2.2152  0.1382
  178SOPE  C31020331   4.208  -0.662   9.216  0.4575  0.1879  0.9700
  178SOPE  H10X20332   4.138  -0.743   9.246 -0.4739 -0.2660 -2.0136
  178SOPE  H10Y20333   4.307  -0.711   9.224 -0.4096 -1.6013  1.2628
  178SOPE  C31120334   4.201  -0.631   9.070  0.1522  0.0036  0.2766
  178SOPE  H11X20335   4.285  -0.563   9.042 -1.5795  1.2312 -2.2964
  178SOPE  H11Y20336   4.107  -0.578   9.045  0.1795 -1.2679 -3.0162
  178SOPE  C31220337   4.208  -0.746   8.973 -0.5670  0.9001 -0.3537
  178SOPE  H12X20338   4.302  -0.805   8.970 -0.3510  1.1958  0.4216
  178SOPE  H12Y20339   4.187  -0.697   8.875 -1.2953  0.0820 -0.6192
  178SOPE  C31320340   4.094  -0.849   8.974  0.1629 -0.3212  0.9163
  178SOPE  H13X20341   4.062  -0.868   9.079  1.0662  4.0232  2.1775
  178SOPE  H13Y20342   4.135  -0.943   8.931  0.9227  0.8647 -1.0705
  178SOPE  C31420343   3.958  -0.808   8.906 -0.5118 -0.4588  0.2633
  178SOPE  H14X20344   3.940  -0.713   8.962  0.7520 -0.0645  0.0549
  178SOPE  H14Y20345   3.885  -0.884   8.941  1.6045 -2.1926  1.1423
  178SOPE  C31520346   3.960  -0.801   8.753  0.3767 -0.5055  0.0224
  178SOPE  H15X20347   3.972  -0.902   8.708 -0.0580 -0.0447 -1.1680
  178SOPE  H15Y20348   4.040  -0.733   8.718  1.1087 -0.3295  1.8921
  178SOPE  C31620349   3.824  -0.760   8.682 -0.3651 -0.1408 -0.0097
  178SOPE  H16X20350   3.746  -0.802   8.750  1.3451  0.7498  2.6603
  178SOPE  H16Y20351   3.811  -0.811   8.584  3.1192  2.6450 -2.1445
  178SOPE  C31720352   3.786  -0.607   8.680  0.7502  0.5512 -0.3173
  178SOPE  H17X20353   3.765  -0.574   8.784 -5.3954  0.2016 -1.1049
  178SOPE  H17Y20354   3.687  -0.611   8.629 -1.2318  0.1132  3.2747
  178SOPE  C31820355   3.893  -0.520   8.607  0.1321  0.7873  0.0137
  178SOPE  H18X20356   3.848  -0.418   8.599 -0.7287  0.3439 -0.9759
  178SOPE  H18Y20357   3.905  -0.555   8.503 -2.6203  3.4956 -1.3660
  178SOPE  H18Z20358   3.989  -0.513   8.662 -0.8640  1.6823  1.7277
  179SOPE     N20359   2.983   0.164   6.483  0.2293  0.7180 -0.3266
  179SOPE   HN120360   3.031   0.113   6.407  0.5903 -1.0575  1.0305
  179SOPE   HN220361   2.943   0.248   6.437  1.1265  0.4234 -1.6840
  179SOPE   HN320362   3.052   0.195   6.556  0.7444 -0.4702 -0.2908
  179SOPE   C1220363   2.886   0.064   6.543 -0.6260 -0.8171 -0.0560
  179SOPE  H12A20364   2.813   0.033   6.465 -0.6704  1.2666 -0.9215
  179SOPE  H12B20365   2.830   0.119   6.622 -2.1876 -1.3660 -0.7495
  179SOPE   C1120366   2.961  -0.051   6.610 -0.1445 -1.3118  0.0013
  179SOPE  H11A20367   2.888  -0.099   6.678 -1.8272  1.4437  0.2956
  179SOPE  H11B20368   3.040  -0.005   6.674 -2.1211  0.4731  1.2958
  179SOPE     P20369   2.938  -0.263   6.453 -0.2602 -0.0590  0.2382
  179SOPE   O1320370   3.052  -0.348   6.415  0.0213  1.0952  0.5165
  179SOPE   O1420371   2.839  -0.217   6.351  0.1756  0.4880 -0.0506
  179SOPE   O1220372   3.009  -0.133   6.509 -0.0361 -0.1552 -0.5290
  179SOPE   O1120373   2.873  -0.328   6.581 -0.4428  0.2530  0.1775
  179SOPE    C120374   2.749  -0.405   6.579  0.0156  0.5754  0.3819
  179SOPE    HA20375   2.780  -0.512   6.581  0.0221  0.4760 -1.9138
  179SOPE    HB20376   2.689  -0.397   6.486 -0.3275 -0.1216  0.5358
  179SOPE    C220377   2.664  -0.365   6.697 -0.2270  0.8125 -0.1141
  179SOPE    HS20378   2.641  -0.256   6.701  0.1832  0.8769  0.5520
  179SOPE   O2120379   2.733  -0.407   6.812 -0.0221 -0.0572  0.4622
  179SOPE   C2120380   2.776  -0.312   6.889 -0.6155  0.0398 -0.6904
  179SOPE   O2220381   2.742  -0.194   6.892 -0.1757 -0.4172  0.2048
  179SOPE   C2220382   2.875  -0.377   6.984 -0.1814  0.3973 -0.7118
  179SOPE   H2R20383   2.929  -0.455   6.926 -0.1583 -0.6240  0.6138
  179SOPE   H2S20384   2.817  -0.438   7.057  0.0894 -1.5517 -2.0575
  179SOPE    C320385   2.529  -0.447   6.691 -0.8576  0.4428 -0.4175
  179SOPE    HX20386   2.538  -0.558   6.687 -2.0399  0.1926  2.3158
  179SOPE    HY20387   2.479  -0.408   6.600  1.3851 -0.4028 -2.1201
  179SOPE   O3120388   2.445  -0.430   6.812 -0.8807  0.5363 -0.1699
  179SOPE   C3120389   2.394  -0.310   6.843  0.0427  0.4972 -0.6745
  179SOPE   O3220390   2.393  -0.216   6.768 -0.2563 -0.7102  0.2398
  179SOPE   C3220391   2.322  -0.309   6.977  0.1004 -0.5590 -0.5698
  179SOPE   H2X20392   2.287  -0.410   7.006 -0.4425 -0.6425 -1.4692
  179SOPE   H2Y20393   2.237  -0.238   6.984  1.5161  1.1039  0.6826
  179SOPE   C2320394   2.972  -0.279   7.055  0.8269 -0.0481 -0.2123
  179SOPE   H3R20395   2.992  -0.190   6.991 -2.9905  0.7853 -0.4439
  179SOPE   H3S20396   3.071  -0.324   7.078  1.7172  2.0373  0.3124
  179SOPE   C2420397   2.925  -0.234   7.200 -0.3194 -0.6852 -0.1526
  179SOPE   H4R20398   2.983  -0.144   7.227 -0.1234 -0.1527 -2.1733
  179SOPE   H4S20399   2.817  -0.205   7.197 -0.1562 -0.0131  0.4701
  179SOPE   C2520400   2.958  -0.340   7.300 -0.2607 -0.1872  0.2782
  179SOPE   H5R20401   2.906  -0.437   7.287  1.0705 -0.7105 -1.5452
  179SOPE   H5S20402   3.067  -0.356   7.284 -0.0814 -0.1717  1.3862
  179SOPE   C2620403   2.925  -0.289   7.440 -0.3512 -0.1460  0.0435
  179SOPE   H6R20404   2.955  -0.182   7.447 -2.3348  0.3642  1.5315
  179SOPE   H6S20405   2.814  -0.291   7.434 -0.5351 -0.2434  2.6732
  179SOPE   C2720406   2.991  -0.356   7.560 -0.4636 -0.0296 -0.0900
  179SOPE   H7R20407   3.001  -0.465   7.542  3.5801  0.2569 -0.3842
  179SOPE   H7S20408   3.095  -0.317   7.560 -0.5086  0.2023 -2.3763
  179SOPE   C2820409   2.915  -0.325   7.694 -0.2164  0.2086 -0.0576
  179SOPE   H8R20410   2.893  -0.217   7.703 -3.2380 -0.2977 -0.1593
  179SOPE   H8S20411   2.814  -0.373   7.693  0.1057 -0.4922  0.4250
  179SOPE   C2920412   2.998  -0.371   7.816 -0.4512  0.7354  0.0639
  179SOPE   H9120413   3.040  -0.473   7.816  0.0566  0.9377  0.6360
  179SOPE  C21020414   3.032  -0.299   7.924  0.4060 -0.2780  0.4141
  179SOPE  H10120415   3.094  -0.332   8.009  0.5657  2.1668  1.3470
  179SOPE  C21120416   2.989  -0.152   7.945 -0.1677 -0.4945  0.2209
  179SOPE  H11R20417   2.897  -0.143   8.006  0.6198 -1.5985  1.6506
  179SOPE  H11S20418   2.985  -0.106   7.845 -0.8633 -0.4741  0.2535
  179SOPE  C21220419   3.097  -0.075   8.031  0.2807  0.3517  0.1780
  179SOPE  H12R20420   3.085   0.035   8.043  0.4200  0.3295  0.5324
  179SOPE  H12S20421   3.201  -0.095   7.996  0.4465  2.0636 -0.4321
  179SOPE  C21320422   3.091  -0.110   8.178  0.6880 -0.3450 -0.2547
  179SOPE  H13R20423   3.063  -0.217   8.191  1.1161 -0.1416  3.2654
  179SOPE  H13S20424   3.005  -0.056   8.224 -1.9678 -1.0500 -3.9083
  179SOPE  C21420425   3.220  -0.065   8.239 -0.2310 -0.1133 -0.0102
  179SOPE  H14R20426   3.218   0.046   8.246 -2.3878 -0.1724  1.1604
  179SOPE  H14S20427   3.314  -0.088   8.183  0.7966  2.3244  0.5683
  179SOPE  C21520428   3.225  -0.128   8.381 -0.5085 -0.4675  0.4235
  179SOPE  H15R20429   3.213  -0.239   8.374 -0.6379 -0.4073 -0.3868
  179SOPE  H15S20430   3.133  -0.112   8.440 -1.6382 -3.7724 -0.1992
  179SOPE  C21620431   3.355  -0.102   8.455  0.8010  0.9621  0.2205
  179SOPE  H16R20432   3.431  -0.157   8.395  0.3381  1.7304 -1.1163
  179SOPE  H16S20433   3.342  -0.160   8.549 -0.5333 -0.8543 -1.0221
  179SOPE  C21720434   3.407   0.041   8.464 -0.4158 -0.2622 -0.2708
  179SOPE  H17R20435   3.339   0.118   8.507  1.8925  1.2035  1.0181
  179SOPE  H17S20436   3.451   0.076   8.368  1.5175 -2.5364 -0.2937
  179SOPE  C21820437   3.516   0.056   8.567 -0.5615  0.0549  0.0835
  179SOPE  H18R20438   3.491   0.008   8.664 -1.5518 -0.1637 -0.2758
  179SOPE  H18S20439   3.546   0.160   8.592  0.0192  0.8265 -3.2926
  179SOPE  H18T20440   3.606   0.002   8.531  0.3571  1.9166 -0.5598
  179SOPE   C3320441   2.417  -0.249   7.093 -0.1970  0.6362  0.2405
  179SOPE   H3X20442   2.413  -0.138   7.084 -1.2707  0.8311  2.4915
  179SOPE   H3Y20443   2.516  -0.299   7.084 -0.8688 -0.5252 -1.2473
  179SOPE   C3420444   2.375  -0.294   7.236 -0.0742 -0.1942  0.1211
  179SOPE   H4X20445   2.382  -0.405   7.247  0.6150 -0.0422  1.4277
  179SOPE   H4Y20446   2.273  -0.263   7.267 -0.4413 -0.3203 -0.9420
  179SOPE   C3520447   2.477  -0.240   7.326 -1.0029 -0.1431 -0.3760
  179SOPE   H5X20448   2.475  -0.129   7.330 -1.5431 -0.1652  3.9594
  179SOPE   H5Y20449   2.578  -0.254   7.282 -0.1136  1.5656  1.0040
  179SOPE   C3620450   2.470  -0.289   7.473 -0.5619  0.2926  0.0292
  179SOPE   H6X20451   2.508  -0.393   7.480 -1.7212 -0.1116  0.5039
  179SOPE   H6Y20452   2.363  -0.283   7.503 -0.6744 -2.0900  0.3118
  179SOPE   C3720453   2.542  -0.200   7.574  0.7570  0.1913 -0.1405
  179SOPE   H7X20454   2.528  -0.098   7.534 -0.5100 -0.4493 -1.4160
  179SOPE   H7Y20455   2.652  -0.217   7.578  1.2216  2.3787 -1.9250
  179SOPE   C3820456   2.495  -0.229   7.714 -0.7426 -0.1590  0.0975
  179SOPE   H8X20457   2.504  -0.338   7.738  2.0800 -0.1587 -0.7050
  179SOPE   H8Y20458   2.389  -0.199   7.730 -0.4644  0.5435  0.6702
  179SOPE   C3920459   2.568  -0.128   7.812 -0.9499 -0.1791 -0.1863
  179SOPE   H9X20460   2.569  -0.024   7.771 -0.8085 -0.9583 -2.2907
  179SOPE   H9Y20461   2.674  -0.157   7.824 -1.1365 -0.9237 -0.3146
  179SOPE  C31020462   2.500  -0.148   7.949  0.1585 -0.3870 -0.6428
  179SOPE  H10X20463   2.490  -0.257   7.970  0.7146 -0.1795  0.7536
  179SOPE  H10Y20464   2.394  -0.114   7.939  0.0086 -1.0012 -1.2741
  179SOPE  C31120465   2.560  -0.073   8.064 -0.1992 -0.0378  0.2423
  179SOPE  H11X20466   2.527   0.033   8.059  2.1289  0.7601  0.7014
  179SOPE  H11Y20467   2.668  -0.088   8.042 -0.0566  0.7426  0.3938
  179SOPE  C31220468   2.516  -0.113   8.199 -0.2034 -0.3436  0.1401
  179SOPE  H12X20469   2.408  -0.095   8.217 -0.1043 -1.4136  2.1329
  179SOPE  H12Y20470   2.577  -0.056   8.273  1.5845 -0.6210 -1.0498
  179SOPE  C31320471   2.530  -0.262   8.241  0.0800 -0.1307  0.0058
  179SOPE  H13X20472   2.635  -0.288   8.212  0.4462  1.5671 -0.2873
  179SOPE  H13Y20473   2.456  -0.321   8.182 -1.2237  1.9890 -0.5806
  179SOPE  C31420474   2.492  -0.289   8.386  0.1530  0.3465  0.0046
  179SOPE  H14X20475   2.534  -0.200   8.436  1.3333  0.4141 -1.0766
  179SOPE  H14Y20476   2.548  -0.384   8.402  2.7451  1.4916 -1.6922
  179SOPE  C31520477   2.344  -0.310   8.408 -0.0755  1.1899 -1.2129
  179SOPE  H15X20478   2.327  -0.413   8.372  1.7765 -0.1605  1.3858
  179SOPE  H15Y20479   2.281  -0.235   8.357  0.0239  2.3393  0.2872
  179SOPE  C31620480   2.317  -0.315   8.558  0.0832  0.1332 -0.6453
  179SOPE  H16X20481   2.329  -0.212   8.598  1.5261 -0.2365 -0.0702
  179SOPE  H16Y20482   2.399  -0.379   8.599  0.9447  0.9787 -1.0158
  179SOPE  C31720483   2.176  -0.366   8.580  0.3471  0.8536  1.1229
  179SOPE  H17X20484   2.179  -0.473   8.552 -0.6690  0.0217  3.8715
  179SOPE  H17Y20485   2.108  -0.305   8.516  0.2017  0.4984  0.9381
  179SOPE  C31820486   2.136  -0.371   8.725 -0.8138 -0.1754 -0.5823
  179SOPE  H18X20487   2.042  -0.430   8.740  0.4067 -1.9105  0.6435
  179SOPE  H18Y20488   2.136  -0.269   8.768  1.8947 -0.7659  1.0597
  179SOPE  H18Z20489   2.212  -0.426   8.785 -1.4246 -2.4696 -1.7912
  180SOPE     N20490   1.840   6.015   6.108  0.0785  0.1279  0.5231
  180SOPE   HN120491   1.772   6.054   6.040  2.3867  0.4156 -1.8019
  180SOPE   HN220492   1.821   6.023   6.210  1.3785 -1.5917  0.9460
  180SOPE   HN320493   1.931   6.063   6.088 -0.2867  0.4408 -0.4632
  180SOPE   C1220494   1.858   5.872   6.063 -0.5180  0.3808  0.7995
  180SOPE  H12A20495   1.962   5.838   6.086  0.1693  3.4485  2.7154
  180SOPE  H12B20496   1.862   5.871   5.952  1.7256  3.9435  0.6697
  180SOPE   C1120497   1.752   5.778   6.119 -0.0402  0.1357  0.0555
  180SOPE  H11A20498   1.780   5.675   6.085  2.1471  1.5086 -2.7293
  180SOPE  H11B20499   1.663   5.806   6.058 -0.7658 -0.7499  0.6743
  180SOPE     P20500   1.594   5.738   6.323 -0.1725  0.0224 -0.2713
  180SOPE   O1320501   1.617   5.637   6.429 -0.4945 -0.1253  0.1401
  180SOPE   O1420502   1.506   5.687   6.215  0.0625 -0.3048 -0.4041
  180SOPE   O1220503   1.736   5.788   6.258  0.4563  0.1366 -0.0802
  180SOPE   O1120504   1.532   5.859   6.387  0.3785 -0.2473  0.1461
  180SOPE    C120505   1.442   5.835   6.507 -0.5986 -0.9066  0.4789
  180SOPE    HA20506   1.502   5.843   6.600 -1.2939 -1.1132  0.9552
  180SOPE    HB20507   1.379   5.744   6.503 -1.6496 -0.1770 -2.0524
  180SOPE    C220508   1.331   5.946   6.517  0.0396  0.2425  0.8692
  180SOPE    HS20509   1.376   6.046   6.495 -1.1709  0.7477  0.5975
  180SOPE   O2120510   1.282   5.940   6.655  1.0368  0.5202  0.6399
  180SOPE   C2120511   1.336   6.026   6.745  0.2329 -0.1076  0.7377
  180SOPE   O2220512   1.416   6.114   6.715 -0.5764 -0.0156 -0.2091
  180SOPE   C2220513   1.271   6.009   6.883 -0.7392 -0.2500 -0.3874
  180SOPE   H2R20514   1.161   6.009   6.871 -0.7747 -0.2859 -0.0778
  180SOPE   H2S20515   1.308   6.093   6.947 -1.8955  1.1419 -1.4931
  180SOPE    C320516   1.214   5.932   6.407 -0.7193 -0.3129 -0.1890
  180SOPE    HX20517   1.186   5.825   6.415  0.8024 -0.8914 -1.8870
  180SOPE    HY20518   1.250   5.951   6.304 -0.6432 -0.1920 -0.1414
  180SOPE   O3120519   1.105   6.018   6.435  0.1828 -0.2485  1.2037
  180SOPE   C3120520   1.121   6.150   6.409 -0.3718 -0.3042 -0.4320
  180SOPE   O3220521   1.227   6.200   6.375 -0.3931  0.2573  0.1375
  180SOPE   C3220522   0.986   6.222   6.445  0.4787 -0.5220  0.1909
  180SOPE   H2X20523   0.901   6.150   6.451  0.3542 -0.3865  0.0726
  180SOPE   H2Y20524   0.971   6.295   6.363  1.3006  2.4944  2.5634
  180SOPE   C2320525   1.315   5.874   6.945  0.3082 -0.8267  0.0089
  180SOPE   H3R20526   1.426   5.867   6.941  0.5235  1.6091  0.4332
  180SOPE   H3S20527   1.260   5.795   6.890 -3.2517  0.4910  1.4087
  180SOPE   C2420528   1.289   5.868   7.098 -0.0885  0.4559 -0.0453
  180SOPE   H4R20529   1.340   5.956   7.142  0.4228 -0.7630  1.9149
  180SOPE   H4S20530   1.179   5.878   7.112 -0.4926 -1.8752 -1.0741
  180SOPE   C2520531   1.336   5.746   7.171 -0.0285  0.6478 -0.4480
  180SOPE   H5R20532   1.326   5.769   7.280  2.2772  0.3862 -0.1252
  180SOPE   H5S20533   1.268   5.660   7.151  0.5619  0.4834 -1.8514
  180SOPE   C2620534   1.482   5.693   7.155 -0.2192 -0.1194 -0.0843
  180SOPE   H6R20535   1.502   5.608   7.223 -0.1913  0.1045  0.1915
  180SOPE   H6S20536   1.494   5.663   7.049 -1.4160 -0.6648 -0.0885
  180SOPE   C2720537   1.580   5.801   7.188 -0.1798  0.1744 -0.1184
  180SOPE   H7R20538   1.676   5.773   7.140 -0.7921  1.1171 -2.0137
  180SOPE   H7S20539   1.548   5.892   7.133  0.1152 -0.2222 -0.9766
  180SOPE   C2820540   1.587   5.830   7.334 -0.0143 -0.8325 -0.9213
  180SOPE   H8R20541   1.501   5.890   7.371 -0.0711 -3.3537  3.8060
  180SOPE   H8S20542   1.598   5.739   7.397  1.0403 -1.7302 -2.3421
  180SOPE   C2920543   1.694   5.931   7.365  0.1024  0.2888  0.3410
  180SOPE   H9120544   1.702   6.012   7.291 -2.2543  0.2744 -0.0161
  180SOPE  C21020545   1.775   5.927   7.471 -0.3474  0.4514  1.0153
  180SOPE  H10120546   1.841   6.014   7.485 -0.5307  0.7138  0.2685
  180SOPE  C21120547   1.786   5.825   7.583  0.9596  0.2170  0.5785
  180SOPE  H11R20548   1.875   5.758   7.579  0.3022 -0.7046  0.8484
  180SOPE  H11S20549   1.692   5.765   7.590 -0.3990  2.1615 -0.0781
  180SOPE  C21220550   1.808   5.893   7.723 -0.1631  0.3905  0.6145
  180SOPE  H12R20551   1.740   5.977   7.746 -0.0269  1.0438 -1.2129
  180SOPE  H12S20552   1.905   5.947   7.730  1.7100 -2.7842  1.1887
  180SOPE  C21320553   1.816   5.792   7.833  0.0057  0.3163  0.6367
  180SOPE  H13R20554   1.900   5.726   7.804  1.8485  1.5400  2.8676
  180SOPE  H13S20555   1.717   5.743   7.845  0.2711 -0.4092 -0.0556
  180SOPE  C21420556   1.872   5.846   7.967  0.2490 -0.0732  0.2842
  180SOPE  H14R20557   1.807   5.929   8.000 -0.3349 -0.2040 -0.5004
  180SOPE  H14S20558   1.972   5.887   7.942 -0.8964  2.7299 -0.1119
  180SOPE  C21520559   1.885   5.740   8.078  0.2726  0.1177  0.4396
  180SOPE  H15R20560   1.909   5.641   8.034  0.7830  0.3136  0.2724
  180SOPE  H15S20561   1.781   5.734   8.116 -0.1563  0.2924 -0.6968
  180SOPE  C21620562   1.973   5.785   8.203  0.1699  0.2073  0.2292
  180SOPE  H16R20563   1.942   5.886   8.237 -1.4070  0.1940 -1.0473
  180SOPE  H16S20564   2.081   5.793   8.177  0.4262  2.2990  1.6437
  180SOPE  C21720565   1.961   5.693   8.318  0.4802 -0.0639 -0.3427
  180SOPE  H17R20566   1.994   5.592   8.287  0.8931  0.1641 -0.6459
  180SOPE  H17S20567   1.856   5.699   8.356 -0.4275 -1.1736 -2.4472
  180SOPE  C21820568   2.055   5.729   8.441 -0.2138 -0.3516 -0.5605
  180SOPE  H18R20569   2.156   5.733   8.396 -0.7747  0.3059 -1.7832
  180SOPE  H18S20570   2.060   5.646   8.516 -2.7399  1.2124  1.5508
  180SOPE  H18T20571   2.032   5.827   8.488 -1.4656 -0.6906 -0.4272
  180SOPE   C3320572   0.989   6.308   6.570  0.4987  0.3474  0.3879
  180SOPE   H3X20573   0.903   6.378   6.563 -0.0766 -0.4412 -0.6060
  180SOPE   H3Y20574   1.076   6.378   6.572 -0.1920  1.5784 -3.6589
  180SOPE   C3420575   0.973   6.243   6.706  0.3748  1.0902  0.1364
  180SOPE   H4X20576   1.054   6.167   6.715 -0.4594  0.2460  0.6393
  180SOPE   H4Y20577   0.881   6.183   6.719  1.3304 -0.5705 -0.3964
  180SOPE   C3520578   0.974   6.352   6.815 -0.3216  1.1854 -0.8254
  180SOPE   H5X20579   0.882   6.415   6.809 -2.0918 -1.1011  0.5812
  180SOPE   H5Y20580   1.065   6.415   6.807  0.4062  0.3172  0.3772
  180SOPE   C3620581   0.990   6.301   6.956  0.1314  0.5329 -0.6428
  180SOPE   H6X20582   1.081   6.238   6.970  0.6166  0.9183 -1.9427
  180SOPE   H6Y20583   0.906   6.230   6.970  0.4249 -0.0394 -1.6490
  180SOPE   C3720584   0.994   6.408   7.062  0.4498  0.2497  0.4203
  180SOPE   H7X20585   0.908   6.472   7.033  0.3492 -0.2043 -0.3160
  180SOPE   H7Y20586   1.090   6.464   7.058  1.3297 -1.2325  0.2849
  180SOPE   C3820587   0.946   6.357   7.203  0.1762  0.7585  0.4990
  180SOPE   H8X20588   1.003   6.266   7.233 -0.3109  0.3299  0.1400
  180SOPE   H8Y20589   0.838   6.332   7.192 -0.1279  1.8614  0.8424
  180SOPE   C3920590   0.967   6.460   7.310  0.1338  0.3220 -0.1293
  180SOPE   H9X20591   0.890   6.539   7.303  1.8007  1.9282 -1.1945
  180SOPE   H9Y20592   1.069   6.505   7.309 -0.0047  0.6265 -0.5653
  180SOPE  C31020593   0.948   6.400   7.452  0.3243  0.2912 -0.1600
  180SOPE  H10X20594   1.012   6.311   7.469 -1.8056 -0.6536  4.6273
  180SOPE  H10Y20595   0.845   6.359   7.467  0.9528 -1.0404  0.7541
  180SOPE  C31120596   0.987   6.482   7.574 -0.0016 -0.6821 -0.3910
  180SOPE  H11X20597   0.907   6.558   7.581  2.1304  1.5471  1.8996
  180SOPE  H11Y20598   1.079   6.540   7.552 -0.4281 -0.3675 -1.3881
  180SOPE  C31220599   1.017   6.396   7.700 -0.5753  1.2573  0.6035
  180SOPE  H12X20600   1.112   6.340   7.685 -0.7373  1.3283 -0.8403
  180SOPE  H12Y20601   0.942   6.316   7.712  1.3185 -0.8861 -0.9389
  180SOPE  C31320602   1.014   6.469   7.833  0.3453 -0.0748 -0.7982
  180SOPE  H13X20603   0.914   6.517   7.844  0.8909  0.6305  1.7649
  180SOPE  H13Y20604   1.108   6.527   7.824  1.2950 -1.8377 -2.9369
  180SOPE  C31420605   1.019   6.374   7.955 -0.3044 -0.4880 -0.2431
  180SOPE  H14X20606   1.103   6.302   7.962  1.9708  1.9599 -0.4818
  180SOPE  H14Y20607   0.934   6.303   7.958  0.6628 -1.7237 -1.1425
  180SOPE  C31520608   1.025   6.452   8.092 -0.2528 -0.0085  0.0843
  180SOPE  H15X20609   0.992   6.375   8.165 -2.2123 -1.3569 -2.0545
  180SOPE  H15Y20610   0.957   6.539   8.107 -0.2546 -0.2881  1.9200
  180SOPE  C31620611   1.168   6.499   8.127  0.7880 -0.1983 -0.1801
  180SOPE  H16X20612   1.193   6.592   8.072  0.3937  1.1256  1.7632
  180SOPE  H16Y20613   1.243   6.420   8.104  0.0759 -0.9235 -0.0445
  180SOPE  C31720614   1.185   6.529   8.279  0.2882 -0.0749  0.7820
  180SOPE  H17X20615   1.190   6.426   8.321  0.4084 -0.6122 -0.4994
  180SOPE  H17Y20616   1.089   6.576   8.311 -1.4782 -2.0920 -1.2371
  180SOPE  C31820617   1.314   6.602   8.328  0.4370 -0.9865  0.1272
  180SOPE  H18X20618   1.403   6.537   8.315 -0.5405 -2.3186 -0.1664
  180SOPE  H18Y20619   1.299   6.619   8.436  1.3975  0.5624  0.0451
  180SOPE  H18Z20620   1.319   6.698   8.271 -1.4568 -1.8333 -1.6247
  181SOPE     N20621   1.885   4.570   5.817 -0.3029  0.5040  0.4884
  181SOPE   HN120622   1.876   4.562   5.713  0.0911 -0.6958  0.5348
  181SOPE   HN220623   1.959   4.634   5.852 -1.0004  0.7003  1.6645
  181SOPE   HN320624   1.918   4.476   5.845  1.9308  1.2393  0.4529
  181SOPE   C1220625   1.749   4.610   5.874 -0.2343  1.1046  0.3523
  181SOPE  H12A20626   1.667   4.569   5.811 -0.3055  0.6228  0.7500
  181SOPE  H12B20627   1.747   4.720   5.882  0.3433  1.3714 -2.4051
  181SOPE   C1120628   1.741   4.534   6.012  0.4370  1.0540 -0.0230
  181SOPE  H11A20629   1.653   4.578   6.064 -1.0196 -1.1983 -0.4409
  181SOPE  H11B20630   1.826   4.567   6.076 -0.2966  2.9934  0.0181
  181SOPE     P20631   1.834   4.288   6.015  0.0692 -0.4060  0.0911
  181SOPE   O1320632   1.957   4.354   5.958  0.0991 -0.1157 -0.4907
  181SOPE   O1420633   1.783   4.158   5.965  0.2734 -0.4597 -0.4906
  181SOPE   O1220634   1.721   4.394   5.998 -0.3255 -0.0030  0.8276
  181SOPE   O1120635   1.849   4.282   6.171 -0.5911  0.1357  0.5930
  181SOPE    C120636   1.740   4.314   6.249  0.8177 -0.2203  0.0666
  181SOPE    HA20637   1.647   4.326   6.190  1.2050 -0.6905 -0.6553
  181SOPE    HB20638   1.760   4.414   6.294 -0.4048 -0.3183  0.8791
  181SOPE    C220639   1.705   4.220   6.372 -0.1525 -0.9487 -0.5113
  181SOPE    HS20640   1.616   4.264   6.422  1.2927  1.5395  0.0877
  181SOPE   O2120641   1.822   4.211   6.468  0.0879 -0.0999  0.8356
  181SOPE   C2120642   1.803   4.280   6.579  0.1994 -0.4602 -1.3738
  181SOPE   O2220643   1.705   4.345   6.609 -0.0461 -0.1043 -0.1088
  181SOPE   C2220644   1.917   4.253   6.676 -0.4705 -0.0106  0.2183
  181SOPE   H2R20645   2.009   4.299   6.632  0.0239 -2.0220 -0.9822
  181SOPE   H2S20646   1.936   4.143   6.681 -0.5611 -0.1279 -1.3123
  181SOPE    C320647   1.663   4.084   6.320  0.0048 -0.1588 -0.0466
  181SOPE    HX20648   1.743   4.033   6.263 -0.4067 -0.7979 -0.0696
  181SOPE    HY20649   1.581   4.104   6.248 -0.6673  0.7112  0.9312
  181SOPE   O3120650   1.616   3.987   6.419  0.7065  0.1505 -0.6512
  181SOPE   C3120651   1.705   3.911   6.467  0.1541  0.3373 -0.6825
  181SOPE   O3220652   1.818   3.899   6.429 -0.2056  0.3559 -0.2560
  181SOPE   C3220653   1.639   3.844   6.579 -0.3101  0.8844  1.2042
  181SOPE   H2X20654   1.638   3.737   6.550 -1.4240  1.1819  0.0537
  181SOPE   H2Y20655   1.536   3.884   6.593 -0.6400  0.1410  0.9340
  181SOPE   C2320656   1.896   4.293   6.821 -0.8663 -0.0958  0.3031
  181SOPE   H3R20657   1.833   4.384   6.829  0.3581  0.6085  2.7917
  181SOPE   H3S20658   1.989   4.324   6.873 -1.1759  0.9816  0.2330
  181SOPE   C2420659   1.843   4.184   6.910  0.2166 -0.0761  0.2449
  181SOPE   H4R20660   1.739   4.155   6.885  1.0446 -1.3557 -2.0396
  181SOPE   H4S20661   1.901   4.092   6.891 -2.9475 -1.8979 -1.4432
  181SOPE   C2520662   1.845   4.228   7.058 -0.0052 -0.0042  0.1829
  181SOPE   H5R20663   1.952   4.216   7.084 -0.8954 -3.6446  3.0638
  181SOPE   H5S20664   1.812   4.334   7.067 -0.7711  0.0113 -2.2476
  181SOPE   C2620665   1.757   4.139   7.143  0.6450 -0.4124  0.0358
  181SOPE   H6R20666   1.674   4.108   7.076 -0.2881 -0.6684  1.2683
  181SOPE   H6S20667   1.812   4.048   7.174 -0.1498  0.2140  3.7358
  181SOPE   C2720668   1.711   4.219   7.269 -0.7367  0.5611  0.5147
  181SOPE   H7R20669   1.800   4.264   7.318 -1.4823  2.0263  0.5757
  181SOPE   H7S20670   1.642   4.303   7.243 -2.7398 -0.5956  1.8797
  181SOPE   C2820671   1.641   4.136   7.374 -0.6907  0.2885 -0.1573
  181SOPE   H8R20672   1.609   4.205   7.454 -0.3341 -1.4771  1.5938
  181SOPE   H8S20673   1.547   4.092   7.333 -0.7719 -0.2177  0.5530
  181SOPE   C2920674   1.727   4.017   7.429  0.4630 -1.3886  0.2383
  181SOPE   H9120675   1.724   3.926   7.367  2.9171 -0.2611 -1.7191
  181SOPE  C21020676   1.805   4.022   7.541  0.6037  0.3154 -1.2020
  181SOPE  H10120677   1.862   3.933   7.573 -1.1877  0.0660  1.6270
  181SOPE  C21120678   1.807   4.138   7.632 -0.1940 -0.9232  0.5296
  181SOPE  H11R20679   1.704   4.178   7.644  1.2915  2.6964  2.6140
  181SOPE  H11S20680   1.871   4.219   7.593  0.8728 -2.4286 -1.0302
  181SOPE  C21220681   1.858   4.112   7.772 -0.1982  0.1614  0.3594
  181SOPE  H12R20682   1.968   4.112   7.790  0.0162 -2.1554 -0.6539
  181SOPE  H12S20683   1.822   4.018   7.819  0.7099 -0.1713  0.4179
  181SOPE  C21320684   1.800   4.210   7.870  0.0602 -0.2773 -0.2868
  181SOPE  H13R20685   1.690   4.198   7.860  0.2287 -1.4151 -0.8488
  181SOPE  H13S20686   1.828   4.313   7.839 -1.9659 -0.5080 -3.2467
  181SOPE  C21420687   1.824   4.193   8.021  0.1775 -0.8390  0.0374
  181SOPE  H14R20688   1.921   4.245   8.036  0.7212 -1.2638 -1.7737
  181SOPE  H14S20689   1.818   4.085   8.048  0.3228 -0.4291  1.8451
  181SOPE  C21520690   1.716   4.265   8.103 -0.3963 -0.2988  0.1454
  181SOPE  H15R20691   1.628   4.198   8.111 -2.1373  1.5249 -2.4445
  181SOPE  H15S20692   1.676   4.346   8.039  2.4004  1.2432  0.1848
  181SOPE  C21620693   1.756   4.315   8.245  0.2949  0.9808 -0.6355
  181SOPE  H16R20694   1.672   4.377   8.282 -0.8109 -1.5566  1.4161
  181SOPE  H16S20695   1.841   4.384   8.225 -0.3173  1.8667 -0.2469
  181SOPE  C21720696   1.785   4.203   8.334 -0.3712  0.3253  0.0521
  181SOPE  H17R20697   1.887   4.164   8.317  0.1684  2.3759 -1.8022
  181SOPE  H17S20698   1.717   4.121   8.304 -0.9220  0.9720 -0.5202
  181SOPE  C21820699   1.762   4.244   8.482  0.2895 -0.4424  0.3523
  181SOPE  H18R20700   1.831   4.325   8.516  1.0918 -1.0719  0.2676
  181SOPE  H18S20701   1.779   4.155   8.547 -0.0759 -0.1351  0.8734
  181SOPE  H18T20702   1.659   4.282   8.498 -0.1883 -1.1162 -0.9482
  181SOPE   C3320703   1.710   3.870   6.714  0.1319 -0.4726  0.2310
  181SOPE   H3X20704   1.632   3.859   6.793  0.8468  1.3110  1.2534
  181SOPE   H3Y20705   1.763   3.968   6.720 -1.9039  0.7599 -0.9688
  181SOPE   C3420706   1.822   3.773   6.740 -0.0832  0.6303 -0.3006
  181SOPE   H4X20707   1.904   3.787   6.667  1.7524 -1.6154  1.1796
  181SOPE   H4Y20708   1.785   3.669   6.723 -3.6667  1.6029  0.5828
  181SOPE   C3520709   1.877   3.777   6.878  0.0326  0.3955 -0.7300
  181SOPE   H5X20710   1.790   3.775   6.946  0.0050  4.2438 -0.4026
  181SOPE   H5Y20711   1.932   3.871   6.899 -1.4732  0.7603  2.0242
  181SOPE   C3620712   1.988   3.670   6.916  0.1554 -0.0161  0.1286
  181SOPE   H6X20713   2.066   3.672   6.837 -1.0053  0.8211 -1.0340
  181SOPE   H6Y20714   1.947   3.566   6.919  0.8171 -0.2563  1.0763
  181SOPE   C3720715   2.041   3.691   7.053  0.8365 -0.3019 -0.2605
  181SOPE   H7X20716   2.053   3.799   7.074 -0.6284 -0.2432  0.4147
  181SOPE   H7Y20717   2.140   3.641   7.060 -0.2362 -2.8079 -1.6480
  181SOPE   C3820718   1.958   3.616   7.157 -0.1506  0.4812  0.4319
  181SOPE   H8X20719   1.964   3.507   7.138 -1.5936  0.4375  0.0947
  181SOPE   H8Y20720   1.851   3.642   7.143  0.4950  1.7149 -3.2589
  181SOPE   C3920721   1.991   3.638   7.305 -0.2068  0.5808 -0.0723
  181SOPE   H9X20722   1.990   3.746   7.332  1.6584  0.2333  1.6116
  181SOPE   H9Y20723   2.094   3.601   7.327 -1.1833 -1.1912  1.8692
  181SOPE  C31020724   1.904   3.569   7.407 -0.7360  0.0008  0.1434
  181SOPE  H10X20725   1.896   3.462   7.379  0.5481 -0.6265  1.9701
  181SOPE  H10Y20726   1.804   3.611   7.382 -0.6711  0.1312  0.1009
  181SOPE  C31120727   1.925   3.604   7.559 -0.2686 -0.1229  0.3592
  181SOPE  H11X20728   1.850   3.555   7.625  0.0845 -1.1064  0.0536
  181SOPE  H11Y20729   1.913   3.714   7.572 -0.8092  0.0279 -1.2361
  181SOPE  C31220730   2.059   3.559   7.608  0.6785 -0.7784 -0.3663
  181SOPE  H12X20731   2.143   3.607   7.554 -0.0462  1.9260  0.7353
  181SOPE  H12Y20732   2.070   3.450   7.588  0.7234 -0.7905 -0.2742
  181SOPE  C31320733   2.083   3.579   7.756 -0.2674  0.1626 -0.2485
  181SOPE  H13X20734   2.182   3.533   7.778  0.8470  3.4015  2.5298
  181SOPE  H13Y20735   2.007   3.533   7.823 -0.9911 -0.5196 -1.5026
  181SOPE  C31420736   2.100   3.717   7.803  0.2497 -0.3376 -0.0309
  181SOPE  H14X20737   2.028   3.788   7.758  2.0326  1.4969 -0.1849
  181SOPE  H14Y20738   2.197   3.760   7.769  0.4979 -1.4554 -0.7668
  181SOPE  C31520739   2.087   3.732   7.955 -0.1605 -0.1460 -0.0539
  181SOPE  H15X20740   2.167   3.677   8.009  0.2661  0.8396  0.3270
  181SOPE  H15Y20741   1.994   3.688   7.996  0.4051 -1.5920 -0.2365
  181SOPE  C31620742   2.106   3.884   7.985 -0.7606 -0.7173  0.3896
  181SOPE  H16X20743   2.017   3.942   7.950  1.0649  1.4247 -0.9682
  181SOPE  H16Y20744   2.193   3.925   7.929 -0.4616 -1.1405  0.5448
  181SOPE  C31720745   2.135   3.930   8.128  0.1213  0.5485  0.1556
  181SOPE  H17X20746   2.145   4.040   8.128 -0.9750  0.7612 -3.3825
  181SOPE  H17Y20747   2.238   3.893   8.149  1.9948  3.7483 -2.5802
  181SOPE  C31820748   2.030   3.880   8.222  0.2999 -0.4842 -0.3299
  181SOPE  H18X20749   2.055   3.913   8.325  2.2737  0.1239 -0.9543
  181SOPE  H18Y20750   2.022   3.770   8.215 -1.7552 -0.4040  0.2457
  181SOPE  H18Z20751   1.927   3.920   8.210 -0.1259 -1.0746  1.0937
  182SOPE     N20752   1.379   0.113   6.046 -0.0680  0.5308  0.0253
  182SOPE   HN120753   1.380   0.010   6.029  1.8314  0.6694 -0.9287
  182SOPE   HN220754   1.300   0.134   6.111  0.0266  2.4085 -0.4190
  182SOPE   HN320755   1.358   0.171   5.962  1.3312  0.9201 -0.0704
  182SOPE   C1220756   1.512   0.146   6.105  0.0613  0.7024  0.0136
  182SOPE  H12A20757   1.525   0.257   6.101 -0.1513  0.7165 -0.3386
  182SOPE  H12B20758   1.596   0.097   6.050 -0.7915 -0.3143 -0.4048
  182SOPE   C1120759   1.514   0.093   6.245  0.1824 -0.3669 -0.1781
  182SOPE  H11A20760   1.615   0.107   6.288 -0.2043 -2.4751  1.5644
  182SOPE  H11B20761   1.495  -0.016   6.236 -0.6601 -0.2552  0.1256
  182SOPE     P20762   1.439   0.291   6.411 -0.0567 -0.0796  0.1009
  182SOPE   O1320763   1.332   0.313   6.511 -0.1232  0.0499  0.2709
  182SOPE   O1420764   1.461   0.401   6.317  0.6094 -0.2740 -0.1147
  182SOPE   O1220765   1.424   0.157   6.338  0.4665  0.2012 -0.2639
  182SOPE   O1120766   1.572   0.280   6.489  0.3100  0.0675 -0.1000
  182SOPE    C120767   1.614   0.176   6.582  0.0436 -0.7607  0.2012
  182SOPE    HA20768   1.723   0.160   6.569  0.1995 -0.5869  1.2008
  182SOPE    HB20769   1.556   0.081   6.576 -1.1547 -0.1133  1.0310
  182SOPE    C220770   1.612   0.225   6.725  0.0472 -0.5139  0.1075
  182SOPE    HS20771   1.675   0.151   6.779 -0.3580 -0.5977  0.4738
  182SOPE   O2120772   1.474   0.233   6.764  0.0060  0.0695  0.5050
  182SOPE   C2120773   1.430   0.146   6.840 -0.2491 -0.2643 -0.0385
  182SOPE   O2220774   1.489   0.048   6.884  0.1450  0.4976  0.3249
  182SOPE   C2220775   1.278   0.166   6.856 -0.3725 -0.2136 -0.4910
  182SOPE   H2R20776   1.244   0.065   6.886  0.1852 -0.6631 -1.3119
  182SOPE   H2S20777   1.240   0.190   6.754 -0.8392  2.2046  0.1978
  182SOPE    C320778   1.684   0.364   6.742 -0.1114  0.6601  0.0354
  182SOPE    HX20779   1.618   0.436   6.689 -0.5275  0.5201  0.3587
  182SOPE    HY20780   1.784   0.358   6.692  0.2565  2.2118  0.5323
  182SOPE   O3120781   1.697   0.406   6.879 -0.1330  0.2674 -0.4781
  182SOPE   C3120782   1.590   0.468   6.934 -0.6671 -0.4791 -0.2000
  182SOPE   O3220783   1.508   0.530   6.872  0.2255 -0.2962 -0.1057
  182SOPE   C3220784   1.595   0.464   7.083 -0.4814 -0.4205  0.1676
  182SOPE   H2X20785   1.580   0.366   7.134 -1.0907 -1.5724 -2.1207
  182SOPE   H2Y20786   1.512   0.529   7.119 -0.7881  1.3037 -3.2931
  182SOPE   C2320787   1.238   0.276   6.958  0.8375  0.3355 -0.2709
  182SOPE   H3R20788   1.129   0.300   6.953  0.2789 -1.7565  0.8522
  182SOPE   H3S20789   1.286   0.366   6.915 -1.1576  0.1714 -3.1611
  182SOPE   C2420790   1.283   0.253   7.097  0.4223  0.5321  0.3494
  182SOPE   H4R20791   1.222   0.171   7.140  0.0049  1.4863  1.6532
  182SOPE   H4S20792   1.392   0.229   7.096  1.3502  3.7848  2.9571
  182SOPE   C2520793   1.264   0.371   7.191 -0.6412  0.4471  0.8072
  182SOPE   H5R20794   1.320   0.460   7.156  1.3033  0.1396  2.9012
  182SOPE   H5S20795   1.156   0.398   7.191 -0.2354  2.2998  2.1584
  182SOPE   C2620796   1.319   0.346   7.333 -0.1051  0.4976 -0.2697
  182SOPE   H6R20797   1.274   0.255   7.379  0.3067 -0.0842 -0.9796
  182SOPE   H6S20798   1.428   0.326   7.330  0.3448  2.8358 -2.2672
  182SOPE   C2720799   1.313   0.464   7.426 -0.3113 -0.0508 -0.1390
  182SOPE   H7R20800   1.357   0.555   7.381 -0.6351  1.3219  2.1153
  182SOPE   H7S20801   1.204   0.485   7.436 -0.5569 -0.2238 -2.1118
  182SOPE   C2820802   1.375   0.453   7.568 -0.6763 -1.2815 -0.9982
  182SOPE   H8R20803   1.462   0.386   7.559  0.0198 -0.5837  0.2216
  182SOPE   H8S20804   1.412   0.553   7.599 -3.0191 -0.7706  0.3859
  182SOPE   C2920805   1.277   0.391   7.667 -0.4986 -0.5379  0.2353
  182SOPE   H9120806   1.269   0.282   7.657  1.9843 -0.7158 -0.5516
  182SOPE  C21020807   1.221   0.449   7.778  0.2829 -0.7273 -0.4541
  182SOPE  H10120808   1.156   0.383   7.837 -0.6122  0.8969  0.4409
  182SOPE  C21120809   1.235   0.593   7.827 -0.8101 -0.2451  0.5401
  182SOPE  H11R20810   1.344   0.613   7.829 -0.7422 -0.5204  3.2967
  182SOPE  H11S20811   1.193   0.607   7.928 -3.2031  2.0030 -0.6460
  182SOPE  C21220812   1.176   0.702   7.737  0.5270  0.3673  1.0289
  182SOPE  H12R20813   1.066   0.694   7.747  0.0316  5.0381  1.3642
  182SOPE  H12S20814   1.186   0.675   7.630 -0.3895  1.1984  0.7202
  182SOPE  C21320815   1.220   0.846   7.760  0.6501  0.0896  0.3388
  182SOPE  H13R20816   1.184   0.916   7.681 -2.8244 -1.2691  0.5230
  182SOPE  H13S20817   1.330   0.842   7.749  0.5090 -0.1530 -1.3529
  182SOPE  C21420818   1.196   0.902   7.896 -0.2229  0.3865 -0.1443
  182SOPE  H14R20819   1.239   0.839   7.977 -2.0874 -0.3392  0.3390
  182SOPE  H14S20820   1.087   0.907   7.914 -0.0512 -1.5341  1.8494
  182SOPE  C21520821   1.239   1.049   7.901  0.4852 -0.6392  0.4990
  182SOPE  H15R20822   1.220   1.090   7.800 -0.1458 -1.5526  0.2430
  182SOPE  H15S20823   1.346   1.047   7.931  0.2728 -0.3182  1.3134
  182SOPE  C21620824   1.167   1.131   8.016  0.2569 -0.0772  0.4424
  182SOPE  H16R20825   1.168   1.077   8.114 -1.6518  1.2540  1.2502
  182SOPE  H16S20826   1.059   1.133   7.991  0.3664 -2.2336 -0.4332
  182SOPE  C21720827   1.224   1.270   8.031 -0.5639  1.0982  0.4434
  182SOPE  H17R20828   1.203   1.337   7.945 -2.7091  2.7857  2.1591
  182SOPE  H17S20829   1.334   1.255   8.042 -0.6606 -1.7921 -1.5189
  182SOPE  C21820830   1.164   1.343   8.152  0.8097  0.9507 -0.7542
  182SOPE  H18R20831   1.191   1.304   8.252  1.0399  4.1646  0.5710
  182SOPE  H18S20832   1.054   1.345   8.136  0.9484 -0.1672 -2.0651
  182SOPE  H18T20833   1.188   1.451   8.161 -0.8172  1.2546  0.4030
  182SOPE   C3320834   1.732   0.522   7.152  0.4902 -0.2842  0.7219
  182SOPE   H3X20835   1.715   0.585   7.242  0.3929  0.1143  0.4296
  182SOPE   H3Y20836   1.789   0.583   7.079  0.8000  1.4826  2.3585
  182SOPE   C3420837   1.823   0.411   7.189  1.2152  0.3026 -0.8248
  182SOPE   H4X20838   1.930   0.441   7.173  1.6133 -0.2751  0.6496
  182SOPE   H4Y20839   1.798   0.342   7.106 -1.1914  1.1154 -0.8404
  182SOPE   C3520840   1.802   0.329   7.322 -1.1900 -0.4955 -0.0461
  182SOPE   H5X20841   1.862   0.237   7.303  0.4249  0.6571 -0.8251
  182SOPE   H5Y20842   1.696   0.297   7.323 -0.4550 -3.2055 -0.2602
  182SOPE   C3620843   1.859   0.400   7.449  0.0191 -0.4208 -0.0769
  182SOPE   H6X20844   1.833   0.508   7.455  0.9098 -0.2128  0.2404
  182SOPE   H6Y20845   1.970   0.402   7.438  0.0814  1.7707  0.4287
  182SOPE   C3720846   1.805   0.332   7.582 -0.1217 -0.5601 -0.4937
  182SOPE   H7X20847   1.779   0.227   7.560 -2.2573 -0.2021  0.1196
  182SOPE   H7Y20848   1.713   0.390   7.604 -0.0543 -0.2358 -1.0444
  182SOPE   C3820849   1.902   0.341   7.702 -0.9654 -0.8959  0.3078
  182SOPE   H8X20850   1.917   0.448   7.726  0.0829 -0.8048 -0.6824
  182SOPE   H8Y20851   2.002   0.295   7.685 -0.9047 -0.2968 -1.0971
  182SOPE   C3920852   1.837   0.292   7.832  0.2120  0.0886  0.1012
  182SOPE   H9X20853   1.922   0.286   7.903  0.9783  0.7476 -0.7341
  182SOPE   H9Y20854   1.807   0.187   7.814 -0.9278  0.4413 -0.1525
  182SOPE  C31020855   1.708   0.356   7.890 -0.5962 -0.6301 -0.3459
  182SOPE  H10X20856   1.621   0.373   7.824 -2.2054  0.8311  2.0083
  182SOPE  H10Y20857   1.733   0.457   7.927 -2.0931  0.5499 -2.3924
  182SOPE  C31120858   1.665   0.262   8.009 -0.3347 -0.4269  0.6304
  182SOPE  H11X20859   1.755   0.232   8.065  0.8902  0.6534 -0.6751
  182SOPE  H11Y20860   1.618   0.165   7.982  0.0656 -0.8939  1.5647
  182SOPE  C31220861   1.558   0.343   8.093  0.5918 -0.1792 -0.7903
  182SOPE  H12X20862   1.475   0.376   8.028 -0.9135 -2.5125 -0.1673
  182SOPE  H12Y20863   1.605   0.438   8.127 -0.6210  0.5577 -1.1321
  182SOPE  C31320864   1.523   0.270   8.225  0.9394  0.0198 -0.0634
  182SOPE  H13X20865   1.614   0.235   8.278  2.0263  2.3094 -0.3117
  182SOPE  H13Y20866   1.464   0.180   8.195  1.4954 -0.7602  1.1142
  182SOPE  C31420867   1.440   0.361   8.317  0.5860 -0.4000 -0.0556
  182SOPE  H14X20868   1.341   0.392   8.278  0.4258 -0.3136  0.4087
  182SOPE  H14Y20869   1.493   0.452   8.353 -0.1289  0.9237 -2.1706
  182SOPE  C31520870   1.388   0.294   8.441  0.3289 -0.2026  0.6444
  182SOPE  H15X20871   1.473   0.259   8.504  0.0859  0.3805  1.3092
  182SOPE  H15Y20872   1.326   0.209   8.408  0.3669 -0.0005  0.0444
  182SOPE  C31620873   1.297   0.392   8.533  0.2964 -0.2747  0.4002
  182SOPE  H16X20874   1.206   0.408   8.472  1.1497  0.9004 -0.6006
  182SOPE  H16Y20875   1.338   0.494   8.537  0.8194 -0.4261 -0.8257
  182SOPE  C31720876   1.258   0.347   8.677  0.5336 -0.9293 -0.0642
  182SOPE  H17X20877   1.343   0.331   8.747  1.1730  2.9959  0.2686
  182SOPE  H17Y20878   1.196   0.255   8.668 -1.2614  0.1421  0.8983
  182SOPE  C31820879   1.160   0.448   8.743  0.6168 -0.1561 -0.5678
  182SOPE  H18X20880   1.194   0.550   8.768 -3.6312  1.4818 -0.6713
  182SOPE  H18Y20881   1.126   0.400   8.837  1.1309  0.1693 -0.2131
  182SOPE  H18Z20882   1.070   0.457   8.679  0.1123  1.7963  0.3682
  183SOPE     N20883   4.295   4.306   6.196 -0.0919  0.1564  0.1618
  183SOPE   HN120884   4.217   4.239   6.202 -0.1758  0.2682  0.3315
  183SOPE   HN220885   4.273   4.390   6.139  1.4866  0.0507 -0.6689
  183SOPE   HN320886   4.372   4.257   6.145 -0.4686 -2.6668  2.0858
  183SOPE   C1220887   4.365   4.337   6.325  0.0788 -0.1004 -0.8585
  183SOPE  H12A20888   4.289   4.402   6.373 -0.6717 -1.4260 -0.1872
  183SOPE  H12B20889   4.460   4.392   6.310  0.0338  0.1571 -0.2155
  183SOPE   C1120890   4.387   4.217   6.419  0.4226 -0.0711 -0.4082
  183SOPE  H11A20891   4.301   4.147   6.427  1.1234 -1.0208 -0.9045
  183SOPE  H11B20892   4.406   4.256   6.521  0.4588  0.3171 -0.5623
  183SOPE     P20893   4.508   4.029   6.279  0.0185 -0.2350  0.4008
  183SOPE   O1320894   4.647   3.984   6.252  0.1529 -0.5004 -0.1375
  183SOPE   O1420895   4.423   4.051   6.157 -0.4570  0.9360 -0.0421
  183SOPE   O1220896   4.501   4.148   6.375  0.5022 -0.5183  0.3212
  183SOPE   O1120897   4.442   3.916   6.362 -0.2056  0.0952 -0.4200
  183SOPE    C120898   4.508   3.871   6.485  0.4592 -0.1795  0.4670
  183SOPE    HA20899   4.554   3.955   6.542 -0.8149 -0.2610  1.6651
  183SOPE    HB20900   4.598   3.813   6.454  0.8513  0.0104  1.2286
  183SOPE    C220901   4.424   3.790   6.592 -0.0942 -0.7444  0.1169
  183SOPE    HS20902   4.325   3.834   6.618  0.7183  1.4534 -0.2657
  183SOPE   O2120903   4.505   3.775   6.713 -0.3833  0.2393  0.5425
  183SOPE   C2120904   4.519   3.887   6.781 -0.6575  0.1171 -0.4759
  183SOPE   O2220905   4.450   3.986   6.780  0.0769  0.2724 -0.1827
  183SOPE   C2220906   4.628   3.854   6.884 -0.6866 -0.5159  0.6032
  183SOPE   H2R20907   4.721   3.872   6.826 -0.5263 -0.2247  0.9450
  183SOPE   H2S20908   4.629   3.750   6.925  0.7012 -0.4799  0.6995
  183SOPE    C320909   4.397   3.659   6.527  0.0660 -0.9580 -0.7050
  183SOPE    HX20910   4.491   3.600   6.519  1.0216  0.0029  2.1262
  183SOPE    HY20911   4.354   3.686   6.428 -0.5757  0.1224 -0.1543
  183SOPE   O3120912   4.309   3.588   6.611  0.8241 -0.7165 -0.1303
  183SOPE   C3120913   4.237   3.495   6.556 -0.8140  0.5767 -0.0922
  183SOPE   O3220914   4.243   3.461   6.435 -0.1836 -0.5045  0.1415
  183SOPE   C3220915   4.144   3.428   6.658 -0.0678 -0.3306  0.1429
  183SOPE   H2X20916   4.138   3.502   6.740  0.5123 -1.0423  0.8419
  183SOPE   H2Y20917   4.192   3.332   6.687  0.0010 -0.2664  0.2386
  183SOPE   C2320918   4.631   3.951   7.003 -0.5233 -0.0275 -0.1371
  183SOPE   H3R20919   4.539   3.959   7.065 -0.0387 -0.5536  0.6494
  183SOPE   H3S20920   4.650   4.055   6.968 -0.0717  0.5438  1.7231
  183SOPE   C2420921   4.749   3.920   7.098  0.0992  0.3325  1.1096
  183SOPE   H4R20922   4.729   3.819   7.140 -1.6130 -0.4243 -1.2664
  183SOPE   H4S20923   4.846   3.924   7.044  0.0406  0.8331  1.0408
  183SOPE   C2520924   4.761   4.023   7.216 -0.3767  0.2861  0.4774
  183SOPE   H5R20925   4.810   4.117   7.180 -0.1752 -0.1415 -0.3998
  183SOPE   H5S20926   4.658   4.041   7.253  0.7997  1.1494  3.6125
  183SOPE   C2620927   4.848   3.973   7.334  0.1869  0.8761  0.5615
  183SOPE   H6R20928   4.811   3.870   7.354  1.7982  0.2564  0.5213
  183SOPE   H6S20929   4.953   3.965   7.296  0.0331  0.6473  0.1730
  183SOPE   C2720930   4.848   4.062   7.455  0.0637 -0.3447 -0.3780
  183SOPE   H7R20931   4.880   4.163   7.421  0.4730 -0.2788  0.1820
  183SOPE   H7S20932   4.747   4.068   7.502  0.5813  2.9037  0.5812
  183SOPE   C2820933   4.953   4.016   7.560  0.0751 -0.1419 -0.1095
  183SOPE   H8R20934   4.948   3.905   7.563  0.5049 -0.1561  0.1670
  183SOPE   H8S20935   5.054   4.033   7.517 -0.3875 -0.7702 -1.5015
  183SOPE   C2920936   4.937   4.084   7.695 -0.4736 -0.3107  1.3435
  183SOPE   H9120937   4.914   4.191   7.689 -0.2143 -0.3515 -1.7865
  183SOPE  C21020938   4.942   4.034   7.810  0.6177 -0.0964  0.0497
  183SOPE  H10120939   4.903   4.099   7.890 -0.7143  0.7948 -1.2869
  183SOPE  C21120940   4.958   3.890   7.846 -0.3856 -0.2315  0.9696
  183SOPE  H11R20941   5.067   3.867   7.843 -0.2252  0.3254 -3.4412
  183SOPE  H11S20942   4.906   3.829   7.770  1.7308  0.5962 -1.2876
  183SOPE  C21220943   4.885   3.860   7.972  0.4415  0.0142  0.5090
  183SOPE  H12R20944   4.890   3.749   7.975 -3.1572 -0.7744 -5.3855
  183SOPE  H12S20945   4.779   3.891   7.985  0.5264  1.4542 -1.6540
  183SOPE  C21320946   4.959   3.915   8.094  0.0027  0.0138  0.5536
  183SOPE  H13R20947   4.997   4.013   8.059 -0.1297 -0.6389 -1.5130
  183SOPE  H13S20948   5.046   3.851   8.122  0.0323 -0.9629 -1.5776
  183SOPE  C21420949   4.869   3.968   8.211 -0.4191  0.6029  0.4421
  183SOPE  H14R20950   4.823   3.881   8.263 -0.3744  0.2848 -0.0468
  183SOPE  H14S20951   4.784   4.028   8.170 -0.2206 -0.9160 -2.4567
  183SOPE  C21520952   4.948   4.047   8.312  0.0568 -0.6430  0.4147
  183SOPE  H15R20953   5.013   4.126   8.269 -0.3246  0.4927  1.8556
  183SOPE  H15S20954   5.022   3.980   8.360 -0.2071  0.7623  2.9323
  183SOPE  C21620955   4.864   4.112   8.418  0.2112  0.2852  0.0253
  183SOPE  H16R20956   4.788   4.035   8.443  0.4791 -0.0856 -0.2848
  183SOPE  H16S20957   4.810   4.203   8.385 -0.1250 -0.8220 -2.8650
  183SOPE  C21720958   4.932   4.122   8.554 -0.2701  0.2348  0.2900
  183SOPE  H17R20959   5.026   4.167   8.518  0.1861 -2.2680 -2.0122
  183SOPE  H17S20960   4.953   4.019   8.591 -2.6885 -1.3650 -2.3132
  183SOPE  C21820961   4.857   4.208   8.653 -0.3776  0.1042  0.4842
  183SOPE  H18R20962   4.920   4.218   8.744 -0.1410 -2.5643  0.6856
  183SOPE  H18S20963   4.766   4.153   8.684 -1.4296  1.4463 -0.0874
  183SOPE  H18T20964   4.826   4.305   8.608 -2.2440 -1.0800 -0.9687
  183SOPE   C3320965   3.995   3.394   6.607 -0.1731  0.2812  0.1800
  183SOPE   H3X20966   4.012   3.300   6.550 -1.8247  1.7808 -3.0960
  183SOPE   H3Y20967   3.962   3.468   6.530 -0.8166  0.2959  0.4688
  183SOPE   C3420968   3.899   3.374   6.721 -0.2032 -0.4289  0.3922
  183SOPE   H4X20969   3.803   3.344   6.673 -0.9368  0.7617  1.0833
  183SOPE   H4Y20970   3.878   3.463   6.784  2.3035  0.2400  0.3624
  183SOPE   C3520971   3.947   3.277   6.827 -0.7042  1.0643  0.1175
  183SOPE   H5X20972   4.011   3.329   6.901 -1.6617  1.4374  0.6943
  183SOPE   H5Y20973   3.999   3.195   6.773  1.5508  1.9784  0.7889
  183SOPE   C3620974   3.830   3.219   6.899  0.9330 -0.2842 -0.0282
  183SOPE   H6X20975   3.850   3.118   6.942  0.4685  1.0672  3.7227
  183SOPE   H6Y20976   3.748   3.201   6.826  1.1577  0.2464 -0.4146
  183SOPE   C3720977   3.766   3.299   7.013 -0.1061 -0.0551 -0.1225
  183SOPE   H7X20978   3.689   3.247   7.076 -1.8418 -0.8407 -2.7265
  183SOPE   H7Y20979   3.714   3.382   6.961 -2.1032 -0.9289  0.3476
  183SOPE   C3820980   3.854   3.370   7.122 -0.4970  0.6455 -0.4745
  183SOPE   H8X20981   3.898   3.463   7.080  0.4929  1.3362  1.9123
  183SOPE   H8Y20982   3.940   3.302   7.143 -2.1285 -0.9560  1.4902
  183SOPE   C3920983   3.788   3.393   7.263 -0.2899 -0.4452  0.2589
  183SOPE   H9X20984   3.687   3.437   7.243 -0.5343 -1.4350 -0.7625
  183SOPE   H9Y20985   3.847   3.477   7.305 -0.9849  0.5429 -0.6823
  183SOPE  C31020986   3.778   3.287   7.370 -0.0169 -0.2163  0.5266
  183SOPE  H10X20987   3.871   3.226   7.376  1.0605  1.3304  0.2434
  183SOPE  H10Y20988   3.694   3.217   7.349  0.1279 -0.2385  0.0039
  183SOPE  C31120989   3.727   3.351   7.504 -0.3900 -0.0073 -0.7965
  183SOPE  H11X20990   3.635   3.411   7.489 -1.3877 -1.2049  0.2228
  183SOPE  H11Y20991   3.805   3.429   7.513  0.2825 -0.7132 -0.4343
  183SOPE  C31220992   3.716   3.250   7.614 -0.3873  0.3915 -0.0466
  183SOPE  H12X20993   3.810   3.191   7.617 -1.6196 -1.6540  2.2196
  183SOPE  H12Y20994   3.641   3.177   7.577  1.8218 -2.1642  0.2194
  183SOPE  C31320995   3.691   3.305   7.752 -0.6773  0.0524  0.0028
  183SOPE  H13X20996   3.597   3.364   7.743 -1.3277 -0.8825  0.6017
  183SOPE  H13Y20997   3.770   3.373   7.790  0.6963 -2.5290  2.1198
  183SOPE  C31420998   3.669   3.186   7.853  0.0751 -0.1795  0.4142
  183SOPE  H14X20999   3.762   3.126   7.861 -0.0872 -0.1709  3.4604
  183SOPE  H14Y21000   3.591   3.114   7.821 -1.2887  1.5282 -0.2538
  183SOPE  C31521001   3.626   3.231   7.990  0.0707 -0.4946 -0.1491
  183SOPE  H15X21002   3.532   3.291   7.993  0.2998 -0.1068 -0.5093
  183SOPE  H15Y21003   3.710   3.287   8.036  1.2729 -1.5301 -1.0303
  183SOPE  C31621004   3.602   3.112   8.085 -0.2331 -0.2018 -0.2414
  183SOPE  H16X21005   3.696   3.054   8.089 -0.5052 -0.6205  0.1488
  183SOPE  H16Y21006   3.526   3.040   8.047 -0.2586  0.1472 -0.8681
  183SOPE  C31721007   3.562   3.168   8.222  0.7720  0.3738 -1.0953
  183SOPE  H17X21008   3.484   3.248   8.226  0.7193  0.3875  3.6644
  183SOPE  H17Y21009   3.652   3.214   8.269 -0.9913  0.8828  2.0962
  183SOPE  C31821010   3.513   3.055   8.315 -0.0374  0.8552 -0.3920
  183SOPE  H18X21011   3.425   2.998   8.278  1.3974 -1.1718 -0.8572
  183SOPE  H18Y21012   3.485   3.104   8.411 -0.6039 -1.8445  0.9413
  183SOPE  H18Z21013   3.592   2.982   8.346 -1.2881  0.6950  2.8674
  184SOPE     N21014   4.449   4.860   6.135  0.0377  0.5870 -0.3896
  184SOPE   HN121015   4.467   4.956   6.169 -0.9353  0.8638 -0.6213
  184SOPE   HN221016   4.531   4.829   6.078 -0.9104 -0.6803 -1.1274
  184SOPE   HN321017   4.368   4.853   6.070 -1.5438  0.8018  1.4918
  184SOPE   C1221018   4.426   4.764   6.244  0.5442 -0.1524 -0.0388
  184SOPE  H12A21019   4.518   4.770   6.306  0.4114  0.4630  0.0998
  184SOPE  H12B21020   4.424   4.661   6.203  2.8082 -0.1198 -0.3730
  184SOPE   C1121021   4.295   4.791   6.323 -0.5586 -0.3774  0.3177
  184SOPE  H11A21022   4.304   4.889   6.375 -0.9307 -0.3624  0.3617
  184SOPE  H11B21023   4.282   4.710   6.398 -2.4359 -1.1813 -0.7892
  184SOPE     P21024   4.089   4.663   6.208 -0.0187 -0.2418  0.4772
  184SOPE   O1321025   4.165   4.551   6.138 -0.3663  0.2689 -0.0951
  184SOPE   O1421026   3.982   4.721   6.130  1.0050  0.1851 -0.5685
  184SOPE   O1221027   4.191   4.785   6.233  0.5443 -0.0124  0.3245
  184SOPE   O1121028   4.035   4.612   6.347 -0.6327 -0.2018  0.0107
  184SOPE    C121029   4.002   4.697   6.456  0.5792  0.0728 -0.2038
  184SOPE    HA21030   3.933   4.777   6.422 -0.3200 -0.7260 -0.2745
  184SOPE    HB21031   4.093   4.732   6.510  0.2592 -1.7026  1.5993
  184SOPE    C221032   3.914   4.623   6.558 -0.0585 -0.8216 -0.4490
  184SOPE    HS21033   3.934   4.656   6.662  0.6405 -0.4165 -0.7094
  184SOPE   O2121034   3.935   4.482   6.558 -0.4414 -0.1362  0.4760
  184SOPE   C2121035   4.061   4.455   6.603  0.2258  0.1622  0.8379
  184SOPE   O2221036   4.148   4.537   6.634 -0.0504 -0.0815  0.2058
  184SOPE   C2221037   4.083   4.308   6.609  1.1954 -0.7678  0.3190
  184SOPE   H2R21038   4.089   4.276   6.503  0.0129 -0.7763  0.2458
  184SOPE   H2S21039   3.989   4.267   6.652 -0.0488  0.8448 -0.7413
  184SOPE    C321040   3.767   4.656   6.536  0.2416  0.5018  0.1346
  184SOPE    HX21041   3.738   4.595   6.448  1.7013 -1.1638  0.7400
  184SOPE    HY21042   3.753   4.763   6.513  0.2102  0.4239 -0.2044
  184SOPE   O3121043   3.690   4.606   6.649 -0.3156 -0.2616  0.6117
  184SOPE   C3121044   3.562   4.629   6.646  0.5289  0.0285  0.2301
  184SOPE   O3221045   3.495   4.670   6.550 -0.2106 -0.2226  0.4833
  184SOPE   C3221046   3.504   4.585   6.775  0.1708 -0.6618 -0.2934
  184SOPE   H2X21047   3.591   4.562   6.840  0.3145 -1.2829 -0.6937
  184SOPE   H2Y21048   3.445   4.493   6.757  0.0006 -0.1368 -2.8340
  184SOPE   C2321049   4.197   4.258   6.710  0.0098 -0.6511  0.1732
  184SOPE   H3R21050   4.295   4.304   6.687 -1.5761  3.3698  0.6259
  184SOPE   H3S21051   4.199   4.148   6.695  0.2342 -0.6582  0.2613
  184SOPE   C2421052   4.169   4.295   6.861 -0.5174  0.2218 -0.0158
  184SOPE   H4R21053   4.200   4.400   6.873 -0.1830  0.0634  0.5118
  184SOPE   H4S21054   4.062   4.270   6.882  0.2256 -1.8741  1.6712
  184SOPE   C2521055   4.254   4.218   6.961  0.3055  0.1875 -0.5394
  184SOPE   H5R21056   4.229   4.110   6.956  0.4257 -0.0484  2.0983
  184SOPE   H5S21057   4.359   4.237   6.930  0.1972  6.2150  1.4334
  184SOPE   C2621058   4.249   4.267   7.106 -0.1891  0.5816  0.4143
  184SOPE   H6R21059   4.293   4.368   7.117 -0.1308  0.7023 -0.7581
  184SOPE   H6S21060   4.141   4.273   7.129 -0.3149  0.7064 -0.2029
  184SOPE   C2721061   4.314   4.161   7.202 -0.4135  0.0686 -0.6246
  184SOPE   H7R21062   4.275   4.068   7.155 -0.8427  1.2985 -2.8412
  184SOPE   H7S21063   4.421   4.162   7.174 -1.0824  0.8994 -3.4418
  184SOPE   C2821064   4.283   4.170   7.350 -0.2217 -1.1853  0.3951
  184SOPE   H8R21065   4.180   4.144   7.380 -0.6378 -0.1326 -0.0577
  184SOPE   H8S21066   4.355   4.108   7.409  0.9602  1.1642  1.6032
  184SOPE   C2921067   4.297   4.315   7.395 -0.0592  0.1457  0.7049
  184SOPE   H9121068   4.238   4.393   7.346  3.1065  1.6517 -1.0312
  184SOPE  C21021069   4.373   4.362   7.490 -0.5283  0.2113 -0.1582
  184SOPE  H10121070   4.383   4.470   7.505 -2.8687  0.5347 -0.4777
  184SOPE  C21121071   4.453   4.280   7.582  0.0782 -0.2278 -0.2779
  184SOPE  H11R21072   4.563   4.299   7.574  0.8804 -3.8534  0.0212
  184SOPE  H11S21073   4.441   4.170   7.574 -2.2919  0.0635 -1.2318
  184SOPE  C21221074   4.413   4.312   7.727  0.4092  0.1221  0.1429
  184SOPE  H12R21075   4.303   4.296   7.730  0.3671  0.5138  1.0519
  184SOPE  H12S21076   4.436   4.418   7.747 -2.1055  1.1651 -1.9253
  184SOPE  C21321077   4.498   4.227   7.828  0.4180 -0.3652  0.2969
  184SOPE  H13R21078   4.604   4.258   7.814  0.4410 -0.0833  1.0515
  184SOPE  H13S21079   4.491   4.119   7.805 -0.6438 -0.9949  3.1237
  184SOPE  C21421080   4.466   4.234   7.974  0.1006  0.2268 -0.1809
  184SOPE  H14R21081   4.360   4.203   7.990 -0.0442  0.1762 -1.1516
  184SOPE  H14S21082   4.484   4.341   7.998  0.2374  0.2244 -0.2724
  184SOPE  C21521083   4.553   4.142   8.059 -0.1432 -0.1181  0.4960
  184SOPE  H15R21084   4.657   4.181   8.060  0.3540 -1.3560 -0.4994
  184SOPE  H15S21085   4.557   4.047   8.002  0.3953  0.0950  0.1758
  184SOPE  C21621086   4.501   4.121   8.199 -0.8114 -0.0796 -1.0047
  184SOPE  H16R21087   4.547   4.027   8.237 -1.3128  0.2736  0.5902
  184SOPE  H16S21088   4.390   4.108   8.194 -0.9355  1.4462 -3.9082
  184SOPE  C21721089   4.537   4.242   8.294 -0.4772 -0.2075  0.4186
  184SOPE  H17R21090   4.466   4.319   8.257 -1.5422 -0.3937  1.9784
  184SOPE  H17S21091   4.640   4.278   8.273 -0.3792 -0.0996  1.0657
  184SOPE  C21821092   4.517   4.223   8.442  0.1777  0.0965 -0.1301
  184SOPE  H18R21093   4.411   4.195   8.457  0.7553 -2.7030 -0.8414
  184SOPE  H18S21094   4.545   4.314   8.500  0.1364  0.1659 -0.2172
  184SOPE  H18T21095   4.568   4.137   8.489 -1.4014 -1.7877 -1.7006
  184SOPE   C3321096   3.420   4.695   6.848  0.5950 -0.0688 -0.0724
  184SOPE   H3X21097   3.356   4.748   6.773 -2.0315 -0.8747  1.4616
  184SOPE   H3Y21098   3.491   4.768   6.894  0.1999  0.4130 -0.2114
  184SOPE   C3421099   3.330   4.627   6.954 -0.0240  0.3682  0.3956
  184SOPE   H4X21100   3.263   4.550   6.908 -1.8208  1.9770  0.2094
  184SOPE   H4Y21101   3.265   4.707   6.993  0.1830  0.4354  0.6054
  184SOPE   C3521102   3.393   4.576   7.079 -0.1743  0.0185  0.0974
  184SOPE   H5X21103   3.445   4.653   7.140 -2.0762  0.2279  1.5625
  184SOPE   H5Y21104   3.478   4.509   7.052 -0.6561 -0.1637 -1.0002
  184SOPE   C3621105   3.303   4.490   7.175  0.5093 -0.0594  0.8585
  184SOPE   H6X21106   3.248   4.421   7.107  1.2500 -0.5818  0.7685
  184SOPE   H6Y21107   3.221   4.559   7.203  1.5158  0.6319  2.1452
  184SOPE   C3721108   3.369   4.416   7.288 -0.0552 -0.3443 -0.5037
  184SOPE   H7X21109   3.419   4.498   7.344  0.1194 -0.7210 -0.0960
  184SOPE   H7Y21110   3.466   4.370   7.257  1.8694  1.2042  2.6491
  184SOPE   C3821111   3.279   4.334   7.388 -0.0104  0.4580  0.9536
  184SOPE   H8X21112   3.344   4.283   7.461  1.6554 -2.0759 -2.0717
  184SOPE   H8Y21113   3.248   4.241   7.336  0.1105  0.6293  0.5672
  184SOPE   C3921114   3.159   4.411   7.443 -0.3489  0.3072  0.1965
  184SOPE   H9X21115   3.108   4.341   7.512 -0.5208 -0.9294 -1.1372
  184SOPE   H9Y21116   3.082   4.433   7.366  0.7225  0.8526 -0.7507
  184SOPE  C31021117   3.197   4.536   7.526 -0.5115 -0.1412 -0.4642
  184SOPE  H10X21118   3.250   4.611   7.463 -0.2699 -0.0086 -0.1054
  184SOPE  H10Y21119   3.269   4.503   7.604 -0.9037 -0.0438 -0.0563
  184SOPE  C31121120   3.070   4.598   7.591 -0.2025  0.0070  0.6459
  184SOPE  H11X21121   2.989   4.584   7.516  1.3224 -0.0632 -1.0458
  184SOPE  H11Y21122   3.090   4.707   7.604  2.2036  0.0182 -2.0719
  184SOPE  C31221123   3.038   4.532   7.728  0.1771  0.1446 -0.0929
  184SOPE  H12X21124   3.133   4.532   7.786 -0.4257  1.3562  0.9302
  184SOPE  H12Y21125   3.013   4.424   7.717  0.7153  0.2178 -2.5826
  184SOPE  C31321126   2.921   4.599   7.804  0.3853  0.4901  0.4174
  184SOPE  H13X21127   2.821   4.579   7.760  0.5233  0.0913  0.2786
  184SOPE  H13Y21128   2.925   4.709   7.813 -2.0305  0.4507  3.0809
  184SOPE  C31421129   2.913   4.552   7.950 -1.0920 -0.3438 -0.8050
  184SOPE  H14X21130   3.012   4.539   8.000 -0.9806  0.8405 -0.6841
  184SOPE  H14Y21131   2.865   4.452   7.957 -0.0265 -0.7970  0.4391
  184SOPE  C31521132   2.813   4.640   8.039 -0.6116 -0.2295  0.1271
  184SOPE  H15X21133   2.727   4.643   7.969 -0.2402 -4.7384 -0.8269
  184SOPE  H15Y21134   2.847   4.744   8.058 -0.6236  0.1532 -1.7691
  184SOPE  C31621135   2.768   4.589   8.176  0.1963 -0.0977 -0.5907
  184SOPE  H16X21136   2.850   4.591   8.250  0.0087 -0.8256 -0.3536
  184SOPE  H16Y21137   2.733   4.484   8.161  0.5593 -0.5194  1.2176
  184SOPE  C31721138   2.647   4.668   8.222 -0.1565  0.0728  0.0331
  184SOPE  H17X21139   2.680   4.773   8.208  2.2173 -0.7514 -0.9527
  184SOPE  H17Y21140   2.621   4.646   8.328  0.5102  0.0349  0.1956
  184SOPE  C31821141   2.519   4.653   8.131 -0.4295 -0.5643 -0.4435
  184SOPE  H18X21142   2.516   4.549   8.093 -1.2721 -0.4516 -0.6976
  184SOPE  H18Y21143   2.518   4.721   8.044  0.2580  1.3874  1.0049
  184SOPE  H18Z21144   2.428   4.664   8.194  1.0556  1.8193  1.5048
  185SAPI   C1221145   0.989   0.195  11.124  0.0621 -0.1967 -0.7333
  185SAPI    H221146   0.990   0.300  11.158 -0.0510  0.0939 -1.6132
  185SAPI    O221147   1.005   0.115  11.244 -0.1871  0.1421  0.1496
  185SAPI   HO221148   0.928   0.119  11.301  0.0427 -2.6543  0.7897
  185SAPI   C1321149   0.860   0.162  11.053 -0.0980 -0.0711 -0.3493
  185SAPI    H321150   0.844   0.238  10.973  1.9967 -0.9264 -1.6438
  185SAPI    O321151   0.748   0.167  11.146  1.3994  0.4331  0.3299
  185SAPI   HO321152   0.669   0.132  11.106  2.6083 -1.6052 -0.3932
  185SAPI   C1421153   0.864   0.027  10.987  0.5717  0.0706 -0.1677
  185SAPI    H421154   0.856  -0.043  11.073 -0.8816  2.0675  1.4030
  185SAPI    O421155   0.738  -0.002  10.915  0.2133 -0.3473 -0.4676
  185SAPI   HO421156   0.695  -0.071  10.966 -2.9082  2.3129  0.8552
  185SAPI   C1521157   0.990   0.011  10.897  0.0589  0.6209  0.5865
  185SAPI    H521158   0.981   0.090  10.820  0.9737  0.6159  0.4589
  185SAPI    O521159   0.998  -0.121  10.830  0.1631 -0.0703 -0.4577
  185SAPI   HO521160   0.923  -0.115  10.769  1.8631  1.6274 -2.5634
  185SAPI   C1621161   1.115   0.041  10.978  0.4987  0.0291 -0.3510
  185SAPI    H621162   1.134  -0.034  11.058  2.0469 -0.4147 -1.1052
  185SAPI    O621163   1.222   0.036  10.893 -0.4442  0.3377  0.1034
  185SAPI   HO621164   1.236   0.129  10.872  1.9560  0.0225  0.0280
  185SAPI   C1121165   1.103   0.182  11.037 -0.7252 -0.4923  0.7850
  185SAPI    H121166   1.086   0.246  10.948 -0.7405 -1.9552 -0.3060
  185SAPI     P21167   1.305   0.353  11.051  0.4293  0.1578 -0.0987
  185SAPI   O1321168   1.432   0.373  11.113 -0.0493  0.6253 -0.5703
  185SAPI   O1421169   1.221   0.472  11.066  0.5155 -0.7396  0.1376
  185SAPI   O1221170   1.224   0.214  11.096  0.1499 -0.1465  0.3344
  185SAPI   O1121171   1.322   0.318  10.901  0.0525 -0.5189 -0.0314
  185SAPI    C121172   1.422   0.369  10.807 -0.0208  0.6874 -0.3759
  185SAPI    HA21173   1.465   0.459  10.855 -1.9278  2.3702 -1.6589
  185SAPI    HB21174   1.494   0.285  10.795 -0.5219  0.5485 -3.2249
  185SAPI    C221175   1.361   0.410  10.670 -0.7402 -0.9475  0.2893
  185SAPI    HS21176   1.268   0.470  10.674 -1.3406 -1.8154 -0.3099
  185SAPI   O2121177   1.337   0.294  10.599 -0.1371 -0.4528  0.3372
  185SAPI   C2121178   1.222   0.237  10.599  0.4879  0.2318 -0.1808
  185SAPI   O2221179   1.119   0.289  10.642 -0.5265  0.0818  0.1670
  185SAPI   C2221180   1.228   0.110  10.523  0.5460  0.5849  0.2396
  185SAPI   H2R21181   1.280   0.137  10.429 -0.4007 -0.6492 -0.6817
  185SAPI   H2S21182   1.298   0.046  10.581 -0.0947  1.3737  1.9706
  185SAPI    C321183   1.479   0.486  10.599 -0.6485  0.0308 -0.1322
  185SAPI    HX21184   1.568   0.420  10.608 -1.4514 -0.9217  1.2980
  185SAPI    HY21185   1.486   0.581  10.656 -0.6410 -0.1650  0.1961
  185SAPI   O3121186   1.444   0.523  10.465  0.2088 -0.7740 -0.2011
  185SAPI   C3121187   1.503   0.468  10.360  0.1823 -0.2773  0.2577
  185SAPI   O3221188   1.578   0.375  10.370  0.2865  0.4547 -0.3346
  185SAPI   C3221189   1.456   0.529  10.232 -0.2989  0.2049 -0.6602
  185SAPI   H2X21190   1.532   0.603  10.200 -2.5901  2.5746 -1.0509
  185SAPI   H2Y21191   1.362   0.585  10.253 -0.8046 -0.4473 -1.1500
  185SAPI   C2321192   1.098   0.038  10.489  0.1538 -0.0843  0.2537
  185SAPI   H3R21193   1.026   0.100  10.432  0.0223  0.2823  0.8118
  185SAPI   H3S21194   1.052  -0.006  10.580 -0.3767 -0.5429 -0.2296
  185SAPI   C2421195   1.136  -0.074  10.387 -0.2030  0.8117  0.5228
  185SAPI   H4R21196   1.205  -0.148  10.432  0.7813 -0.2909 -2.5074
  185SAPI   H4S21197   1.191  -0.040  10.297  1.2791 -1.1355  0.6280
  185SAPI   C2521198   1.010  -0.153  10.345 -0.2631  0.1140  1.0759
  185SAPI   H5R21199   0.968  -0.210  10.429 -1.3745  2.8162  2.4708
  185SAPI   C2621200   0.948  -0.155  10.223  0.5066 -1.1097  0.4914
  185SAPI   H6R21201   0.870  -0.229  10.202  3.0180 -3.2947 -1.9427
  185SAPI   C2721202   0.977  -0.075  10.100 -0.5609 -0.0566  0.2992
  185SAPI   H7R21203   1.028   0.017  10.137  0.1663  0.1820 -1.2364
  185SAPI   H7S21204   0.882  -0.053  10.048  2.0078  1.3305 -4.3777
  185SAPI   C2821205   1.075  -0.160  10.013 -0.3268 -0.1503 -0.4891
  185SAPI   H8R21206   1.167  -0.199  10.060  0.0984 -0.0210 -1.1973
  185SAPI   C2921207   1.061  -0.203   9.888  0.4082  0.3187  0.0851
  185SAPI   H9R21208   1.144  -0.251   9.834  2.6833 -0.3040  3.7732
  185SAPI  C21021209   0.939  -0.166   9.808  0.3957  0.6081  0.2870
  185SAPI  H10R21210   0.845  -0.143   9.863  0.5384 -1.0882  1.3176
  185SAPI  H10S21211   0.906  -0.257   9.752  0.4592  1.2679 -0.8598
  185SAPI  C21121212   0.979  -0.061   9.702 -0.4941  0.9696 -0.3092
  185SAPI  H11R21213   1.017   0.032   9.748 -1.1890  2.4355 -2.5467
  185SAPI  C21221214   0.986  -0.082   9.571 -0.7953  0.0835  0.0479
  185SAPI  H12R21215   1.001   0.011   9.515 -1.3770  1.2974  1.8306
  185SAPI  C21321216   0.946  -0.208   9.496 -0.0157  0.1304 -0.5520
  185SAPI  H13R21217   0.851  -0.258   9.525 -1.2846  2.8499  0.2920
  185SAPI  H13S21218   1.030  -0.277   9.521  1.6572  3.3550  4.1870
  185SAPI  C21421219   0.937  -0.197   9.343  0.2087  0.0394 -0.3705
  185SAPI  H14R21220   0.846  -0.229   9.291  0.7799  2.1420 -2.8730
  185SAPI  C21521221   1.035  -0.151   9.265  0.7106  0.1281  1.2607
  185SAPI  H15R21222   1.007  -0.155   9.159  1.2881 -1.8640  1.1437
  185SAPI  C21621223   1.168  -0.088   9.288  0.1399 -0.9629  0.3020
  185SAPI  H16R21224   1.175  -0.052   9.393  0.5875 -0.4776  0.1104
  185SAPI  H16S21225   1.172   0.002   9.223  0.6996 -1.1150  0.1205
  185SAPI  C21721226   1.289  -0.168   9.253 -0.4159 -0.4106 -0.3594
  185SAPI  H17R21227   1.290  -0.258   9.319 -0.7600  0.7409  1.2942
  185SAPI  H17S21228   1.377  -0.105   9.278 -0.2508 -1.1677  1.1072
  185SAPI  C21821229   1.307  -0.196   9.099  0.0059 -0.1653  0.8329
  185SAPI  H18R21230   1.210  -0.247   9.079 -0.3835  0.6769  0.5360
  185SAPI  H18S21231   1.389  -0.264   9.069  3.0013  3.1812  0.7347
  185SAPI  C21921232   1.328  -0.066   9.013 -0.1989 -0.4216 -0.0163
  185SAPI  H19R21233   1.415  -0.008   9.048 -0.1411  0.3636 -1.3946
  185SAPI  H19S21234   1.239   0.000   9.021  0.8148  0.8308  1.3822
  185SAPI  C22021235   1.361  -0.120   8.871  0.1270 -0.4102 -0.7310
  185SAPI  H20R21236   1.450  -0.185   8.869 -0.5048 -1.4342  1.4854
  185SAPI  H20S21237   1.396  -0.035   8.809  1.6471  0.4605  1.2055
  185SAPI  H20T21238   1.272  -0.168   8.825 -0.7691  1.5630 -1.1690
  185SAPI   C3321239   1.440   0.416  10.120  0.5031  0.0751  0.0301
  185SAPI   H3X21240   1.353   0.352  10.148  0.2449 -1.1878 -3.1439
  185SAPI   H3Y21241   1.533   0.356  10.110  1.0169  0.6944  0.9500
  185SAPI   C3421242   1.407   0.485   9.992  1.4578 -0.4254  1.2803
  185SAPI   H4X21243   1.493   0.552   9.970  0.3224  1.2146  1.7244
  185SAPI   H4Y21244   1.320   0.551  10.009  2.0732  0.3125  1.6379
  185SAPI   C3521245   1.367   0.389   9.871 -0.7889 -1.0895 -0.5933
  185SAPI   H5X21246   1.435   0.301   9.872  1.5756  0.6380 -0.6015
  185SAPI   H5Y21247   1.378   0.445   9.776  0.1201  1.4735  0.9271
  185SAPI   C3621248   1.220   0.344   9.882 -0.1212 -0.6003  0.1715
  185SAPI   H6X21249   1.161   0.428   9.923  1.6426  1.2405 -0.8752
  185SAPI   H6Y21250   1.212   0.259   9.953  0.1660 -0.5838  0.2276
  185SAPI   C3721251   1.148   0.284   9.755  0.1571 -0.4097  0.3375
  185SAPI   H7X21252   1.046   0.245   9.777  0.6367 -1.4188  0.8283
  185SAPI   H7Y21253   1.207   0.193   9.733  2.1335  0.4822  1.6478
  185SAPI   C3821254   1.141   0.379   9.635 -0.2022 -0.4791 -0.6390
  185SAPI   H8X21255   1.241   0.411   9.599 -1.1507  1.6592 -1.5617
  185SAPI   H8Y21256   1.087   0.469   9.672  0.8129 -0.6799  1.4943
  185SAPI   C3921257   1.059   0.327   9.525  0.2950  0.0653  0.5765
  185SAPI   H9X21258   0.960   0.297   9.565  0.2278  2.4567  2.4256
  185SAPI   H9Y21259   1.099   0.239   9.469 -2.3425 -1.5365  1.0391
  185SAPI  C31021260   1.038   0.429   9.407  0.1693  1.2562 -0.5494
  185SAPI  H10X21261   1.134   0.485   9.396  1.3692 -0.5107  0.2884
  185SAPI  H10Y21262   0.963   0.503   9.441 -1.2808 -1.1525  1.9288
  185SAPI  C31121263   1.024   0.347   9.276  0.5179 -0.7353 -0.2871
  185SAPI  H11X21264   1.111   0.278   9.276  1.5209  0.4844 -0.6147
  185SAPI  H11Y21265   1.046   0.406   9.184 -2.1302  1.5274  0.3884
  185SAPI  C31221266   0.889   0.263   9.254 -0.2598 -0.0389  0.8778
  185SAPI  H12X21267   0.803   0.329   9.230 -0.1975  0.2006  1.3250
  185SAPI  H12Y21268   0.871   0.204   9.346  2.0864 -3.6903 -0.7366
  185SAPI  C31321269   0.909   0.163   9.140  0.2144 -0.1744  0.1109
  185SAPI  H13X21270   0.840   0.076   9.151 -0.7421  0.5259 -0.1797
  185SAPI  H13Y21271   1.011   0.119   9.135 -0.8437 -2.7042 -1.3363
  185SAPI  C31421272   0.867   0.225   9.004  0.2673  0.4127 -0.3251
  185SAPI  H14X21273   0.943   0.296   8.967  1.1749 -0.8426 -0.9591
  185SAPI  H14Y21274   0.771   0.280   9.018  0.5235  1.0998 -1.2449
  185SAPI  C31521275   0.848   0.109   8.903  0.4347  0.3387 -0.7498
  185SAPI  H15X21276   0.763   0.045   8.932 -0.3262  1.0049 -1.4607
  185SAPI  H15Y21277   0.945   0.056   8.916  0.5240  0.1916 -1.9382
  185SAPI  C31621278   0.837   0.153   8.748 -0.0835  0.4592  0.5523
  185SAPI  H16X21279   0.914   0.231   8.729  1.5959 -0.9805  1.2019
  185SAPI  H16Y21280   0.740   0.204   8.732  0.4465  1.8223  1.4829
  185SAPI  C31721281   0.853   0.020   8.670 -0.1523  0.2122 -0.1770
  185SAPI  H17X21282   0.788   0.018   8.580  0.1000  0.1508 -0.3580
  185SAPI  H17Y21283   0.825  -0.071   8.727  0.8373  0.0277  0.0352
  185SAPI  C31821284   1.005   0.010   8.621  0.3896  0.1889  0.1668
  185SAPI  H18X21285   1.003  -0.080   8.555 -1.4976  0.5959 -0.4028
  185SAPI  H18Y21286   1.069  -0.001   8.711  1.2263 -2.7071 -0.6772
  185SAPI  H18Z21287   1.024   0.102   8.563 -2.4224  1.1005  0.5193
  186SAPI   C1221288   0.914   4.448  10.616 -0.3613 -0.3491  0.1441
  186SAPI    H221289   0.830   4.500  10.566 -0.5096  1.0260  1.7158
  186SAPI    O221290   0.985   4.355  10.534  0.8865  0.3461  0.3804
  186SAPI   HO221291   0.981   4.385  10.443  0.0861 -1.1667 -0.1159
  186SAPI   C1321292   1.005   4.548  10.673  0.5323 -0.2579  0.2824
  186SAPI    H321293   0.949   4.615  10.742  0.1901  1.1465 -1.3059
  186SAPI    O321294   1.056   4.625  10.563  0.4142  0.4995 -0.4911
  186SAPI   HO321295   1.106   4.564  10.508 -0.0153 -2.0348  1.7042
  186SAPI   C1421296   1.119   4.480  10.750 -0.5565 -0.1865 -0.3786
  186SAPI    H421297   1.182   4.413  10.687 -1.3432 -2.2158  0.9079
  186SAPI    O421298   1.211   4.579  10.806 -0.0216  0.3700  0.1679
  186SAPI   HO421299   1.288   4.528  10.834  0.1401  1.5228  1.9632
  186SAPI   C1521300   1.057   4.403  10.874 -0.4984  0.0258  0.3131
  186SAPI    H521301   1.014   4.487  10.934  2.4370  1.5146  0.5396
  186SAPI    O521302   1.153   4.336  10.958  0.6842 -0.4131 -0.3482
  186SAPI   HO521303   1.201   4.272  10.905  0.6287  0.1850 -1.1487
  186SAPI   C1621304   0.950   4.312  10.827 -0.6420  0.7662 -0.0057
  186SAPI    H621305   1.003   4.232  10.771 -3.0267  0.1620 -1.5451
  186SAPI    O621306   0.881   4.250  10.934 -0.3615 -0.4913  0.8001
  186SAPI   HO621307   0.890   4.156  10.921  1.2018 -0.3013  0.4049
  186SAPI   C1121308   0.856   4.373  10.732  0.0572  0.7652 -0.2693
  186SAPI    H121309   0.792   4.446  10.787  1.1432 -0.0089  2.1536
  186SAPI     P21310   0.603   4.306  10.675 -0.1240  0.0645  0.0893
  186SAPI   O1321311   0.555   4.383  10.790  0.0831 -0.2336 -0.2742
  186SAPI   O1421312   0.539   4.175  10.654  0.0027 -0.3175 -0.0366
  186SAPI   O1221313   0.766   4.276  10.684 -0.2256  0.2864  0.0821
  186SAPI   O1121314   0.594   4.397  10.544  0.0739 -0.2674 -0.2148
  186SAPI    C121315   0.564   4.338  10.414 -0.1943 -0.1168 -0.3333
  186SAPI    HA21316   0.538   4.230  10.420  3.0381 -0.9782  0.4594
  186SAPI    HB21317   0.486   4.400  10.365  1.1882  0.2922 -2.1341
  186SAPI    C221318   0.685   4.344  10.319 -0.8312  0.1810  0.6220
  186SAPI    HS21319   0.761   4.284  10.372  0.3673  0.4475 -0.7509
  186SAPI   O2121320   0.718   4.484  10.314 -0.0172 -0.2678 -0.5134
  186SAPI   C2121321   0.839   4.523  10.279  0.2807 -0.3963 -0.0970
  186SAPI   O2221322   0.937   4.450  10.281  0.0815 -0.2751 -0.4453
  186SAPI   C2221323   0.838   4.666  10.244 -0.3929  0.5217 -0.1572
  186SAPI   H2R21324   0.794   4.670  10.142  0.8723 -3.4495 -1.0123
  186SAPI   H2S21325   0.772   4.716  10.319 -1.2174  2.3035 -1.9507
  186SAPI    C321326   0.653   4.290  10.176 -0.4016  0.5538  0.2258
  186SAPI    HX21327   0.566   4.350  10.143  0.1360  0.9702 -0.4818
  186SAPI    HY21328   0.621   4.186  10.194 -0.9029  0.5378 -0.6878
  186SAPI   O3121329   0.751   4.320  10.070  0.2119 -0.2121 -0.7724
  186SAPI   C3121330   0.860   4.245  10.065  0.5670 -0.1668 -0.7971
  186SAPI   O3221331   0.893   4.158  10.139 -0.9578  0.1705 -0.7462
  186SAPI   C3221332   0.947   4.299   9.963  0.2915  0.1007  0.3303
  186SAPI   H2X21333   1.038   4.237   9.977 -0.7538 -1.5268  0.2329
  186SAPI   H2Y21334   0.960   4.407   9.984  2.7872  0.1120 -0.8797
  186SAPI   C2321335   0.973   4.740  10.251  0.8113  0.7137  0.1268
  186SAPI   H3R21336   1.043   4.679  10.191  2.2135 -0.0692  2.4273
  186SAPI   H3S21337   1.019   4.742  10.352  0.5853  1.8566  0.2206
  186SAPI   C2421338   0.947   4.878  10.177 -0.0181 -0.1415 -0.0561
  186SAPI   H4R21339   0.860   4.933  10.218 -0.0560 -0.6391  0.5438
  186SAPI   H4S21340   0.923   4.846  10.074 -0.9410 -1.1951  0.4593
  186SAPI   C2521341   1.078   4.956  10.188 -0.0256 -0.2934  0.1976
  186SAPI   H5R21342   1.087   5.018  10.278  0.0757  2.2608 -1.4646
  186SAPI   C2621343   1.179   4.963  10.091  0.1319 -0.2472 -0.2343
  186SAPI   H6R21344   1.263   5.029  10.115 -0.0935  0.3921 -1.1440
  186SAPI   C2721345   1.183   4.897   9.954 -0.7191  0.7072 -0.1195
  186SAPI   H7R21346   1.155   4.957   9.865 -0.7853  0.7198 -0.0905
  186SAPI   H7S21347   1.123   4.804   9.951 -1.9783  1.5022 -0.2001
  186SAPI   C2821348   1.327   4.857   9.925  0.4047 -0.2843  0.3929
  186SAPI   H8R21349   1.400   4.869  10.006  0.8226 -2.4396  0.3933
  186SAPI   C2921350   1.370   4.809   9.812  0.3085  0.1173 -0.2196
  186SAPI   H9R21351   1.476   4.783   9.799 -0.1707 -1.0143 -2.5233
  186SAPI  C21021352   1.296   4.782   9.687  0.0200 -0.3296  0.5570
  186SAPI  H10R21353   1.381   4.751   9.622 -1.0058 -0.4206 -0.7795
  186SAPI  H10S21354   1.254   4.870   9.635 -0.8273 -1.8052 -1.3554
  186SAPI  C21121355   1.190   4.678   9.698  0.3638 -0.3298  0.3348
  186SAPI  H11R21356   1.225   4.586   9.747  3.6032  1.4582  1.7195
  186SAPI  C21221357   1.065   4.690   9.655 -0.1539 -0.0438 -0.8302
  186SAPI  H12R21358   0.988   4.614   9.675 -1.2574  1.7385  2.4567
  186SAPI  C21321359   1.009   4.812   9.579  0.0834 -0.0928  1.2038
  186SAPI  H13R21360   1.036   4.904   9.635 -0.3969  0.2019  0.9578
  186SAPI  H13S21361   0.899   4.800   9.586  0.1163  0.4265  3.6924
  186SAPI  C21421362   1.042   4.843   9.437 -0.4423  0.3426 -0.0974
  186SAPI  H14R21363   1.138   4.892   9.417  0.7379 -0.8851  2.1838
  186SAPI  C21521364   0.983   4.778   9.337  0.5716 -0.0268 -0.3721
  186SAPI  H15R21365   0.999   4.813   9.234 -0.9104 -0.0887 -0.6373
  186SAPI  C21621366   0.874   4.670   9.336  0.4383 -0.9169  0.8132
  186SAPI  H16R21367   0.814   4.682   9.428  0.1648  0.7176  0.4652
  186SAPI  H16S21368   0.934   4.578   9.349  2.5781  0.3661  0.5944
  186SAPI  C21721369   0.772   4.658   9.216  0.1853  0.0397 -0.2684
  186SAPI  H17R21370   0.737   4.760   9.188  0.9696 -0.1583 -2.1496
  186SAPI  H17S21371   0.694   4.583   9.238  1.1221 -0.4022  1.7119
  186SAPI  C21821372   0.837   4.618   9.080  0.0029  0.2369 -1.2671
  186SAPI  H18R21373   0.919   4.546   9.097 -0.6987 -0.4511 -0.7672
  186SAPI  H18S21374   0.880   4.705   9.025  2.7127  0.0763  0.3832
  186SAPI  C21921375   0.731   4.540   8.996  0.2184 -0.2048 -0.1204
  186SAPI  H19R21376   0.653   4.613   8.963  1.7967  0.3203 -3.0762
  186SAPI  H19S21377   0.682   4.458   9.052 -0.5513 -0.4912 -1.1738
  186SAPI  C22021378   0.796   4.481   8.875  0.2766 -1.1956 -0.2877
  186SAPI  H20R21379   0.905   4.472   8.894  0.2742 -1.2152 -0.2833
  186SAPI  H20S21380   0.776   4.547   8.787 -1.2780  0.3150  1.1200
  186SAPI  H20T21381   0.758   4.380   8.850 -1.0924 -1.2920  1.9065
  186SAPI   C3321382   0.902   4.287   9.818  0.0240  0.7209 -0.2004
  186SAPI   H3X21383   0.816   4.354   9.795  1.6252  2.8765 -0.2698
  186SAPI   H3Y21384   0.864   4.183   9.819 -1.4658  1.2469 -0.2037
  186SAPI   C3421385   1.003   4.291   9.699 -0.2530  0.2412  0.6779
  186SAPI   H4X21386   1.091   4.226   9.717  0.7840 -0.4519 -5.0206
  186SAPI   H4Y21387   1.048   4.392   9.693  1.6871 -0.6362 -0.6209
  186SAPI   C3521388   0.938   4.270   9.563  0.0012  0.0642 -0.0355
  186SAPI   H5X21389   0.838   4.319   9.561 -1.3267 -2.5217 -0.3420
  186SAPI   H5Y21390   0.927   4.160   9.551 -0.1794 -0.0412  1.0352
  186SAPI   C3621391   1.037   4.308   9.449 -0.0276 -0.0280 -0.6045
  186SAPI   H6X21392   1.129   4.249   9.468 -1.3636 -1.3528  2.5904
  186SAPI   H6Y21393   1.043   4.418   9.461 -1.5722 -0.0143  0.2919
  186SAPI   C3721394   0.978   4.266   9.312  0.2781 -0.4321 -0.0447
  186SAPI   H7X21395   0.892   4.334   9.296 -0.3406 -1.3237 -0.6340
  186SAPI   H7Y21396   0.953   4.157   9.312  1.9555 -0.8987  2.1458
  186SAPI   C3821397   1.078   4.301   9.197  0.0601 -0.7631  0.5231
  186SAPI   H8X21398   1.187   4.284   9.214  0.3785  1.0022  0.4185
  186SAPI   H8Y21399   1.071   4.412   9.197 -0.9626 -0.8178  0.4285
  186SAPI   C3921400   1.019   4.235   9.072 -0.5187  0.3720 -0.1139
  186SAPI   H9X21401   0.930   4.290   9.035 -0.8530 -2.1652 -3.5911
  186SAPI   H9Y21402   0.990   4.130   9.094 -1.3070  0.4293 -0.8206
  186SAPI  C31021403   1.110   4.248   8.947  0.1694  0.2274 -0.4675
  186SAPI  H10X21404   1.215   4.220   8.972  0.5982  2.1244  0.0206
  186SAPI  H10Y21405   1.116   4.358   8.932 -0.0453  0.4024  0.6403
  186SAPI  C31121406   1.048   4.192   8.817  1.1561 -0.0405 -0.4733
  186SAPI  H11X21407   0.950   4.243   8.805  0.5798 -1.1133 -0.4804
  186SAPI  H11Y21408   1.024   4.085   8.836  0.7553  0.3437  1.3690
  186SAPI  C31221409   1.136   4.212   8.693  0.2383 -0.1034  0.3817
  186SAPI  H12X21410   1.228   4.153   8.713  1.2314  1.5451  0.9074
  186SAPI  H12Y21411   1.178   4.313   8.673 -0.4135  0.2869  0.9508
  186SAPI  C31321412   1.066   4.171   8.565  0.5965 -0.4961 -0.7278
  186SAPI  H13X21413   0.978   4.235   8.542 -0.9218 -1.9917  0.6541
  186SAPI  H13Y21414   1.021   4.072   8.584  1.3526 -0.3731  1.9959
  186SAPI  C31421415   1.157   4.140   8.444  0.3651  0.3988 -0.5133
  186SAPI  H14X21416   1.091   4.078   8.380 -1.6367  0.1888  1.6141
  186SAPI  H14Y21417   1.239   4.073   8.480 -1.1706 -0.8625  0.7754
  186SAPI  C31521418   1.194   4.267   8.367  0.4065  0.7300  0.0511
  186SAPI  H15X21419   1.271   4.234   8.294 -0.0047 -1.7404  0.6588
  186SAPI  H15Y21420   1.238   4.340   8.438 -0.7156  3.5905 -1.9764
  186SAPI  C31621421   1.069   4.322   8.294  0.4080 -0.2620 -0.7658
  186SAPI  H16X21422   1.009   4.393   8.354 -0.0290 -0.4344 -0.9968
  186SAPI  H16Y21423   1.008   4.234   8.263  1.4897  0.2897 -4.9957
  186SAPI  C31721424   1.114   4.402   8.173  1.1121 -0.1271 -0.0016
  186SAPI  H17X21425   1.194   4.344   8.122  0.4850 -1.4540  0.4809
  186SAPI  H17Y21426   1.154   4.492   8.224  1.1880 -1.5219  2.5566
  186SAPI  C31821427   1.002   4.438   8.076  0.1163 -0.1171  0.6596
  186SAPI  H18X21428   0.980   4.348   8.015  0.7012  0.3300 -0.2427
  186SAPI  H18Y21429   1.038   4.517   8.007 -1.6549 -0.4732 -0.7478
  186SAPI  H18Z21430   0.910   4.478   8.124  0.3996 -0.2165  1.2944
  187SAPI   C1221431   4.030   0.604   6.637  0.2180  1.0382 -1.1109
  187SAPI    H221432   3.963   0.596   6.725  2.4190 -0.6207  0.5265
  187SAPI    O221433   4.062   0.745   6.635 -0.4183 -0.2252 -0.0110
  187SAPI   HO221434   4.102   0.772   6.552  2.3071 -2.1181  0.5345
  187SAPI   C1321435   4.153   0.519   6.671  0.3792 -0.2548  0.0706
  187SAPI    H321436   4.112   0.416   6.664 -0.4111  0.1822 -2.7846
  187SAPI    O321437   4.214   0.532   6.804  0.7096 -0.8156 -0.7776
  187SAPI   HO321438   4.279   0.603   6.797  0.8034 -0.4184  2.6277
  187SAPI   C1421439   4.252   0.530   6.551 -0.4112  0.0487 -0.1091
  187SAPI    H421440   4.282   0.637   6.546  1.4263 -0.4652 -1.2719
  187SAPI    O421441   4.380   0.461   6.573  0.5529  0.0675 -0.1137
  187SAPI   HO421442   4.360   0.372   6.603 -2.7778 -0.2537 -2.6689
  187SAPI   C1521443   4.187   0.491   6.416 -0.2998  0.7276 -0.2978
  187SAPI    H521444   4.186   0.380   6.420  0.0057  0.7549  3.2106
  187SAPI    O521445   4.276   0.518   6.308 -0.4970 -0.2502  0.0998
  187SAPI   HO521446   4.366   0.534   6.337  0.2928 -1.8181 -1.3540
  187SAPI   C1621447   4.051   0.558   6.392  0.3350  0.2512 -0.2381
  187SAPI    H621448   4.064   0.666   6.371 -0.1360  0.6262  1.2825
  187SAPI    O621449   3.977   0.505   6.282 -0.0066 -0.6010  0.2417
  187SAPI   HO621450   3.989   0.411   6.267 -1.1028 -0.3715 -2.9110
  187SAPI   C1121451   3.963   0.547   6.512 -0.2768  0.2886 -0.5354
  187SAPI    H121452   3.948   0.438   6.529  0.3801  0.4263  1.1469
  187SAPI     P21453   3.691   0.540   6.500 -0.4343  0.2331 -0.3911
  187SAPI   O1321454   3.705   0.390   6.499 -0.1638 -0.1330 -0.9276
  187SAPI   O1421455   3.622   0.596   6.385  0.0958  0.0289  0.1583
  187SAPI   O1221456   3.837   0.612   6.505  0.3149  0.5926  0.0490
  187SAPI   O1121457   3.626   0.588   6.631  0.1116 -0.4946 -0.3667
  187SAPI    C121458   3.592   0.709   6.687 -0.3819 -0.1739 -0.0857
  187SAPI    HA21459   3.658   0.785   6.642  0.8280 -1.4474 -0.5310
  187SAPI    HB21460   3.490   0.733   6.651 -0.9001 -0.9469  0.7956
  187SAPI    C221461   3.595   0.692   6.840 -0.1933 -0.1713 -0.0338
  187SAPI    HS21462   3.560   0.790   6.879  0.8743  0.4755 -0.6602
  187SAPI   O2121463   3.731   0.674   6.882  0.2418  0.1999  0.1630
  187SAPI   C2121464   3.806   0.783   6.878  0.4969 -0.8515  0.4228
  187SAPI   O2221465   3.766   0.890   6.828 -0.3282  0.1829  0.2461
  187SAPI   C2221466   3.931   0.772   6.960 -0.9280 -0.1389 -0.5586
  187SAPI   H2R21467   3.901   0.763   7.067  0.1283 -1.4976 -0.3475
  187SAPI   H2S21468   3.986   0.683   6.921 -0.9532  0.8401 -3.0103
  187SAPI    C321469   3.513   0.569   6.884 -0.0753 -0.1026 -0.2723
  187SAPI    HX21470   3.571   0.488   6.836  0.3415  0.1569 -0.2096
  187SAPI    HY21471   3.414   0.578   6.832 -0.2434 -1.6735 -0.2729
  187SAPI   O3121472   3.497   0.568   7.028  0.5540 -0.6147 -0.1993
  187SAPI   C3121473   3.523   0.447   7.080  0.3004  0.1814 -0.0317
  187SAPI   O3221474   3.540   0.345   7.022 -0.8671  0.4323  0.2425
  187SAPI   C3221475   3.540   0.451   7.229  0.1831 -0.1789 -0.7461
  187SAPI   H2X21476   3.441   0.454   7.279 -0.2972  1.7022 -1.7131
  187SAPI   H2Y21477   3.582   0.552   7.249  0.5460 -0.7482  1.6399
  187SAPI   C2321478   4.035   0.891   6.960  0.0853 -0.3282  0.4403
  187SAPI   H3R21479   3.971   0.982   6.948  1.4699  0.6737  0.3924
  187SAPI   H3S21480   4.096   0.894   6.867 -2.7103 -0.3312 -1.5438
  187SAPI   C2421481   4.128   0.908   7.083  0.2226 -0.2334 -0.0523
  187SAPI   H4R21482   4.058   0.923   7.168  0.5212 -0.1166  0.1713
  187SAPI   H4S21483   4.181   1.004   7.065  2.4735 -1.3433  0.4100
  187SAPI   C2521484   4.226   0.799   7.092  0.7674 -0.2333  0.8573
  187SAPI   H5R21485   4.285   0.786   7.000 -1.7729 -0.0910 -0.9173
  187SAPI   C2621486   4.246   0.712   7.185  0.6889  1.0055 -0.4479
  187SAPI   H6R21487   4.313   0.627   7.165 -0.6327 -0.4664  1.0721
  187SAPI   C2721488   4.174   0.688   7.317  0.4784 -0.0004  0.9482
  187SAPI   H7R21489   4.105   0.769   7.350  0.1510 -0.4183  1.3012
  187SAPI   H7S21490   4.246   0.706   7.400 -0.9976  0.3735  2.2081
  187SAPI   C2821491   4.089   0.562   7.332 -0.3683  0.1075  0.1341
  187SAPI   H8R21492   4.015   0.542   7.253  0.8762  0.5575 -1.2052
  187SAPI   C2921493   4.103   0.467   7.426 -0.2048 -0.0397 -0.6889
  187SAPI   H9R21494   4.038   0.379   7.415 -0.5121  0.0305  0.4328
  187SAPI  C21021495   4.205   0.468   7.546  0.4124 -0.2331  0.4574
  187SAPI  H10R21496   4.257   0.566   7.535 -0.6705  0.0978 -3.2866
  187SAPI  H10S21497   4.276   0.384   7.540  1.6349  0.7672  0.5572
  187SAPI  C21121498   4.135   0.464   7.681  0.4476  0.4846 -0.0842
  187SAPI  H11R21499   4.043   0.405   7.679  0.2262  0.8340 -0.3627
  187SAPI  C21221500   4.179   0.520   7.792  0.6532  0.1111  0.3021
  187SAPI  H12R21501   4.113   0.513   7.880 -1.7125 -1.0251 -1.4473
  187SAPI  C21321502   4.306   0.595   7.814 -0.3750 -0.5953 -0.1040
  187SAPI  H13R21503   4.373   0.585   7.726 -0.0066 -0.6418  0.1843
  187SAPI  H13S21504   4.364   0.558   7.901 -0.3431  0.0953  0.1805
  187SAPI  C21421505   4.283   0.746   7.836  1.3290  0.6587  0.7495
  187SAPI  H14R21506   4.227   0.786   7.750  1.1153 -0.3504  0.4132
  187SAPI  C21521507   4.310   0.819   7.940  0.0862  0.2071 -0.3943
  187SAPI  H15R21508   4.299   0.928   7.938 -0.9795  0.1477  0.9159
  187SAPI  C21621509   4.369   0.772   8.074 -0.0277 -0.2451  0.7137
  187SAPI  H16R21510   4.410   0.864   8.122 -1.2675  0.1554  1.0747
  187SAPI  H16S21511   4.450   0.700   8.053 -1.2269 -2.0381  1.9217
  187SAPI  C21721512   4.256   0.707   8.156  0.3967 -0.5529  0.5049
  187SAPI  H17R21513   4.194   0.628   8.108 -0.8294  0.3091  0.5989
  187SAPI  H17S21514   4.183   0.785   8.188  0.8226  0.2935 -0.5390
  187SAPI  C21821515   4.311   0.670   8.297 -0.2074 -0.9326 -0.1766
  187SAPI  H18R21516   4.357   0.757   8.347 -1.6323 -0.4918  0.4204
  187SAPI  H18S21517   4.397   0.601   8.282  0.2390 -0.3435 -0.3110
  187SAPI  C21921518   4.209   0.604   8.396  0.1734  0.3333 -0.6599
  187SAPI  H19R21519   4.165   0.519   8.340  0.6183 -1.0859  1.0359
  187SAPI  H19S21520   4.127   0.677   8.409 -0.3377 -0.3611  0.1283
  187SAPI  C22021521   4.261   0.553   8.525  0.0693  0.7933 -0.3543
  187SAPI  H20R21522   4.305   0.636   8.585 -0.4100  1.7044 -1.2452
  187SAPI  H20S21523   4.338   0.473   8.522  0.6189  1.2722  0.5300
  187SAPI  H20T21524   4.176   0.510   8.582  1.0460 -0.9181 -0.0947
  187SAPI   C3321525   3.622   0.332   7.302 -0.3928  0.1096  0.9268
  187SAPI   H3X21526   3.720   0.360   7.257 -0.9019  1.5969  0.6636
  187SAPI   H3Y21527   3.591   0.233   7.262  1.5381 -0.1440 -0.1106
  187SAPI   C3421528   3.631   0.357   7.456 -0.3352  0.5700  0.3466
  187SAPI   H4X21529   3.684   0.273   7.507 -1.0009 -1.3202 -1.8819
  187SAPI   H4Y21530   3.527   0.348   7.494 -0.8580 -2.1463 -1.4577
  187SAPI   C3521531   3.700   0.484   7.499 -0.2473  0.0349 -0.1565
  187SAPI   H5X21532   3.650   0.572   7.455 -1.5606 -1.9961 -3.0617
  187SAPI   H5Y21533   3.799   0.488   7.449 -1.2509  0.2870 -2.2153
  187SAPI   C3621534   3.735   0.500   7.652 -0.0917 -0.3242 -0.4975
  187SAPI   H6X21535   3.793   0.410   7.681  1.5048  1.3285  1.7384
  187SAPI   H6Y21536   3.639   0.495   7.708  0.3769 -0.1394  0.3410
  187SAPI   C3721537   3.817   0.624   7.681 -0.0365 -0.3187 -0.1687
  187SAPI   H7X21538   3.749   0.704   7.646 -1.7685 -1.8530 -0.4861
  187SAPI   H7Y21539   3.914   0.630   7.627 -0.4606 -1.8196 -1.1591
  187SAPI   C3821540   3.844   0.645   7.831  1.3330 -0.0471 -0.1213
  187SAPI   H8X21541   3.884   0.747   7.843  1.2168 -0.1060  0.8395
  187SAPI   H8Y21542   3.915   0.570   7.873 -1.3912 -2.5976  0.2855
  187SAPI   C3921543   3.714   0.668   7.912  0.2856  0.0307 -0.5722
  187SAPI   H9X21544   3.663   0.570   7.910 -0.8311  0.6031 -2.5947
  187SAPI   H9Y21545   3.663   0.754   7.865 -1.5324 -0.9808 -0.5330
  187SAPI  C31021546   3.752   0.712   8.054  0.7551 -0.8106 -0.4832
  187SAPI  H10X21547   3.825   0.796   8.054 -1.7295  1.4698 -0.4574
  187SAPI  H10Y21548   3.804   0.624   8.096  2.1241 -0.2836 -1.0153
  187SAPI  C31121549   3.642   0.757   8.150 -0.6589  0.0145  0.0747
  187SAPI  H11X21550   3.572   0.672   8.161 -0.7045 -0.0802 -0.8551
  187SAPI  H11Y21551   3.585   0.848   8.119 -0.1986  0.6713  1.1039
  187SAPI  C31221552   3.692   0.787   8.295 -0.2057 -0.0371 -0.0668
  187SAPI  H12X21553   3.792   0.836   8.295 -0.2628  0.0953 -1.1594
  187SAPI  H12Y21554   3.698   0.697   8.360  1.7964 -0.6622 -1.0355
  187SAPI  C31321555   3.602   0.891   8.369  0.4412  0.3246  0.5231
  187SAPI  H13X21556   3.494   0.866   8.372  0.8769 -1.7860  0.4734
  187SAPI  H13Y21557   3.618   0.990   8.322  1.3951  0.6808  1.5372
  187SAPI  C31421558   3.640   0.893   8.514  0.0515  0.2836 -0.5249
  187SAPI  H14X21559   3.622   0.790   8.551 -1.7748  0.8873  0.3995
  187SAPI  H14Y21560   3.578   0.966   8.570  0.1680 -0.4196  0.5445
  187SAPI  C31521561   3.785   0.945   8.544 -0.5891 -0.4630  0.9046
  187SAPI  H15X21562   3.791   1.047   8.501 -0.9160 -0.6751  0.3335
  187SAPI  H15Y21563   3.857   0.877   8.493 -2.4615 -2.3457  0.6195
  187SAPI  C31621564   3.817   0.948   8.690  0.2657 -0.1732 -0.5149
  187SAPI  H16X21565   3.760   1.034   8.731  1.8541 -0.3490  2.3133
  187SAPI  H16Y21566   3.923   0.974   8.709  0.3240 -0.6249 -0.1803
  187SAPI  C31721567   3.791   0.819   8.771  0.5413  0.6572  0.1172
  187SAPI  H17X21568   3.681   0.807   8.768  0.5875  0.2204  0.1772
  187SAPI  H17Y21569   3.818   0.829   8.879 -1.4721  1.1478  0.6125
  187SAPI  C31821570   3.859   0.697   8.712  0.1418 -0.2836  0.3735
  187SAPI  H18X21571   3.969   0.704   8.697 -0.1872 -0.3935 -2.6985
  187SAPI  H18Y21572   3.810   0.665   8.618  0.7385  1.8960 -0.7309
  187SAPI  H18Z21573   3.843   0.616   8.787 -1.5419  0.3887  0.7607
  188SAPI   C1221574   5.993   3.696   6.255  0.8482  0.4598 -0.1372
  188SAPI    H221575   6.008   3.799   6.217 -3.9660  1.7340  0.6875
  188SAPI    O221576   5.888   3.649   6.180 -0.4720  0.5698  0.2505
  188SAPI   HO221577   5.808   3.688   6.217  0.4000  2.3762  0.3463
  188SAPI   C1321578   6.111   3.602   6.236  0.5124  0.4532  0.1938
  188SAPI    H321579   6.188   3.634   6.309 -2.0587  1.2563  2.7646
  188SAPI    O321580   6.166   3.607   6.103  0.6692  0.1380  0.8406
  188SAPI   HO321581   6.135   3.525   6.063 -1.6438  1.8573 -1.2659
  188SAPI   C1421582   6.073   3.460   6.273  0.0117  0.0547 -0.0339
  188SAPI    H421583   5.983   3.431   6.215 -0.0275  0.5766 -0.2385
  188SAPI    O421584   6.179   3.373   6.239  0.3829 -0.3388 -0.2524
  188SAPI   HO421585   6.151   3.285   6.265 -1.1942 -0.0355 -0.7899
  188SAPI   C1521586   6.031   3.445   6.422 -0.0769  0.1118 -0.0011
  188SAPI    H521587   6.124   3.475   6.475 -0.1713 -0.5577  0.5550
  188SAPI    O521588   6.003   3.311   6.464  0.0884 -0.5698 -0.6636
  188SAPI   HO521589   6.090   3.270   6.461  1.1965  1.3947  1.1389
  188SAPI   C1621590   5.924   3.557   6.451  0.0343  1.5262 -0.0445
  188SAPI    H621591   5.834   3.520   6.398  1.1486 -0.1304 -0.8765
  188SAPI    O621592   5.890   3.555   6.589 -0.4057  0.0227  0.2604
  188SAPI   HO621593   5.841   3.633   6.618  0.0518  0.6131 -0.5256
  188SAPI   C1121594   5.954   3.695   6.398 -0.3544  0.2030  0.0230
  188SAPI    H121595   6.047   3.730   6.449 -0.0846  1.7070 -1.4335
  188SAPI     P21596   5.847   3.904   6.522  0.5144  0.3175 -0.1005
  188SAPI   O1321597   5.720   3.976   6.518  0.5458 -0.0214  0.4696
  188SAPI   O1421598   5.973   3.986   6.517 -0.1044 -0.1016 -0.0244
  188SAPI   O1221599   5.839   3.781   6.408  0.0279  0.3397 -0.7606
  188SAPI   O1121600   5.859   3.810   6.649 -0.3795  0.0060 -0.0777
  188SAPI    C121601   5.872   3.867   6.776  0.7119 -0.1039 -0.5106
  188SAPI    HA21602   5.909   3.787   6.843  0.5445 -0.5227 -0.9197
  188SAPI    HB21603   5.950   3.946   6.764  2.7681 -2.1557 -1.5153
  188SAPI    C221604   5.737   3.919   6.833 -0.3646 -0.6715 -0.5626
  188SAPI    HS21605   5.704   3.994   6.758 -0.5903 -1.5056 -1.3106
  188SAPI   O2121606   5.749   3.971   6.965 -0.6494  0.2987 -0.4042
  188SAPI   C2121607   5.835   4.060   6.986 -0.2613 -0.3915 -0.3631
  188SAPI   O2221608   5.912   4.122   6.907  0.0753  0.4612  0.6113
  188SAPI   C2221609   5.824   4.103   7.133  0.6773 -0.0001  0.1417
  188SAPI   H2R21610   5.796   4.210   7.131 -1.4215 -0.4983  0.3851
  188SAPI   H2S21611   5.752   4.031   7.178  0.9665 -0.9141 -0.8348
  188SAPI    C321612   5.635   3.799   6.838  0.1036 -0.3179  0.0295
  188SAPI    HX21613   5.625   3.740   6.745  1.4381 -1.3299  0.4886
  188SAPI    HY21614   5.533   3.831   6.868  0.2868  0.6887 -0.3738
  188SAPI   O3121615   5.694   3.703   6.932 -0.2380 -0.0613  0.2417
  188SAPI   C3121616   5.618   3.608   6.975  0.0774  0.3033 -0.6541
  188SAPI   O3221617   5.502   3.583   6.942 -0.6876  0.1303 -0.3009
  188SAPI   C3221618   5.675   3.543   7.099 -0.5020 -0.4636 -0.6477
  188SAPI   H2X21619   5.781   3.571   7.112 -0.7149  0.6777 -1.2025
  188SAPI   H2Y21620   5.680   3.433   7.080  0.3388 -0.5222 -0.1286
  188SAPI   C2321621   5.960   4.103   7.208 -0.0452 -0.0566 -0.3562
  188SAPI   H3R21622   6.031   4.160   7.144 -0.5428  1.6287  0.5146
  188SAPI   H3S21623   5.996   3.999   7.220  0.2833  0.2395  1.5461
  188SAPI   C2421624   5.953   4.174   7.356 -0.5282  0.0779  0.1929
  188SAPI   H4R21625   5.936   4.283   7.339  0.2138  0.7084  2.9384
  188SAPI   H4S21626   6.057   4.183   7.394 -0.2043 -2.3518  0.0010
  188SAPI   C2521627   5.855   4.114   7.454 -0.2525  0.5266 -0.0935
  188SAPI   H5R21628   5.758   4.088   7.409 -0.4897  0.2760  0.5487
  188SAPI   C2621629   5.879   4.080   7.583  0.6055 -0.3729  0.2858
  188SAPI   H6R21630   5.797   4.041   7.645 -0.0970  1.4761  0.5676
  188SAPI   C2721631   6.017   4.096   7.650  0.1401 -0.1759 -0.7584
  188SAPI   H7R21632   6.099   4.086   7.576  0.5051 -1.9625 -0.1520
  188SAPI   H7S21633   6.026   4.002   7.709 -1.9579  0.2329  0.3077
  188SAPI   C2821634   6.016   4.225   7.734 -0.1154  0.8605 -0.2017
  188SAPI   H8R21635   6.026   4.321   7.680 -2.7048 -0.3562 -3.1551
  188SAPI   C2921636   5.995   4.232   7.868 -0.3143  0.7794 -0.3881
  188SAPI   H9R21637   5.996   4.334   7.910  1.0371  1.2533 -1.5017
  188SAPI  C21021638   5.971   4.119   7.963 -1.4552 -0.0653  0.0135
  188SAPI  H10R21639   6.060   4.102   8.027  0.3423  0.5743 -2.2112
  188SAPI  H10S21640   5.962   4.026   7.903  0.3749 -1.8960  2.3924
  188SAPI  C21121641   5.839   4.142   8.041 -0.2997 -0.0215  0.2631
  188SAPI  H11R21642   5.779   4.225   8.001  1.0834  1.2807  0.8179
  188SAPI  C21221643   5.806   4.062   8.144 -0.6094  0.0008 -0.0231
  188SAPI  H12R21644   5.711   4.071   8.199 -0.1001 -1.5972  1.2176
  188SAPI  C21321645   5.891   3.949   8.200 -0.1497  0.4154 -0.6452
  188SAPI  H13R21646   5.971   3.996   8.261 -1.1001 -0.3712  1.2515
  188SAPI  H13S21647   5.957   3.896   8.127  1.7091 -1.3183  2.1201
  188SAPI  C21421648   5.811   3.844   8.270  0.4915  0.2883  0.1414
  188SAPI  H14R21649   5.753   3.786   8.197 -1.1961 -1.8529  3.0101
  188SAPI  C21521650   5.783   3.810   8.401 -0.0784 -0.0938 -0.4581
  188SAPI  H15R21651   5.711   3.728   8.410  1.2462 -1.6364 -2.8954
  188SAPI  C21621652   5.851   3.870   8.521 -0.1165  1.3813  0.6940
  188SAPI  H16R21653   5.939   3.935   8.501  0.5481  0.7025  1.3367
  188SAPI  H16S21654   5.892   3.795   8.592  1.2812  1.8543  0.4178
  188SAPI  C21721655   5.761   3.969   8.591 -0.5305  0.0725  0.1125
  188SAPI  H17R21656   5.806   3.986   8.691  0.1889  0.7712 -0.3171
  188SAPI  H17S21657   5.663   3.926   8.620 -0.8398 -0.2505 -1.3093
  188SAPI  C21821658   5.755   4.097   8.501  0.4606 -0.3646  0.1887
  188SAPI  H18R21659   5.696   4.086   8.407  1.1646 -2.4870 -0.0606
  188SAPI  H18S21660   5.859   4.123   8.471  0.4102 -1.5991 -1.1912
  188SAPI  C21921661   5.718   4.223   8.580  0.4652 -0.0808  0.4465
  188SAPI  H19R21662   5.776   4.232   8.674  0.6163  2.6207  0.1609
  188SAPI  H19S21663   5.609   4.207   8.590  0.0444  0.4243 -2.3824
  188SAPI  C22021664   5.738   4.350   8.503 -0.1589 -0.5697  0.2191
  188SAPI  H20R21665   5.847   4.369   8.495 -0.2102 -0.5543 -0.5024
  188SAPI  H20S21666   5.698   4.441   8.551 -2.0117 -1.3007  0.1654
  188SAPI  H20T21667   5.707   4.340   8.397 -2.8086 -1.2514  0.9656
  188SAPI   C3321668   5.608   3.581   7.232  0.9939  0.5839  0.0855
  188SAPI   H3X21669   5.502   3.547   7.229  1.8052 -2.0515 -1.6591
  188SAPI   H3Y21670   5.612   3.690   7.250 -3.6143  1.0518 -0.5009
  188SAPI   C3421671   5.677   3.504   7.344 -0.3518  0.5800 -0.5518
  188SAPI   H4X21672   5.786   3.499   7.327  0.2236  2.4483  1.9862
  188SAPI   H4Y21673   5.648   3.398   7.330  2.6156 -0.5577  1.1368
  188SAPI   C3521674   5.652   3.570   7.481 -0.0606  0.0637 -0.2729
  188SAPI   H5X21675   5.549   3.606   7.506  0.7135  1.1854  1.5254
  188SAPI   H5Y21676   5.709   3.665   7.472 -0.9967  0.7898  1.0748
  188SAPI   C3621677   5.695   3.482   7.599 -0.4300  0.5619 -0.0978
  188SAPI   H6X21678   5.803   3.459   7.587 -0.3581 -0.1687  1.6391
  188SAPI   H6Y21679   5.637   3.389   7.582 -1.7211  1.3871 -0.3394
  188SAPI   C3721680   5.666   3.542   7.740  0.0372 -0.5420 -0.6765
  188SAPI   H7X21681   5.561   3.579   7.746  0.1191 -0.5015  1.0115
  188SAPI   H7Y21682   5.721   3.637   7.755 -1.4492  0.6141 -2.1663
  188SAPI   C3821683   5.696   3.453   7.860  0.2335  0.6480 -0.5234
  188SAPI   H8X21684   5.797   3.409   7.847  0.9264  1.2675  2.0861
  188SAPI   H8Y21685   5.620   3.372   7.867 -0.6938  1.6200  1.9586
  188SAPI   C3921686   5.690   3.520   8.002 -0.6804 -0.2701 -0.1855
  188SAPI   H9X21687   5.591   3.570   7.995  0.4110  2.2509  1.0370
  188SAPI   H9Y21688   5.771   3.596   8.013 -0.8516  0.3235 -2.4103
  188SAPI  C31021689   5.676   3.412   8.113 -0.2376 -0.0124  0.9783
  188SAPI  H10X21690   5.773   3.361   8.132  0.3511  0.6718 -0.0720
  188SAPI  H10Y21691   5.593   3.345   8.083 -0.5825  0.6466  0.4212
  188SAPI  C31121692   5.635   3.482   8.245  1.0078 -0.0919  0.5341
  188SAPI  H11X21693   5.558   3.554   8.209  0.3822 -1.2064 -0.3970
  188SAPI  H11Y21694   5.719   3.545   8.283  0.2645  0.8306  0.6898
  188SAPI  C31221695   5.582   3.386   8.343  0.0144 -0.9061 -0.3607
  188SAPI  H12X21696   5.661   3.313   8.373  0.0238 -1.4449 -1.6532
  188SAPI  H12Y21697   5.497   3.333   8.296 -1.2094  1.0474 -0.4401
  188SAPI  C31321698   5.533   3.450   8.476  0.6644  0.4964  0.4584
  188SAPI  H13X21699   5.450   3.519   8.450  1.1716  0.4832 -1.3514
  188SAPI  H13Y21700   5.612   3.512   8.525  1.5900  0.5676 -1.0483
  188SAPI  C31421701   5.484   3.342   8.575 -0.6648  0.9813 -0.4875
  188SAPI  H14X21702   5.574   3.324   8.639 -1.1398  1.3306  0.2948
  188SAPI  H14Y21703   5.452   3.246   8.528 -1.1668  0.2022  1.3399
  188SAPI  C31521704   5.375   3.376   8.680 -0.5602 -0.5069  0.0094
  188SAPI  H15X21705   5.385   3.484   8.704 -0.1840 -0.5197 -0.0747
  188SAPI  H15Y21706   5.385   3.312   8.770 -1.0606 -0.4576  0.1021
  188SAPI  C31621707   5.231   3.377   8.640  1.0100  0.5975  0.2946
  188SAPI  H16X21708   5.193   3.273   8.628 -1.5498  1.3955  0.9037
  188SAPI  H16Y21709   5.221   3.434   8.545  0.2529 -0.7094 -0.4455
  188SAPI  C31721710   5.130   3.427   8.745  0.3198 -0.9150 -0.1825
  188SAPI  H17X21711   5.172   3.387   8.840  1.1704 -2.1973 -1.0826
  188SAPI  H17Y21712   5.025   3.397   8.726  0.6146 -1.7394 -0.5727
  188SAPI  C31821713   5.115   3.581   8.750  0.6743 -0.1020 -0.5920
  188SAPI  H18X21714   5.197   3.628   8.808 -0.6681  3.5928 -1.4035
  188SAPI  H18Y21715   5.020   3.610   8.801  0.5439 -0.8708 -0.3774
  188SAPI  H18Z21716   5.114   3.634   8.653  0.6742  1.0009 -0.0094
  189POPC     N21717   5.663   5.457  10.989 -0.6991 -0.1808  0.0185
  189POPC   C1221718   5.595   5.322  10.964  0.2621 -0.2511 -0.1307
  189POPC  H12A21719   5.514   5.326  10.892 -0.4540 -2.3076  0.4786
  189POPC  H12B21720   5.545   5.285  11.052  1.2851 -2.6385 -0.4660
  189POPC   C1321721   5.759   5.489  10.872 -0.0460  0.0353  0.2298
  189POPC  H13A21722   5.842   5.420  10.873  0.2372  0.3746  1.1963
  189POPC  H13B21723   5.726   5.499  10.770  1.1635  0.5092 -0.1430
  189POPC  H13C21724   5.811   5.579  10.902  0.2007 -0.3691  1.0449
  189POPC   C1421725   5.556   5.558  10.998  0.0548  0.5469 -0.5114
  189POPC  H14A21726   5.506   5.550  11.094  0.6532  1.5997 -0.0913
  189POPC  H14B21727   5.597   5.657  10.990  0.8270  0.1301 -1.9902
  189POPC  H14C21728   5.473   5.548  10.930 -2.7966  2.3360  2.3948
  189POPC   C1521729   5.736   5.459  11.114 -0.1129  0.8551  0.9789
  189POPC  H15A21730   5.768   5.560  11.134  0.7747  0.3232  2.4812
  189POPC  H15B21731   5.820   5.391  11.113 -0.1145  0.8530 -0.5719
  189POPC  H15C21732   5.664   5.423  11.187 -1.8666 -1.8331 -1.8125
  189POPC   C1121733   5.674   5.200  10.916 -0.6831 -0.2065 -0.5612
  189POPC  H11A21734   5.721   5.212  10.816  1.0388 -2.1027 -0.0629
  189POPC  H11B21735   5.611   5.110  10.900  2.2502 -2.6817  0.6980
  189POPC     P21736   5.772   5.063  11.116 -0.1986  0.1550 -0.2849
  189POPC   O1321737   5.655   5.086  11.202  0.0247 -0.5814 -0.5410
  189POPC   O1421738   5.906   5.066  11.191 -0.3030 -0.2887  0.0104
  189POPC   O1221739   5.777   5.177  11.010 -0.0557 -0.0794  0.4731
  189POPC   O1121740   5.764   4.925  11.032  0.2220  0.9621 -0.1315
  189POPC    C121741   5.866   4.870  10.948  0.5086 -0.2270  0.1722
  189POPC    HA21742   5.894   4.768  10.980  1.8974  0.1052  0.0911
  189POPC    HB21743   5.956   4.936  10.950 -1.4796  2.6376  0.0271
  189POPC    C221744   5.811   4.861  10.805  0.1751  0.1320 -0.4983
  189POPC    HS21745   5.794   4.965  10.769 -0.1577 -0.2543 -1.4755
  189POPC   O2121746   5.695   4.774  10.802 -0.0973  0.0918  0.0452
  189POPC   C2121747   5.582   4.824  10.764  0.3944 -0.6623  0.3283
  189POPC   O2221748   5.564   4.936  10.720 -0.4976 -0.0549  0.6064
  189POPC   C2221749   5.473   4.716  10.791 -0.4981 -0.9386  0.4007
  189POPC   H2R21750   5.388   4.771  10.837  0.5034 -0.1232  1.3139
  189POPC   H2S21751   5.508   4.639  10.864 -0.4522  2.1505  3.9136
  189POPC    C321752   5.914   4.811  10.705  0.0873  0.0004 -0.0330
  189POPC    HX21753   5.948   4.706  10.720  0.0292 -0.0985 -0.5705
  189POPC    HY21754   6.009   4.865  10.724 -0.3413  0.2176  1.6968
  189POPC   O3121755   5.877   4.835  10.563 -0.2127 -0.2495 -0.6247
  189POPC   C3121756   5.819   4.728  10.501 -0.2316 -0.8457 -1.2374
  189POPC   O3221757   5.820   4.613  10.546 -0.0400 -0.0064  0.7214
  189POPC   C3221758   5.771   4.771  10.366  0.1367  0.1281  1.0414
  189POPC   H2X21759   5.799   4.692  10.294  0.1071 -0.0699  1.2443
  189POPC   H2Y21760   5.813   4.871  10.342 -2.1820  0.6339 -1.4524
  189POPC   C2321761   5.433   4.652  10.657  0.7489 -0.1336 -0.3481
  189POPC   H3R21762   5.513   4.584  10.621  1.3352 -0.1594  0.9598
  189POPC   H3S21763   5.415   4.724  10.574 -0.3401 -1.3738 -1.2355
  189POPC   C2421764   5.302   4.582  10.669 -0.4017  0.3285  0.8770
  189POPC   H4R21765   5.308   4.497  10.740 -0.1849 -0.3702  0.0397
  189POPC   H4S21766   5.278   4.542  10.568  2.3314 -1.6115  0.8971
  189POPC   C2521767   5.185   4.678  10.703  0.5011 -0.0085 -0.0837
  189POPC   H5R21768   5.199   4.719  10.805  1.1360  0.0831 -0.2075
  189POPC   H5S21769   5.087   4.626  10.710  1.0243 -1.1040 -0.6702
  189POPC   C2621770   5.161   4.798  10.615 -0.0258  0.1755 -0.0059
  189POPC   H6R21771   5.259   4.850  10.613  0.4287 -0.6381 -2.6114
  189POPC   H6S21772   5.081   4.865  10.652  0.5864  1.0418 -0.2208
  189POPC   C2721773   5.128   4.757  10.467 -0.1054  0.1267 -0.1630
  189POPC   H7R21774   5.081   4.657  10.461 -1.3317  0.6891 -0.3882
  189POPC   H7S21775   5.218   4.744  10.403 -0.3144 -1.5988 -0.1440
  189POPC   C2821776   5.023   4.841  10.385  0.3556  0.0774 -0.4761
  189POPC   H8R21777   4.925   4.825  10.435  1.1757  2.3037  2.0934
  189POPC   H8S21778   5.012   4.796  10.284  0.8732 -0.7421 -0.1802
  189POPC   C2921779   5.054   4.986  10.381  0.5059  0.4235 -0.6652
  189POPC   H9121780   5.034   5.043  10.473 -2.5893 -0.3799 -0.7460
  189POPC  C21021781   5.098   5.044  10.268  0.1860 -0.5082  0.0847
  189POPC  H10121782   5.101   5.154  10.270 -1.4562 -0.4321  2.1729
  189POPC  C21121783   5.142   4.997  10.134  0.0570  0.2814  0.3495
  189POPC  H11R21784   5.150   4.886  10.128 -1.4984  0.0387  1.8995
  189POPC  H11S21785   5.229   5.053  10.093 -1.0424  1.0181 -1.0646
  189POPC  C21221786   5.029   5.037  10.042  0.0554 -0.2681  0.4563
  189POPC  H12R21787   4.993   5.142  10.051 -0.8092 -0.6955  2.7488
  189POPC  H12S21788   4.941   4.973  10.065  0.7332 -0.9921  1.1019
  189POPC  C21321789   5.069   4.989   9.899  0.2607 -0.2060  0.2424
  189POPC  H13R21790   5.104   4.884   9.902  0.6478 -0.1391 -1.1322
  189POPC  H13S21791   5.149   5.059   9.865  1.4666  0.0640  3.2907
  189POPC  C21421792   4.951   5.002   9.796  0.2078 -0.3375 -0.1438
  189POPC  H14R21793   4.888   5.094   9.798 -0.8340 -0.9547 -2.0630
  189POPC  H14S21794   4.875   4.928   9.826 -1.5007 -0.1307 -3.5678
  189POPC  C21521795   4.980   4.956   9.653  0.2744 -0.2835 -0.5632
  189POPC  H15R21796   4.880   4.970   9.606 -0.2170 -1.4833  0.0937
  189POPC  H15S21797   5.018   4.852   9.654  0.1832 -0.3179 -0.6736
  189POPC  C21621798   5.080   5.049   9.584 -0.6227 -0.4105 -0.4599
  189POPC  H16R21799   5.178   5.049   9.635  0.5655  2.3215 -2.5070
  189POPC  H16S21800   5.039   5.152   9.586  0.2656 -0.0070 -1.7712
  189POPC  C21721801   5.105   5.005   9.441 -0.7451 -0.3414  0.5454
  189POPC  H17R21802   5.131   4.898   9.455 -0.6391 -0.1475  2.0970
  189POPC  H17S21803   5.191   5.059   9.398 -0.8397 -1.0101 -0.5046
  189POPC  C21821804   4.989   5.020   9.342  0.2968  0.2954 -0.7882
  189POPC  H18R21805   5.018   4.969   9.247  1.7590  0.3259 -0.3923
  189POPC  H18S21806   4.967   5.125   9.314  0.3688  0.3424 -0.6679
  189POPC  H18T21807   4.891   4.974   9.368  0.1494  1.4044  0.7648
  189POPC   C3321808   5.623   4.802  10.357  0.3840 -0.5145 -0.2487
  189POPC   H3X21809   5.581   4.863  10.440  1.4084  0.7294 -0.6192
  189POPC   H3Y21810   5.567   4.708  10.378  1.3658 -1.5081 -1.8788
  189POPC   C3421811   5.574   4.871  10.231 -0.0494  0.1915  0.7029
  189POPC   H4X21812   5.604   4.978  10.227  0.4333  0.0323 -1.0439
  189POPC   H4Y21813   5.465   4.851  10.228  0.2513 -1.9062  1.9362
  189POPC   C3521814   5.631   4.812  10.102 -0.4383 -0.5759  0.1193
  189POPC   H5X21815   5.597   4.706  10.099  0.7455 -1.0152  1.2708
  189POPC   H5Y21816   5.741   4.794  10.099 -0.6919 -2.2320 -0.8053
  189POPC   C3621817   5.597   4.911   9.986 -0.5301  0.1094  0.6189
  189POPC   H6X21818   5.662   5.002   9.989 -1.3221  0.7491 -0.8077
  189POPC   H6Y21819   5.489   4.936   9.988 -1.0361 -1.9022  0.6344
  189POPC   C3721820   5.613   4.849   9.848  0.1743 -0.0063 -0.5971
  189POPC   H7X21821   5.552   4.757   9.845  1.2757 -0.8517  1.1699
  189POPC   H7Y21822   5.719   4.817   9.838  0.2055 -0.4396  0.8295
  189POPC   C3821823   5.576   4.938   9.733  0.4138  0.5874  0.3641
  189POPC   H8X21824   5.636   5.032   9.737  1.8368 -0.2184 -0.7962
  189POPC   H8Y21825   5.467   4.960   9.733  0.4203  0.6610 -0.4695
  189POPC   C3921826   5.603   4.885   9.595  0.1900 -0.1981 -0.1690
  189POPC   H9X21827   5.572   4.779   9.586  0.7655 -0.6090  1.9622
  189POPC   H9Y21828   5.711   4.867   9.578  0.2796  0.7940 -0.7026
  189POPC  C31021829   5.568   4.980   9.483 -0.2821  0.4409 -0.5805
  189POPC  H10X21830   5.646   5.059   9.480  0.1030  0.2612  2.2159
  189POPC  H10Y21831   5.472   5.034   9.497 -0.7335 -0.2698 -0.8580
  189POPC  C31121832   5.565   4.906   9.347 -0.0934  0.0238 -0.4314
  189POPC  H11X21833   5.605   4.802   9.353 -2.2409 -0.7833  1.6613
  189POPC  H11Y21834   5.611   4.965   9.265 -3.4177  1.6067 -1.3278
  189POPC  C31221835   5.419   4.891   9.299 -0.1981 -0.7617 -1.0689
  189POPC  H12X21836   5.370   4.991   9.299  0.7975 -0.2352  0.5409
  189POPC  H12Y21837   5.372   4.836   9.384  0.1233 -0.0854 -0.4471
  189POPC  C31321838   5.399   4.815   9.169  0.1126 -0.7879 -0.2599
  189POPC  H13X21839   5.454   4.718   9.169  2.4929  0.4844 -1.9026
  189POPC  H13Y21840   5.442   4.868   9.082 -0.0100 -0.4683 -0.1264
  189POPC  C31421841   5.252   4.788   9.143 -0.7198  0.2595  0.0751
  189POPC  H14X21842   5.205   4.889   9.144 -1.8005 -0.1471 -2.3917
  189POPC  H14Y21843   5.211   4.733   9.230 -1.6487 -1.5070 -1.4250
  189POPC  C31521844   5.217   4.711   9.018  0.6127 -0.1000 -0.9003
  189POPC  H15X21845   5.107   4.702   9.029  0.7899  0.8097  2.6074
  189POPC  H15Y21846   5.259   4.610   9.036  2.1975  0.8709  1.2377
  189POPC  C31621847   5.271   4.769   8.886 -0.3370 -0.6375  1.0140
  189POPC  H16X21848   5.221   4.867   8.868  2.4849  0.4338 -1.9556
  189POPC  H16Y21849   5.254   4.708   8.794  2.7693  0.0695 -0.1493
  189POPC  H16Z21850   5.381   4.782   8.886 -0.0731 -2.2931 -1.0933
  190POPC     N21851   1.351   6.723  11.296 -0.2409  0.3378 -0.5196
  190POPC   C1221852   1.398   6.736  11.150 -0.4683  0.1241 -0.3948
  190POPC  H12A21853   1.318   6.771  11.086 -1.1152  0.1471  0.4094
  190POPC  H12B21854   1.418   6.636  11.112 -1.0590 -0.4489  0.7575
  190POPC   C1321855   1.450   6.635  11.373  0.3694  0.2819  0.3211
  190POPC  H13A21856   1.417   6.643  11.476  0.1055  2.5956  0.1084
  190POPC  H13B21857   1.458   6.537  11.328  0.2200  0.6760 -0.5845
  190POPC  H13C21858   1.552   6.671  11.366  1.0221 -1.2903  1.0825
  190POPC   C1421859   1.338   6.857  11.365  0.1094 -0.3885 -0.1530
  190POPC  H14A21860   1.305   6.855  11.468  2.0024  0.8168  0.5191
  190POPC  H14B21861   1.433   6.906  11.355  0.5893 -0.5671  2.7762
  190POPC  H14C21862   1.263   6.913  11.310 -1.8617 -3.4876 -0.9202
  190POPC   C1521863   1.225   6.652  11.296 -0.1309  0.3283  0.1179
  190POPC  H15A21864   1.151   6.723  11.263  1.6494  1.6833 -1.1685
  190POPC  H15B21865   1.194   6.624  11.395  0.7538  0.8348  0.5510
  190POPC  H15C21866   1.234   6.560  11.239  0.0142  0.8935 -0.7949
  190POPC   C1121867   1.526   6.816  11.117 -0.4815  0.5668  0.1540
  190POPC  H11A21868   1.516   6.920  11.153 -1.3173  0.8184 -0.7546
  190POPC  H11B21869   1.525   6.817  11.006  0.5516  0.6750  0.1415
  190POPC     P21870   1.711   6.619  11.110 -0.0089  0.2180 -0.1572
  190POPC   O1321871   1.616   6.504  11.103  0.2309 -0.2541  0.2933
  190POPC   O1421872   1.839   6.597  11.179 -0.8349  0.1341 -0.5484
  190POPC   O1221873   1.647   6.755  11.167 -0.2654  0.2733  0.6667
  190POPC   O1121874   1.743   6.668  10.964  0.2083  0.2387  0.1309
  190POPC    C121875   1.853   6.754  10.939 -0.1362  0.0958 -0.0398
  190POPC    HA21876   1.902   6.712  10.849 -0.2611 -0.9260  0.3576
  190POPC    HB21877   1.921   6.764  11.026 -0.1088  0.1109 -0.0633
  190POPC    C221878   1.804   6.903  10.907  0.0842 -0.1340  0.5275
  190POPC    HS21879   1.715   6.926  10.969 -0.0568  0.6171  0.0617
  190POPC   O2121880   1.769   6.913  10.770  1.2342 -0.2229 -0.6434
  190POPC   C2121881   1.664   6.849  10.721  0.8507  0.4146  0.2708
  190POPC   O2221882   1.573   6.797  10.778 -0.3576 -0.0940  0.4495
  190POPC   C2221883   1.664   6.878  10.572  0.0959 -0.1465  0.4342
  190POPC   H2R21884   1.764   6.908  10.534  0.5485 -2.1422 -0.0623
  190POPC   H2S21885   1.578   6.946  10.551 -1.4606 -1.6887  1.5458
  190POPC    C321886   1.916   7.005  10.946  0.4536 -0.5739  0.4734
  190POPC    HX21887   1.959   6.967  11.042  1.0292 -4.9298 -1.2641
  190POPC    HY21888   1.865   7.103  10.956  1.4726  0.0959 -0.6277
  190POPC   O3121889   2.021   7.010  10.847  0.0124 -0.1059  0.1868
  190POPC   C3121890   1.999   7.091  10.743  0.3464 -0.1107  0.6743
  190POPC   O3221891   1.903   7.165  10.726  0.1727  0.3802 -0.2694
  190POPC   C3221892   2.094   7.069  10.630 -1.1447 -0.0452 -0.1890
  190POPC   H2X21893   2.096   6.958  10.619  0.3018  0.0151 -0.6357
  190POPC   H2Y21894   2.196   7.093  10.665 -0.6165 -1.3589 -0.7587
  190POPC   C2321895   1.625   6.747  10.499 -0.9957 -0.5844 -0.7899
  190POPC   H3R21896   1.535   6.699  10.543 -0.6107 -2.7334 -2.1561
  190POPC   H3S21897   1.706   6.672  10.514 -3.0271 -2.6083  0.9290
  190POPC   C2421898   1.585   6.774  10.346  0.0145  0.4998 -0.6459
  190POPC   H4R21899   1.672   6.829  10.304 -0.4599  1.7413 -0.0385
  190POPC   H4S21900   1.501   6.846  10.341  0.4935  1.0514 -0.7811
  190POPC   C2521901   1.543   6.645  10.282  1.2955  0.1205  0.2777
  190POPC   H5R21902   1.436   6.635  10.307  0.4195  0.7781 -2.8357
  190POPC   H5S21903   1.602   6.563  10.329 -0.6745 -0.0133  2.6926
  190POPC   C2621904   1.546   6.638  10.121 -0.5267  0.6515 -0.5939
  190POPC   H6R21905   1.479   6.552  10.103 -0.1429 -0.0938  1.3278
  190POPC   H6S21906   1.651   6.617  10.089 -1.1843 -0.3376 -2.2205
  190POPC   C2721907   1.505   6.765  10.047  0.6721  0.1657 -0.2235
  190POPC   H7R21908   1.566   6.851  10.083  1.4824  0.0957 -1.3732
  190POPC   H7S21909   1.401   6.782  10.083  0.9112  0.2808  0.4202
  190POPC   C2821910   1.520   6.770   9.893 -0.1695 -0.1226 -0.2374
  190POPC   H8R21911   1.631   6.768   9.879 -0.1076 -0.1319  0.2231
  190POPC   H8S21912   1.501   6.876   9.864 -0.6246  0.8331  3.1390
  190POPC   C2921913   1.433   6.669   9.821 -0.5130  0.7282  0.6347
  190POPC   H9121914   1.334   6.716   9.809 -1.0934 -1.0251 -2.5047
  190POPC  C21021915   1.479   6.565   9.748  0.0110 -0.2674  0.0751
  190POPC  H10121916   1.403   6.498   9.706  0.0273  0.1256 -0.5922
  190POPC  C21121917   1.622   6.521   9.735 -0.7075  0.5054 -0.5258
  190POPC  H11R21918   1.645   6.429   9.792  0.2763  1.5649  0.8562
  190POPC  H11S21919   1.698   6.592   9.774  0.2186  0.4282 -2.1169
  190POPC  C21221920   1.671   6.515   9.586  1.2090  0.2339 -0.2156
  190POPC  H12R21921   1.655   6.616   9.543  0.2904  0.4261  0.5501
  190POPC  H12S21922   1.608   6.444   9.528  0.4019 -0.0471  0.9648
  190POPC  C21321923   1.822   6.472   9.567  0.0805 -0.1328  0.2177
  190POPC  H13R21924   1.843   6.392   9.642  0.2141 -0.0580  0.2621
  190POPC  H13S21925   1.890   6.552   9.604  1.2247 -2.0618  2.6130
  190POPC  C21421926   1.868   6.419   9.427  0.0115  0.4277 -0.2206
  190POPC  H14R21927   1.800   6.336   9.397  0.0551  0.4047 -0.2553
  190POPC  H14S21928   1.970   6.378   9.440  0.6032  1.6017 -1.0230
  190POPC  C21521929   1.868   6.522   9.312 -0.8558  0.0538 -0.4606
  190POPC  H15R21930   1.952   6.590   9.339 -0.4341 -0.8021  0.4470
  190POPC  H15S21931   1.775   6.582   9.321 -1.6801 -1.4059  1.2165
  190POPC  C21621932   1.897   6.455   9.178  0.7683  0.5884  1.1541
  190POPC  H16R21933   1.937   6.352   9.184 -0.0026 -0.1157 -2.7989
  190POPC  H16S21934   1.973   6.512   9.120  1.1247 -1.8093 -0.8997
  190POPC  C21721935   1.776   6.455   9.084 -0.5363 -0.1765 -0.5294
  190POPC  H17R21936   1.736   6.559   9.076  1.2217  0.6671  0.7766
  190POPC  H17S21937   1.694   6.411   9.144 -2.6917  1.8237 -1.8304
  190POPC  C21821938   1.794   6.394   8.944  0.6083 -0.3502 -0.6989
  190POPC  H18R21939   1.879   6.434   8.883 -0.5010  0.8425 -1.5269
  190POPC  H18S21940   1.700   6.403   8.885 -0.0278 -0.1730  0.3219
  190POPC  H18T21941   1.821   6.287   8.956 -1.4255 -0.7393  0.8953
  190POPC   C3321942   2.067   7.134  10.496 -0.1881 -0.0891  0.0215
  190POPC   H3X21943   2.157   7.123  10.432 -0.3619  0.1014 -0.2575
  190POPC   H3Y21944   2.048   7.243  10.510 -0.4317 -0.0040 -0.9001
  190POPC   C3421945   1.946   7.075  10.424  0.1961  0.0612 -0.4650
  190POPC   H4X21946   1.851   7.117  10.463  0.4580  0.0009  0.2512
  190POPC   H4Y21947   1.947   6.965  10.442 -0.4888 -0.0341 -0.9568
  190POPC   C3521948   1.959   7.105  10.280  0.2725  0.6659 -0.0772
  190POPC   H5X21949   2.061   7.078  10.244  0.9822  2.3334  0.5748
  190POPC   H5Y21950   1.951   7.215  10.265 -0.3859  0.3526 -2.4532
  190POPC   C3621951   1.854   7.042  10.189 -0.3056  1.3144 -0.1527
  190POPC   H6X21952   1.748   7.068  10.211 -1.4687 -2.5599 -0.3414
  190POPC   H6Y21953   1.862   6.933  10.208  0.8543  1.8623  3.2153
  190POPC   C3721954   1.873   7.080  10.039 -0.3133  0.6552 -0.3859
  190POPC   H7X21955   1.976   7.053  10.007  0.8764 -0.3967  3.6924
  190POPC   H7Y21956   1.874   7.191  10.037  2.3565  0.6959 -3.1918
  190POPC   C3821957   1.775   7.022   9.940  0.3691  0.1362  0.5356
  190POPC   H8X21958   1.673   7.055   9.967 -0.2497 -1.7111  0.6147
  190POPC   H8Y21959   1.779   6.911   9.943  0.3177  0.1473  2.5846
  190POPC   C3921960   1.808   7.067   9.799 -0.3782 -0.4510  0.0324
  190POPC   H9X21961   1.897   7.015   9.759 -0.9609 -0.6912 -0.9769
  190POPC   H9Y21962   1.823   7.177   9.791 -0.9507 -0.4859 -2.2534
  190POPC  C31021963   1.693   7.036   9.694  0.2525  0.6434 -0.1234
  190POPC  H10X21964   1.687   7.129   9.634 -0.7626  0.6586 -0.0172
  190POPC  H10Y21965   1.593   7.013   9.738  0.3918  1.4834  0.6548
  190POPC  C31121966   1.728   6.923   9.598  0.4561 -0.1337 -0.3601
  190POPC  H11X21967   1.725   6.822   9.644  0.6061  0.3758  0.8090
  190POPC  H11Y21968   1.828   6.950   9.558  1.2166  0.3491  1.7546
  190POPC  C31221969   1.622   6.903   9.494 -0.2842 -0.3770  0.6536
  190POPC  H12X21970   1.521   6.871   9.526 -2.9352  3.7032 -2.6048
  190POPC  H12Y21971   1.653   6.813   9.436  2.6338 -0.1793  1.7385
  190POPC  C31321972   1.589   7.025   9.398 -0.1419 -0.2127 -0.0495
  190POPC  H13X21973   1.682   7.073   9.360 -0.0801 -1.8411 -2.1557
  190POPC  H13Y21974   1.548   7.109   9.459  0.6743 -1.6062  2.5596
  190POPC  C31421975   1.487   6.988   9.296 -0.1970 -1.0715 -0.4613
  190POPC  H14X21976   1.390   6.950   9.334 -1.6188  0.2660 -2.5547
  190POPC  H14Y21977   1.517   6.903   9.230 -1.9066 -2.2637  0.2157
  190POPC  C31521978   1.458   7.104   9.201  0.2397  0.4497  0.3932
  190POPC  H15X21979   1.550   7.157   9.170  0.2016 -0.1711 -0.8494
  190POPC  H15Y21980   1.400   7.185   9.251 -0.7037 -0.3735  0.6572
  190POPC  C31621981   1.386   7.059   9.070  0.5505 -0.1623  0.3662
  190POPC  H16X21982   1.356   7.151   9.014  1.0584 -1.1139 -1.5519
  190POPC  H16Y21983   1.290   7.006   9.086  0.5881 -0.4510 -0.3256
  190POPC  H16Z21984   1.463   7.005   9.011  0.2667  1.2405 -1.3850
  191POPC     N21985   2.235   2.168   6.197 -0.3135  0.7984  0.5170
  191POPC   C1221986   2.254   2.284   6.292 -0.4940  0.7163  0.7384
  191POPC  H12A21987   2.352   2.272   6.335  0.6901  2.4051 -1.3081
  191POPC  H12B21988   2.170   2.273   6.360  0.7816 -3.7964  1.9761
  191POPC   C1321989   2.346   2.163   6.091  0.0003 -0.2130 -0.2263
  191POPC  H13A21990   2.354   2.259   6.041  2.0046  0.8570  1.9230
  191POPC  H13B21991   2.446   2.157   6.132 -0.3109 -1.1730  0.4097
  191POPC  H13C21992   2.337   2.096   6.007 -0.5806  0.1326 -0.4417
  191POPC   C1421993   2.252   2.047   6.273  0.3894 -0.5780 -0.0653
  191POPC  H14A21994   2.357   2.022   6.273  0.5946  0.2344  1.0158
  191POPC  H14B21995   2.214   2.038   6.373  1.0750 -0.3456  0.2170
  191POPC  H14C21996   2.206   1.964   6.220 -0.3690  0.3927 -0.9691
  191POPC   C1521997   2.096   2.172   6.129 -0.0829 -0.1202 -0.7842
  191POPC  H15A21998   2.016   2.198   6.196  1.5899  1.4473  0.7369
  191POPC  H15B21999   2.083   2.081   6.072 -1.6232 -0.9531  0.7829
  191POPC  H15C22000   2.096   2.246   6.050 -0.0703  0.2167 -0.4740
  191POPC   C1122001   2.269   2.425   6.230 -0.2935 -0.5251 -0.5384
  191POPC  H11A22002   2.363   2.423   6.170 -0.7012 -1.7614 -1.1578
  191POPC  H11B22003   2.283   2.509   6.302 -2.0963 -0.6685  0.0135
  191POPC     P22004   2.033   2.512   6.192  0.1052 -0.2115 -0.0068
  191POPC   O1322005   1.930   2.453   6.104 -0.5606 -0.4545 -0.8878
  191POPC   O1422006   2.041   2.659   6.191  0.5283  0.5715 -0.4550
  191POPC   O1222007   2.165   2.450   6.139  0.0066 -0.3730 -0.4874
  191POPC   O1122008   2.021   2.461   6.343 -0.5028 -0.2160 -0.3572
  191POPC    C122009   1.894   2.392   6.384 -1.2171 -0.5842  0.3664
  191POPC    HA22010   1.923   2.335   6.474 -0.2716 -1.8998 -0.7214
  191POPC    HB22011   1.855   2.321   6.308 -2.9082 -0.4578  1.0708
  191POPC    C222012   1.773   2.483   6.412 -0.1438  0.4680 -0.1391
  191POPC    HS22013   1.744   2.532   6.316  2.8607  1.5031 -0.6285
  191POPC   O2122014   1.813   2.584   6.507 -0.2714  0.2325 -0.0008
  191POPC   C2122015   1.737   2.690   6.518  0.1743  0.4415 -0.0127
  191POPC   O2222016   1.629   2.705   6.461 -0.0048  0.2964  0.0431
  191POPC   C2222017   1.812   2.799   6.601  0.1637 -0.6267 -0.7650
  191POPC   H2R22018   1.752   2.887   6.633  0.7961 -0.4463 -0.0670
  191POPC   H2S22019   1.882   2.851   6.532  1.4482 -0.4884  0.5935
  191POPC    C322020   1.660   2.390   6.482  0.1536 -0.3188  0.3767
  191POPC    HX22021   1.615   2.316   6.412 -0.9284  0.7887 -0.1254
  191POPC    HY22022   1.575   2.455   6.509  0.8821  0.2025  1.4782
  191POPC   O3122023   1.716   2.317   6.596 -0.1137  0.1100  0.1223
  191POPC   C3122024   1.669   2.335   6.716 -0.5565  0.0805 -0.4637
  191POPC   O3222025   1.586   2.415   6.755 -0.3941 -0.1168 -0.6858
  191POPC   C3222026   1.755   2.246   6.813 -0.3846 -0.2522  0.4429
  191POPC   H2X22027   1.802   2.307   6.894  0.3000  0.9761 -0.8357
  191POPC   H2Y22028   1.831   2.198   6.749 -1.2052 -1.1836  0.1534
  191POPC   C2322029   1.877   2.737   6.724 -0.5713  0.4973 -0.0835
  191POPC   H3R22030   1.951   2.809   6.763 -0.2192  0.1903 -0.1767
  191POPC   H3S22031   1.938   2.649   6.692  0.8324  1.9132 -1.4870
  191POPC   C2422032   1.784   2.698   6.843  0.2804  0.9401 -0.6453
  191POPC   H4R22033   1.708   2.627   6.803  3.2273 -1.5995 -2.2085
  191POPC   H4S22034   1.738   2.792   6.882  0.4569  1.5704 -1.9051
  191POPC   C2522035   1.859   2.613   6.948  0.2345 -0.0158  0.1163
  191POPC   H5R22036   1.920   2.686   7.005 -2.1975  2.7221 -0.5716
  191POPC   H5S22037   1.937   2.549   6.900 -0.5862 -1.2347  0.3422
  191POPC   C2622038   1.779   2.538   7.045  0.4736  0.1959  0.6973
  191POPC   H6R22039   1.723   2.459   6.992  2.2961 -0.5116 -0.2580
  191POPC   H6S22040   1.710   2.612   7.091  0.0843  1.3167 -1.5547
  191POPC   C2722041   1.861   2.479   7.164 -0.7265 -0.4291 -0.0791
  191POPC   H7R22042   1.886   2.563   7.232 -2.1667 -1.4672  1.8355
  191POPC   H7S22043   1.959   2.438   7.130 -0.0822 -1.0955  2.3359
  191POPC   C2822044   1.780   2.371   7.246 -0.0447  0.0814  0.3220
  191POPC   H8R22045   1.693   2.340   7.184  1.3691 -0.6312 -1.4038
  191POPC   H8S22046   1.738   2.422   7.335  0.4153  1.2265 -0.0928
  191POPC   C2922047   1.850   2.243   7.291 -0.1043 -0.4211 -0.2201
  191POPC   H9122048   1.887   2.181   7.207  0.2621  0.2520 -0.5633
  191POPC  C21022049   1.896   2.220   7.420  0.0547 -0.1886  0.1957
  191POPC  H10122050   1.954   2.131   7.445 -0.4655 -0.7639 -0.5967
  191POPC  C21122051   1.881   2.316   7.531 -0.1759 -0.3329  0.2128
  191POPC  H11R22052   1.788   2.377   7.535  0.6546  0.9081  3.1696
  191POPC  H11S22053   1.963   2.390   7.525 -0.6206  0.0613 -1.7041
  191POPC  C21222054   1.887   2.237   7.667  0.9783 -1.0805  0.7093
  191POPC  H12R22055   1.975   2.171   7.654  0.6759 -1.3974  0.2135
  191POPC  H12S22056   1.798   2.170   7.666  0.7580 -0.9088 -2.2610
  191POPC  C21322057   1.897   2.324   7.790 -0.2411 -0.8742 -0.1816
  191POPC  H13R22058   1.800   2.376   7.802 -0.1547 -0.5339 -0.8720
  191POPC  H13S22059   1.971   2.405   7.772  1.5543 -2.0189  1.5477
  191POPC  C21422060   1.913   2.224   7.900  0.6999 -0.1222 -0.9527
  191POPC  H14R22061   1.998   2.156   7.878  0.3073 -0.9902  0.1226
  191POPC  H14S22062   1.820   2.164   7.897  0.0618  0.8313 -0.6918
  191POPC  C21522063   1.918   2.291   8.038 -0.0684  0.6273  0.4110
  191POPC  H15R22064   1.819   2.336   8.061 -0.2616 -0.0642  0.9640
  191POPC  H15S22065   1.981   2.382   8.028 -0.5735  0.7171 -2.9723
  191POPC  C21622066   1.949   2.199   8.161  0.3221 -0.7333 -0.6102
  191POPC  H16R22067   1.882   2.111   8.155 -0.1781 -0.3070 -1.6355
  191POPC  H16S22068   1.924   2.252   8.255  0.3712 -1.4808 -0.1738
  191POPC  C21722069   2.094   2.153   8.163  0.3177  0.7031 -0.2283
  191POPC  H17R22070   2.115   2.086   8.077  1.0020  1.2701 -0.5110
  191POPC  H17S22071   2.112   2.092   8.254  0.1238  0.8481 -0.0911
  191POPC  C21822072   2.195   2.263   8.172  0.4325 -0.0952 -0.5789
  191POPC  H18R22073   2.297   2.221   8.184  0.4175 -0.0669 -0.3489
  191POPC  H18S22074   2.175   2.324   8.262  1.4061  0.5848 -0.8025
  191POPC  H18T22075   2.196   2.332   8.084 -1.1213  0.0189 -0.5288
  191POPC   C3322076   1.674   2.130   6.876 -0.1233  0.4900 -0.0200
  191POPC   H3X22077   1.603   2.096   6.797 -0.0137  1.9311 -0.7551
  191POPC   H3Y22078   1.617   2.177   6.959  1.2986 -0.5625  1.6404
  191POPC   C3422079   1.753   2.016   6.938 -0.0944  0.4323 -0.2476
  191POPC   H4X22080   1.857   2.047   6.962  0.3928 -2.2651  1.6195
  191POPC   H4Y22081   1.755   1.930   6.868  0.3035 -1.5731  2.1042
  191POPC   C3522082   1.708   1.966   7.070 -0.6721  0.0070 -0.0680
  191POPC   H5X22083   1.607   1.918   7.067 -0.3655 -1.1155  3.2358
  191POPC   H5Y22084   1.698   2.038   7.154 -1.6161 -0.4077  0.1853
  191POPC   C3622085   1.808   1.860   7.119  0.4337 -0.1493 -0.2173
  191POPC   H6X22086   1.907   1.908   7.138 -0.1030  0.8673  0.0892
  191POPC   H6Y22087   1.813   1.782   7.040 -1.0161 -0.2739 -0.2083
  191POPC   C3722088   1.776   1.795   7.250 -0.0161 -0.3834  0.2054
  191POPC   H7X22089   1.802   1.687   7.256 -1.7931 -0.8385  0.2270
  191POPC   H7Y22090   1.666   1.789   7.266  0.1631 -2.1053  0.9451
  191POPC   C3822091   1.840   1.874   7.371 -0.2646 -0.4566 -0.4418
  191POPC   H8X22092   1.791   1.974   7.372  2.3724  1.0140 -2.5702
  191POPC   H8Y22093   1.944   1.902   7.343 -0.6465  3.3260  1.3403
  191POPC   C3922094   1.840   1.796   7.505 -0.1073  0.3454 -0.1604
  191POPC   H9X22095   1.903   1.706   7.493 -0.8401 -0.2231  0.2189
  191POPC   H9Y22096   1.737   1.765   7.533  0.5025  0.6214  2.6213
  191POPC  C31022097   1.903   1.883   7.615  0.0895  0.5878 -0.4081
  191POPC  H10X22098   1.831   1.966   7.631 -1.0158 -0.3873 -0.1874
  191POPC  H10Y22099   1.997   1.922   7.568  0.3236  0.3483 -0.1444
  191POPC  C31122100   1.944   1.817   7.746  0.1654 -0.6604  0.9415
  191POPC  H11X22101   1.991   1.896   7.810  1.0074 -0.5673  0.2256
  191POPC  H11Y22102   2.018   1.739   7.717 -0.5755 -0.5581 -1.4355
  191POPC  C31222103   1.840   1.759   7.840 -0.1084 -0.5346 -0.7325
  191POPC  H12X22104   1.789   1.674   7.790 -3.3468  0.4836  0.5387
  191POPC  H12Y22105   1.760   1.833   7.861  1.6737  0.8378  1.7564
  191POPC  C31322106   1.902   1.712   7.976 -0.5010 -0.3967 -0.4233
  191POPC  H13X22107   1.994   1.650   7.963 -0.4394 -0.2140 -0.8703
  191POPC  H13Y22108   1.820   1.653   8.024 -1.3414  1.6463  0.7671
  191POPC  C31422109   1.933   1.828   8.065 -0.3767  0.3119 -0.5483
  191POPC  H14X22110   1.834   1.879   8.076 -1.9798 -1.8166 -3.7512
  191POPC  H14Y22111   2.005   1.905   8.030  0.6025  0.7947  2.2583
  191POPC  C31522112   1.982   1.789   8.208  0.3061  0.2873  1.0517
  191POPC  H15X22113   2.083   1.832   8.226 -0.2336  1.3372  1.6583
  191POPC  H15Y22114   1.977   1.680   8.224 -2.7810  0.2219  0.2352
  191POPC  C31622115   1.886   1.847   8.316 -0.6674 -0.8321  0.2776
  191POPC  H16X22116   1.901   1.957   8.315  0.5749 -0.9857 -0.5919
  191POPC  H16Y22117   1.921   1.804   8.413  0.5135 -1.4191 -0.3887
  191POPC  H16Z22118   1.779   1.824   8.295 -1.6283  0.8773  2.7866
  192POPC     N22119   6.606   4.664   6.204  0.5092 -0.5176 -0.2961
  192POPC   C1222120   6.615   4.644   6.355 -0.2212 -0.3277  0.4330
  192POPC  H12A22121   6.526   4.605   6.402  0.2213  0.6625  2.1602
  192POPC  H12B22122   6.643   4.740   6.397 -1.6126 -0.4288  1.6605
  192POPC   C1322123   6.582   4.539   6.123 -0.0727 -0.4750  0.1450
  192POPC  H13A22124   6.489   4.499   6.162  1.1054 -4.6069 -0.7701
  192POPC  H13B22125   6.580   4.556   6.016 -2.1615  1.5026  0.4009
  192POPC  H13C22126   6.655   4.464   6.145  1.1990  0.6249 -0.1965
  192POPC   C1422127   6.483   4.747   6.190 -0.2647 -0.1273 -0.6419
  192POPC  H14A22128   6.495   4.845   6.232 -0.8143 -0.1291 -0.4698
  192POPC  H14B22129   6.465   4.756   6.084 -0.4146 -1.6398 -0.7730
  192POPC  H14C22130   6.399   4.691   6.229  0.8103 -1.2084  0.1877
  192POPC   C1522131   6.722   4.740   6.140  0.7772  0.2103  0.2150
  192POPC  H15A22132   6.739   4.839   6.180  0.4758 -0.1645  1.3316
  192POPC  H15B22133   6.716   4.751   6.033 -0.0527  5.3487  0.5640
  192POPC  H15C22134   6.812   4.684   6.164  1.7737  0.1123 -3.2098
  192POPC   C1122135   6.735   4.563   6.408  0.6106  0.7984 -0.0952
  192POPC  H11A22136   6.735   4.458   6.371 -0.3583  0.7157  0.1342
  192POPC  H11B22137   6.710   4.547   6.515  1.0885  1.4828  0.1298
  192POPC     P22138   6.902   4.739   6.462 -0.0429 -0.3439  0.2164
  192POPC   O1322139   6.803   4.775   6.565 -0.5657 -0.3088 -0.2403
  192POPC   O1422140   6.934   4.838   6.359 -0.1928 -0.3998 -0.0638
  192POPC   O1222141   6.867   4.614   6.381  0.5418 -0.0880  0.1544
  192POPC   O1122142   7.041   4.696   6.533  0.3064  0.5436 -0.2636
  192POPC    C122143   7.081   4.556   6.528 -0.0866  0.3780 -0.0532
  192POPC    HA22144   7.175   4.535   6.474  0.7120 -1.3681  1.8813
  192POPC    HB22145   7.008   4.481   6.490 -0.8603  0.6559  0.8347
  192POPC    C222146   7.109   4.505   6.670 -0.5276  0.1667  0.4271
  192POPC    HS22147   7.030   4.538   6.740 -1.0900  1.8272 -0.9077
  192POPC   O2122148   7.238   4.556   6.697 -0.4800  0.2309  0.0451
  192POPC   C2122149   7.248   4.609   6.824 -0.3112  0.1663 -0.4896
  192POPC   O2222150   7.160   4.623   6.905 -0.1170  0.4813  0.0678
  192POPC   C2222151   7.403   4.643   6.832  0.5904 -0.6800  0.8066
  192POPC   H2R22152   7.438   4.673   6.731  1.9452 -0.9212  1.1855
  192POPC   H2S22153   7.464   4.554   6.859  1.0167 -1.4808 -2.3860
  192POPC    C322154   7.119   4.353   6.680 -0.2300 -0.2583  0.3205
  192POPC    HX22155   7.210   4.325   6.623 -0.0299  0.5313  0.2457
  192POPC    HY22156   7.038   4.306   6.620 -1.3136 -0.3209  1.7562
  192POPC   O3122157   7.120   4.307   6.812 -0.2073  0.3074 -0.1391
  192POPC   C3122158   6.991   4.301   6.867 -0.0980 -0.3323  0.8568
  192POPC   O3222159   6.891   4.320   6.796  0.5070 -0.1440 -0.0387
  192POPC   C3222160   6.996   4.270   7.016  0.3665  0.3368 -0.1208
  192POPC   H2X22161   7.049   4.179   7.051 -0.6160  0.2964  1.3966
  192POPC   H2Y22162   6.888   4.257   7.042  0.7770 -3.8669  0.2923
  192POPC   C2322163   7.435   4.749   6.937  0.6153 -0.3378 -0.2355
  192POPC   H3R22164   7.374   4.834   6.899  1.1722 -0.2912 -1.0701
  192POPC   H3S22165   7.542   4.775   6.929  0.4253  1.1390  1.4422
  192POPC   C2422166   7.414   4.705   7.085 -0.3107 -0.3081 -0.9270
  192POPC   H4R22167   7.455   4.602   7.090  0.4010  0.0271  0.6242
  192POPC   H4S22168   7.307   4.696   7.115 -0.5592  2.3453 -0.8323
  192POPC   C2522169   7.490   4.790   7.180 -0.2224  0.2746 -0.3118
  192POPC   H5R22170   7.447   4.892   7.192  0.3329  0.6344 -1.2434
  192POPC   H5S22171   7.593   4.803   7.141 -0.1950 -0.7470 -0.6107
  192POPC   C2622172   7.488   4.719   7.309  0.0856 -0.5409 -0.7153
  192POPC   H6R22173   7.552   4.629   7.304 -0.8422 -1.3874  1.4589
  192POPC   H6S22174   7.382   4.699   7.334 -0.1009 -0.1728 -1.1947
  192POPC   C2722175   7.529   4.806   7.431  0.3601 -0.2970 -0.2654
  192POPC   H7R22176   7.472   4.752   7.510  0.1114  3.4150  2.3384
  192POPC   H7S22177   7.483   4.907   7.424  2.2804  0.7324  0.9278
  192POPC   C2822178   7.680   4.813   7.461 -0.0386 -0.3260 -0.1005
  192POPC   H8R22179   7.689   4.885   7.545  0.5053  0.5584 -0.8961
  192POPC   H8S22180   7.722   4.864   7.372  0.4823  0.6291  0.6647
  192POPC   C2922181   7.757   4.695   7.496 -0.3875  0.0679  0.0185
  192POPC   H9122182   7.745   4.620   7.417  0.9426  0.1334 -0.2744
  192POPC  C21022183   7.818   4.662   7.610  0.3059  0.3000  0.9765
  192POPC  H10122184   7.882   4.573   7.614  1.1676  0.9048  0.8906
  192POPC  C21122185   7.825   4.747   7.731 -0.5161  0.0977 -0.2768
  192POPC  H11R22186   7.842   4.854   7.703  0.1561 -0.0650 -0.5027
  192POPC  H11S22187   7.917   4.719   7.787  0.5717  2.7264 -0.5723
  192POPC  C21222188   7.708   4.742   7.830 -0.2289 -0.4131  0.0162
  192POPC  H12R22189   7.703   4.637   7.868  2.5946 -0.4617  0.5106
  192POPC  H12S22190   7.620   4.773   7.769 -1.2446 -2.4596  0.3338
  192POPC  C21322191   7.729   4.843   7.945 -0.0615 -0.1275 -0.2780
  192POPC  H13R22192   7.759   4.942   7.905 -0.1154  0.6176  1.4267
  192POPC  H13S22193   7.808   4.802   8.011  1.5315  1.5579 -1.0639
  192POPC  C21422194   7.604   4.872   8.033  0.7762  0.1316 -0.0121
  192POPC  H14R22195   7.563   4.771   8.054  1.0478 -0.0112 -0.1648
  192POPC  H14S22196   7.534   4.931   7.971  0.2330 -0.0487  0.4189
  192POPC  C21522197   7.633   4.955   8.159  0.5151  0.0850  0.4068
  192POPC  H15R22198   7.532   4.981   8.198  0.0651 -2.1610  0.8773
  192POPC  H15S22199   7.678   5.053   8.135  2.4149 -1.1382 -1.4008
  192POPC  C21622200   7.706   4.877   8.269  0.2974  0.0203 -0.3795
  192POPC  H16R22201   7.812   4.853   8.247  0.9146  1.7676  0.5068
  192POPC  H16S22202   7.648   4.782   8.271 -1.2652  0.9334  1.8035
  192POPC  C21722203   7.699   4.947   8.402  0.3638  0.1091 -0.3011
  192POPC  H17R22204   7.595   4.978   8.429  1.0204 -0.4350  3.3076
  192POPC  H17S22205   7.754   5.044   8.401  0.6169  0.0030 -3.0032
  192POPC  C21822206   7.744   4.861   8.523  0.4819  0.4765  0.5865
  192POPC  H18R22207   7.708   4.907   8.617 -2.6462 -0.8005  0.1218
  192POPC  H18S22208   7.852   4.835   8.523  0.7774  1.5846 -0.4394
  192POPC  H18T22209   7.692   4.763   8.513 -0.2441  0.8401  0.7274
  192POPC   C3322210   7.059   4.383   7.096  0.0418 -0.0163 -0.4301
  192POPC   H3X22211   7.001   4.476   7.079  0.3267  0.3069  0.3184
  192POPC   H3Y22212   7.166   4.390   7.067  0.1862 -1.2064 -0.2308
  192POPC   C3422213   7.050   4.359   7.248 -0.1515  0.1676  0.4690
  192POPC   H4X22214   7.083   4.259   7.282  1.5891  1.0391  1.4814
  192POPC   H4Y22215   6.942   4.370   7.273 -0.1222 -0.4501  0.8923
  192POPC   C3522216   7.132   4.460   7.319 -0.5085 -0.3966  0.5271
  192POPC   H5X22217   7.086   4.561   7.312  1.8134  0.8091  1.7121
  192POPC   H5Y22218   7.237   4.463   7.282 -0.6720  0.4883  0.1147
  192POPC   C3622219   7.150   4.425   7.473  0.8959 -0.2434 -0.7577
  192POPC   H6X22220   7.212   4.333   7.482  1.7784  0.3797 -0.3056
  192POPC   H6Y22221   7.044   4.413   7.504 -0.0161 -1.4925 -3.9208
  192POPC   C3722222   7.223   4.534   7.549  0.1280  0.3640 -0.0655
  192POPC   H7X22223   7.164   4.626   7.532 -0.7358  0.0647  1.0772
  192POPC   H7Y22224   7.321   4.556   7.503 -0.3339  0.5384 -0.9763
  192POPC   C3822225   7.229   4.501   7.700 -0.3612 -0.2968  0.3325
  192POPC   H8X22226   7.246   4.391   7.701 -1.3219 -0.4560  1.1679
  192POPC   H8Y22227   7.131   4.506   7.753  0.4958  1.7552  1.8769
  192POPC   C3922228   7.334   4.585   7.778  0.4929  0.7314 -0.4258
  192POPC   H9X22229   7.304   4.692   7.780 -2.6073 -0.0501  0.3898
  192POPC   H9Y22230   7.429   4.581   7.721  0.1412  1.0097 -1.0383
  192POPC  C31022231   7.358   4.550   7.923 -0.5498  0.7964 -0.4872
  192POPC  H10X22232   7.439   4.619   7.955 -0.5117  2.7734 -4.2807
  192POPC  H10Y22233   7.391   4.444   7.928  0.8821  1.2514  0.3017
  192POPC  C31122234   7.237   4.577   8.015  0.1819 -0.2186 -0.9372
  192POPC  H11X22235   7.137   4.554   7.972 -0.4244 -1.0889  0.8562
  192POPC  H11Y22236   7.239   4.686   8.036  1.1479 -0.1734 -1.1920
  192POPC  C31222237   7.257   4.488   8.136 -0.2428 -0.3614  0.6283
  192POPC  H12X22238   7.364   4.460   8.147 -0.8237 -2.7485  0.7245
  192POPC  H12Y22239   7.208   4.389   8.119 -1.1303  0.2220 -0.2980
  192POPC  C31322240   7.181   4.540   8.254  0.1000  0.1998  0.3331
  192POPC  H13X22241   7.187   4.473   8.343 -1.1849 -0.0572  0.2489
  192POPC  H13Y22242   7.072   4.547   8.231  0.5647  2.4908 -1.4625
  192POPC  C31422243   7.246   4.669   8.306  0.3174 -0.1736 -0.2083
  192POPC  H14X22244   7.186   4.715   8.387  1.3437 -1.6157  1.4717
  192POPC  H14Y22245   7.277   4.743   8.230 -0.1268  0.1367 -0.0908
  192POPC  C31522246   7.388   4.645   8.374  0.4063 -0.7978 -0.3705
  192POPC  H15X22247   7.472   4.636   8.302  0.2127 -0.3882 -0.6479
  192POPC  H15Y22248   7.377   4.547   8.426  1.9859 -0.0564  1.4981
  192POPC  C31622249   7.409   4.760   8.468  0.2495  0.1352  0.6307
  192POPC  H16X22250   7.499   4.750   8.534 -0.7684 -1.8751  1.8143
  192POPC  H16Y22251   7.331   4.759   8.547  1.5677  0.1715  1.9799
  192POPC  H16Z22252   7.398   4.858   8.416  1.5901 -0.2136 -0.3587
  193SOD    SOD22253   5.200   6.072   6.276  0.2732  0.7643 -0.7675
  194SOD    SOD22254   6.079   4.697   6.518  0.0376  0.3447  0.0632
  195SOD    SOD22255   0.668   1.589  16.724  0.3321  0.3565 -0.3419
  196SOD    SOD22256   0.820   6.295  12.234 -0.4506 -0.2846 -0.3148
  197SOD    SOD22257   0.965   1.001  14.561  0.2168 -0.3951  0.2186
  198SOD    SOD22258   6.130   0.374   5.284 -0.1024 -0.1792  0.2702
  199SOD    SOD22259   4.524   5.718   3.344  0.2001 -0.1443  0.2534
  200SOD    SOD22260   5.244   6.232   4.148  0.5404  0.4821 -0.2076
  201SOD    SOD22261   1.818   3.200  11.234 -0.3048 -0.1974 -0.4252
  202SOD    SOD22262   1.360   3.604  11.093 -0.4459  0.2123  0.6732
  203SOD    SOD22263   4.065   1.246   2.521  0.1456 -0.5696 -0.2522
  204SOD    SOD22264   1.977   0.218   2.405 -0.0666 -0.3419 -0.0850
  205SOD    SOD22265   1.160   3.025   3.130  0.3281  0.4693  0.4506
  206SOD    SOD22266   2.756   2.902   0.975  0.1874  0.5083  0.2616
  207SOD    SOD22267   4.403   5.399  13.876 -0.1921 -0.2256 -0.5195
  208SOD    SOD22268   1.643   2.743  10.747  0.7083  0.1515  0.0221
  209SOD    SOD22269   1.529   5.083  12.676 -0.2090 -0.1565 -0.1448
  210SOD    SOD22270   1.638   3.580   2.848  0.0910  0.4157 -0.1167
  211SOD    SOD22271   1.361   0.842  15.847 -0.6015  0.4659 -0.4873
  212SOD    SOD22272   1.332   6.344  16.601 -0.1316  0.1768  0.2561
  213SOD    SOD22273   2.798   0.774  14.116  0.0854  0.0257 -0.0278
  214SOD    SOD22274   2.578   6.598   1.157 -0.4391 -0.2066 -0.1084
  215SOD    SOD22275   1.966   0.386  17.116  0.3584 -0.0119  0.0617
  216SOD    SOD22276   0.616   5.647   0.228 -0.0930 -0.5624  0.5844
  217SOD    SOD22277   2.911   6.587  13.843  0.3371 -0.0852 -0.2419
  218SOD    SOD22278   4.420   2.895   6.169 -0.3207  0.2283  0.2554
  219SOD    SOD22279   3.045   5.161   5.996  0.1395  0.1500 -0.4363
  220SOD    SOD22280   3.556   5.517   6.366  0.0824  0.2219 -0.5516
  221SOD    SOD22281   4.574   4.364  10.649 -0.2000 -0.2924  0.4719
  222SOD    SOD22282   3.115   1.651  12.083  0.1574 -0.3922  0.0034
  223SOD    SOD22283   6.536   6.564  15.043 -0.0669 -0.0502 -0.0562
  224SOD    SOD22284   1.183   4.503   0.300  0.1428  0.0499 -0.1396
  225SOD    SOD22285   1.815   1.147   2.101  0.0214 -0.0574  0.2025
  226SOD    SOD22286   1.332   2.981  12.706  0.2847 -0.1405  0.6032
  227SOD    SOD22287   6.767   1.932  14.810  0.5681 -0.1419 -0.1499
  228SOD    SOD22288   5.698   2.387   6.277  0.2305  0.0446 -0.8763
  229SOD    SOD22289   2.402   4.224   5.773  0.2346 -0.3507 -0.2336
  230SOD    SOD22290   2.048   5.406   2.665  0.2960  0.6330  0.3108
  231SOD    SOD22291   2.773   0.210   4.221  0.1470  0.4011 -0.6402
  232SOD    SOD22292   0.050   4.871  12.313 -1.0408 -0.0832  0.1919
  233SOD    SOD22293   1.716   5.134   2.276  0.2301 -0.8061 -0.2438
  234SOD    SOD22294   5.640   4.327   4.444 -0.6693 -0.6150  0.2445
  235SOD    SOD22295   1.535   3.535  10.523 -0.1359 -0.0538  0.0650
  236SOD    SOD22296   0.074   1.357   4.153 -0.5269  0.2026 -0.2935
  237SOD    SOD22297   2.139   4.344  13.229 -0.0572 -0.3156 -0.0560
  238SOD    SOD22298   0.812   6.356   5.070  0.0382 -0.1256 -1.1358
  239SOD    SOD22299   4.113   5.094   2.421 -0.2839  0.0290  0.2770
  240SOD    SOD22300   5.831   5.361  12.275 -0.1439 -0.0978 -0.3265
  241SOD    SOD22301   3.665   3.401  17.176 -0.3128  0.4889  0.0264
  242SOD    SOD22302   6.760   0.985  11.012 -0.2219 -0.4300  0.2842
  243SOD    SOD22303   4.449   2.437  10.653 -0.2439 -0.2697 -0.1975
  244SOD    SOD22304   6.027   6.323  10.807  0.2021 -0.4540 -0.1351
  245SOD    SOD22305   0.915   5.649  14.414  0.4512  0.2009 -0.3128
  246SOD    SOD22306   1.652   6.718   4.979  0.3204  0.2461  0.2048
  247SOD    SOD22307   2.523   3.066  16.374 -0.0298 -0.4362 -0.0226
  248SOD    SOD22308   2.092   0.388  11.618  0.5528  0.5029  0.3521
  249SOD    SOD22309   2.760   1.761  17.191  0.3655  0.1461  0.1003
  250SOD    SOD22310   5.567   0.350  13.539  0.3958 -0.1452  0.5767
  251SOD    SOD22311   0.885   2.667   3.843  0.5227 -0.3295  0.1316
  252SOD    SOD22312   1.925   2.856   6.147 -0.2084 -0.1092 -0.1296
  253SOD    SOD22313   3.687   6.182  11.681  0.3421  0.0724  0.1257
  254SOD    SOD22314   3.491   0.819   5.359  0.4702 -0.3999 -0.5952
  255SOD    SOD22315   4.053   2.068  11.284 -0.6468 -0.2763 -0.1960
  256SOD    SOD22316   3.163   1.378   5.562  0.3144 -0.3315 -0.3550
  257SOD    SOD22317   0.824   4.057   5.957  0.2271  0.4191  0.0340
  258SOD    SOD22318   1.804   1.341   4.123  0.2224 -0.1837 -0.9215
  259SOD    SOD22319   2.931   6.008   0.053  0.1737  0.4280 -0.2048
  260SOD    SOD22320   4.380   1.683  17.275 -0.4532  0.2032 -0.1395
  261SOD    SOD22321   5.295   4.210  16.264 -0.1302  0.0781 -0.2595
  262SOD    SOD22322   6.153   2.073   5.637  0.1105 -1.0465  0.3588
  263SOD    SOD22323   5.522   5.149  16.834 -0.1410  0.2464  0.5709
  264SOD    SOD22324   6.637   1.229   0.273  0.1389 -0.1607  0.1007
  265SOD    SOD22325   5.933   6.640   5.580  0.1242 -0.0903  0.0557
  266SOD    SOD22326   0.770   3.170  15.858  0.2382  0.0023 -0.2752
  267SOD    SOD22327   4.650   2.201  14.041 -0.0004 -0.6082  0.0831
  268SOD    SOD22328   6.307   5.029  12.824 -0.2304 -0.4708 -0.3014
  269SOD    SOD22329   6.574   2.583  11.263  0.4509 -0.1340  0.4898
  270CLA    CLA22330   0.702   4.117   2.917 -0.2627 -0.0373 -0.0383
  271CLA    CLA22331   1.972   6.349  16.869 -0.0749  0.1813  0.1593
  272CLA    CLA22332   4.916   4.585   1.770 -0.3422 -0.0673  0.2940
  273CLA    CLA22333   3.035   0.392   2.674  0.5595 -0.0262 -0.3770
  274CLA    CLA22334   3.384   0.486   0.047 -0.1792 -0.4483 -0.4810
  275CLA    CLA22335   1.826   0.951   0.315 -0.0707 -0.2998  0.0149
  276CLA    CLA22336   2.788   4.495   0.580  0.0978  0.0986 -0.1656
  277CLA    CLA22337   0.563   1.554  13.657  0.2776 -0.1423 -0.4044
  278CLA    CLA22338   3.881   5.532   2.338  0.2117 -0.0516  0.6005
  279CLA    CLA22339   4.426   4.186   4.126  0.0546  0.1114  0.0102
  280CLA    CLA22340   0.120   5.043  16.122 -0.0590  0.3403 -0.3160
  281CLA    CLA22341   1.749   5.960   1.408  0.2074 -0.0001  0.5594
  282CLA    CLA22342   0.745   3.464  13.553 -0.2363 -0.1755  0.3501
  283CLA    CLA22343   4.548   3.830  17.206 -0.0000 -0.1372 -0.0756
  284CLA    CLA22344   0.238   1.348  16.539 -0.2595  0.2297 -0.4182
  285CLA    CLA22345   1.642   2.076  16.171 -0.2216  0.2152  0.0036
  286CLA    CLA22346   5.628   2.836   1.617 -0.1416 -0.2619 -0.2838
  287CLA    CLA22347   1.050   1.860  11.629  0.1323 -0.2480  0.4633
  288CLA    CLA22348   2.625   6.668  12.685 -0.1180  0.3075  0.0322
  289CLA    CLA22349   0.320   3.475  14.489 -0.2959 -0.0115 -0.0404
  290CLA    CLA22350   5.130   2.207  11.849  0.3315  0.4250  0.1015
  291CLA    CLA22351   4.557   1.334   4.752  0.1570 -0.0916  0.4134
  292CLA    CLA22352   0.393   4.705   1.396 -0.2712  0.3863  0.0212
  293CLA    CLA22353   2.699   1.694   0.748  0.2998 -0.0547 -0.1533
  294CLA    CLA22354   6.356   1.174  14.219  0.1391 -0.2880 -0.3141
  295CLA    CLA22355   3.248   2.401   0.354 -0.2352 -0.0747 -0.6084
  296CLA    CLA22356   3.272   2.524   4.313 -0.1438 -0.0998  0.0541
  297CLA    CLA22357   1.297   0.238   5.767  0.1713  0.2003 -0.2707
  298CLA    CLA22358   3.832   0.230  14.840 -0.3459 -0.2169  0.2392
  299CLA    CLA22359   2.064   3.264  14.762 -0.4511  0.5451 -0.0130
  300CLA    CLA22360   4.526   3.081  13.580  0.1590  0.0771  0.2433
  301CLA    CLA22361   1.209   0.440  17.213 -0.0799  0.4360 -0.0782
  302CLA    CLA22362   4.460   5.238  13.408  0.1226  0.2346  0.2013
  303CLA    CLA22363   5.665   1.544   2.392  0.2442  0.5885  0.5126
  304CLA    CLA22364   4.641   2.819  12.699 -0.4086  0.2430 -0.2519
  305CLA    CLA22365   1.410   4.553  13.634  0.3483 -0.0111  0.1424
  306CLA    CLA22366   4.307   1.469   0.118 -0.0559 -0.1455  0.0138
  307CLA    CLA22367   6.477   0.767   2.118 -0.2292  0.0044 -0.0888
  308CLA    CLA22368   3.449   5.987   3.242  0.0638  0.2442  0.3240
  309CLA    CLA22369   5.359   6.514  14.419 -0.2123  0.0448  0.1442
  310CLA    CLA22370   0.428   2.844  14.759  0.3880 -0.2111  0.0461
  311CLA    CLA22371   4.927   5.320  16.985 -0.0025 -0.5134 -0.0370
  312CLA    CLA22372   2.213   5.808  12.941 -0.0442 -0.6307 -0.0003
  313CLA    CLA22373   3.398   1.751  14.728  0.1919 -0.2582  0.1466
  314CLA    CLA22374   3.359   6.308   4.414 -0.1790 -0.2192  0.2176
  315CLA    CLA22375   1.950   5.776   5.485 -0.1129 -0.3756 -0.4517
  316CLA    CLA22376   3.218   3.310  13.271 -0.4614  0.2089 -0.0473
  317CLA    CLA22377   2.238   2.338   3.687 -0.7990  0.0573 -0.2296
  318CLA    CLA22378   5.817   4.769   3.677 -0.1506 -0.3052  0.2902
  319CLA    CLA22379   1.850   0.714   4.008  0.0119 -0.3700  0.0501
  320CLA    CLA22380   6.448   6.318  12.750 -0.1789 -0.0379  0.2016
  321CLA    CLA22381   6.170   2.116   2.669  0.1246 -0.6717  0.4414
  322CLA    CLA22382   3.518   1.003  12.369 -0.0770 -0.0237  0.1384
  323TIP3   OH222383   0.489   0.538   5.463  0.3724  0.1806 -0.3319
  323TIP3    H122384   0.422   0.486   5.506 -0.3060  1.3959  0.1137
  323TIP3    H222385   0.543   0.572   5.534 -0.3962  1.7065 -0.4303
  324TIP3   OH222386   6.743   3.022   0.270  0.0347  0.1835 -0.0237
  324TIP3    H122387   6.790   3.054   0.347 -0.2293  1.1597 -0.2531
  324TIP3    H222388   6.776   2.933   0.257  0.6159  0.2705  0.7799
  325TIP3   OH222389   1.374   2.707  16.920  0.5228  0.3668  0.0077
  325TIP3    H122390   1.431   2.647  16.968 -0.6156  0.3087  1.3376
  325TIP3    H222391   1.412   2.710  16.832  0.6454 -2.3156 -0.1294
  326TIP3   OH222392   0.681   6.654  13.750 -0.3437 -0.3372 -0.3728
  326TIP3    H122393   0.632   6.604  13.685  0.5220  0.1428 -1.4351
  326TIP3    H222394   0.631   6.734  13.762 -0.3681 -0.3068 -0.6677
  327TIP3   OH222395   2.997   1.993  13.926  0.0797 -0.1208  0.4366
  327TIP3    H122396   2.903   1.996  13.908  0.1868  0.3981 -0.0723
  327TIP3    H222397   3.005   2.016  14.019 -0.2201  0.9335  0.2076
  328TIP3   OH222398   1.129   3.536   0.497 -0.4939 -0.0670 -0.5598
  328TIP3    H122399   1.145   3.596   0.570  0.7252 -0.3487 -0.5662
  328TIP3    H222400   1.048   3.568   0.457 -0.8822  0.4249  0.5672
  329TIP3   OH222401   1.710   4.951  16.020 -0.1832 -0.9072 -0.0504
  329TIP3    H122402   1.761   4.968  15.941  0.1436 -2.6748 -0.2626
  329TIP3    H222403   1.620   4.971  15.995 -0.4101 -3.4462 -1.6328
  330TIP3   OH222404   2.600   4.667   2.795 -0.0383 -0.3094  0.0210
  330TIP3    H122405   2.652   4.587   2.804 -0.2330 -0.6021 -1.3580
  330TIP3    H222406   2.519   4.639   2.754 -0.0453  0.6139 -0.6236
  331TIP3   OH222407   4.431   5.856   3.754 -0.3478  0.1564  0.2059
  331TIP3    H122408   4.434   5.775   3.703 -2.3119  0.3332 -0.2636
  331TIP3    H222409   4.479   5.920   3.701  0.6669 -0.5281  0.2824
  332TIP3   OH222410   3.351   0.514  14.046 -0.4486  0.4983  0.0619
  332TIP3    H122411   3.327   0.425  14.071 -1.1880  0.5203 -0.5162
  332TIP3    H222412   3.429   0.534  14.098  0.1479 -0.7419 -0.3243
  333TIP3   OH222413   5.798   4.736  11.883  0.1512  0.3878 -0.3234
  333TIP3    H122414   5.844   4.817  11.861  3.0640 -0.7065  1.1282
  333TIP3    H222415   5.839   4.670  11.827  0.2181 -0.6220  0.8921
  334TIP3   OH222416   2.658   2.951  13.028 -0.5270  0.4210  0.0551
  334TIP3    H122417   2.726   3.010  13.062 -0.4525  0.2132  0.2676
  334TIP3    H222418   2.580   2.972  13.080 -0.6517  0.7318 -0.2593
  335TIP3   OH222419   6.393   4.898  16.691 -0.5836 -0.3250  0.2179
  335TIP3    H122420   6.417   4.826  16.749 -0.9977 -0.6466 -0.0102
  335TIP3    H222421   6.384   4.974  16.749 -0.6544 -0.5672  0.5231
  336TIP3   OH222422   0.385   6.167   4.207  0.3382 -0.1141  0.0498
  336TIP3    H122423   0.438   6.236   4.246 -0.2815  0.9778 -0.9923
  336TIP3    H222424   0.422   6.086   4.242  0.4865  0.7537  2.0406
  337TIP3   OH222425   6.168   2.928   5.965  0.1088 -0.1065  0.1382
  337TIP3    H122426   6.238   2.973   6.013  1.4634 -2.6311  0.7040
  337TIP3    H222427   6.114   2.888   6.033 -0.3260 -0.3546 -0.3483
  338TIP3   OH222428   4.639   0.774   0.595 -0.0663  0.1619  0.2150
  338TIP3    H122429   4.576   0.707   0.568 -1.2646  0.0860  2.8097
  338TIP3    H222430   4.636   0.840   0.526  0.4548 -1.9482 -1.9499
  339TIP3   OH222431   6.446   6.026   0.224  0.2155  0.2375 -0.0578
  339TIP3    H122432   6.495   5.976   0.158  0.5512 -1.6301  1.5192
  339TIP3    H222433   6.357   6.030   0.189  0.8871  1.4606 -1.7568
  340TIP3   OH222434   0.042   4.186  17.230 -0.4230 -0.2273 -0.4428
  340TIP3    H122435   0.033   4.099  17.190 -0.7806  0.2024 -1.3142
  340TIP3    H222436   0.086   4.239  17.163  0.5740  0.0592  0.3990
  341TIP3   OH222437   5.110   1.806   5.275 -0.1578 -0.3397 -0.3221
  341TIP3    H122438   5.107   1.741   5.205 -0.2390  1.1075 -1.7036
  341TIP3    H222439   5.029   1.793   5.324  0.4992 -2.2236  0.3427
  342TIP3   OH222440   6.534   6.753  13.367 -0.9924 -0.1840  0.3163
  342TIP3    H122441   6.503   6.730  13.279 -1.5149  1.8303 -0.0757
  342TIP3    H222442   6.581   6.675  13.397 -0.1926 -0.6879 -2.0220
  343TIP3   OH222443   5.468   0.152   3.869  0.1039 -0.3824  0.0532
  343TIP3    H122444   5.421   0.175   3.788 -0.4607 -0.4761  0.3451
  343TIP3    H222445   5.497   0.236   3.905  1.0255 -0.3950 -0.6328
  344TIP3   OH222446   1.718   1.557  16.581 -0.0318  0.3882  0.6314
  344TIP3    H122447   1.689   1.507  16.657 -0.0765  0.5983  0.7511
  344TIP3    H222448   1.638   1.598  16.547 -0.1867 -0.5019 -0.1205
  345TIP3   OH222449   1.449   5.487   0.237  0.0727 -0.6076 -0.8302
  345TIP3    H122450   1.542   5.471   0.255 -0.1086  0.8296  1.7724
  345TIP3    H222451   1.443   5.582   0.226 -1.0238 -0.7472 -1.5276
  346TIP3   OH222452   4.032   1.505   2.055  0.1693 -0.2997 -0.3364
  346TIP3    H122453   3.994   1.574   2.001  0.5637  1.8764  1.9490
  346TIP3    H222454   3.956   1.456   2.087 -0.2873  0.2764 -0.5039
  347TIP3   OH222455   1.475   4.222   6.007  0.3951 -0.4742  0.2340
  347TIP3    H122456   1.441   4.186   5.925  0.3288  0.8094 -0.3318
  347TIP3    H222457   1.567   4.198   6.007 -0.3097 -3.6851  1.6144
  348TIP3   OH222458   5.441   5.027  15.105  0.1046 -0.1905 -0.5071
  348TIP3    H122459   5.482   4.993  15.026 -2.0457 -0.9987 -1.3691
  348TIP3    H222460   5.353   4.987  15.105 -1.4006  2.8124  0.1756
  349TIP3   OH222461   3.316   3.985  16.625 -0.2484  1.1038  0.3822
  349TIP3    H122462   3.373   4.040  16.571  0.1754  1.1218  0.8419
  349TIP3    H222463   3.366   3.906  16.641 -0.9714  0.4353 -0.5247
  350TIP3   OH222464   3.784   2.464  11.971 -0.3194 -0.6150  0.0047
  350TIP3    H122465   3.794   2.549  11.929  1.8805 -1.3922 -1.2085
  350TIP3    H222466   3.762   2.404  11.900  0.1852 -1.3907  0.4799
  351TIP3   OH222467   0.965   6.392   5.264 -0.2218  0.3031  0.6734
  351TIP3    H122468   0.995   6.315   5.312  1.4442 -0.6610 -1.7287
  351TIP3    H222469   1.019   6.464   5.297 -0.1732 -0.0194  1.2967
  352TIP3   OH222470   5.795   0.857  14.630  0.1382 -0.1640 -0.6515
  352TIP3    H122471   5.771   0.827  14.543  2.1497  0.2556 -1.4049
  352TIP3    H222472   5.852   0.788  14.665 -2.0484 -1.1987  1.1188
  353TIP3   OH222473   3.128   2.068  15.219 -0.2169  0.1599 -0.7306
  353TIP3    H122474   3.220   2.094  15.221 -0.3280  0.6660 -1.5413
  353TIP3    H222475   3.111   2.033  15.306  0.8070 -0.1694 -0.6511
  354TIP3   OH222476   4.338   4.058  15.764  0.1516 -0.1394  0.4170
  354TIP3    H122477   4.431   4.035  15.771 -0.2142 -1.5772  0.8605
  354TIP3    H222478   4.327   4.084  15.673  0.8718 -0.5214  0.2088
  355TIP3   OH222479   0.097   0.291   0.078 -0.0371  0.6263  0.3427
  355TIP3    H122480   0.073   0.205   0.113  0.0058  0.4728 -0.0012
  355TIP3    H222481   0.193   0.288   0.070  0.0263  0.9562  0.9813
  356TIP3   OH222482   0.977   1.224   2.021  0.0004  0.5583  0.1602
  356TIP3    H122483   0.903   1.170   2.048  0.1654  0.0514 -0.3846
  356TIP3    H222484   0.954   1.253   1.933  0.0194  1.1947  0.3595
  357TIP3   OH222485   3.868   3.536   4.608  0.1405 -0.6204 -0.2480
  357TIP3    H122486   3.833   3.452   4.638  0.1365 -0.2478  0.8519
  357TIP3    H222487   3.792   3.581   4.571  0.2005 -1.1981 -1.1049
  358TIP3   OH222488   3.408   3.921   2.944  0.2567  0.3953  0.4271
  358TIP3    H122489   3.416   3.964   2.859  1.3133  0.8787  0.7623
  358TIP3    H222490   3.325   3.954   2.979 -0.8050 -0.7223 -0.9001
  359TIP3   OH222491   2.105   4.483  12.608  0.2939 -0.5115  0.1065
  359TIP3    H122492   2.105   4.472  12.513  0.4390 -0.3000  0.0807
  359TIP3    H222493   2.121   4.396  12.643 -3.0325 -1.3167  0.0269
  360TIP3   OH222494   6.611   1.766  11.281  0.6676 -0.1597 -0.1426
  360TIP3    H122495   6.555   1.786  11.206 -0.3288 -0.3834  0.5239
  360TIP3    H222496   6.668   1.695  11.250  0.5041 -0.0109 -0.7899
  361TIP3   OH222497   3.214   2.217   0.637 -0.9074 -0.0060 -0.5724
  361TIP3    H122498   3.264   2.276   0.581 -0.3033  0.7233  0.6807
  361TIP3    H222499   3.200   2.139   0.584  0.7580  0.1485 -1.2982
  362TIP3   OH222500   4.917   3.023   3.955 -0.3628  0.3469  0.3477
  362TIP3    H122501   5.002   2.978   3.949  0.5734  2.1946 -1.5905
  362TIP3    H222502   4.859   2.959   3.996  1.9607 -0.9751  1.7924
  363TIP3   OH222503   6.762   2.734   3.623 -0.1069  0.2685 -0.7784
  363TIP3    H122504   6.823   2.662   3.642 -0.7380  0.0525  0.5433
  363TIP3    H222505   6.694   2.694   3.569  1.5327  0.8093 -3.4069
  364TIP3   OH222506   4.869   2.512   5.853 -0.5022  0.1149 -0.1637
  364TIP3    H122507   4.822   2.429   5.861 -2.1006  0.9536 -0.2282
  364TIP3    H222508   4.929   2.499   5.780 -0.5790 -1.0488 -0.0372
  365TIP3   OH222509   3.744   5.085  15.046  0.4545  0.1313 -0.2113
  365TIP3    H122510   3.805   5.138  15.097  0.8390  0.9706 -1.4983
  365TIP3    H222511   3.659   5.097  15.090  1.0088 -0.3007  1.0359
  366TIP3   OH222512   3.902   1.241  12.055 -0.2960  0.1206  0.3812
  366TIP3    H122513   3.919   1.189  11.977 -0.3364  1.5074 -0.5761
  366TIP3    H222514   3.938   1.189  12.127  0.7073 -0.6756 -0.6761
  367TIP3   OH222515   1.399   5.394   3.649  0.6452 -0.1655 -0.8029
  367TIP3    H122516   1.463   5.464   3.665 -1.2414  1.4297  0.2868
  367TIP3    H222517   1.399   5.343   3.730  0.3484  0.0377 -0.6696
  368TIP3   OH222518   4.984   3.020   6.929 -0.1635  0.4154  0.2773
  368TIP3    H122519   4.938   2.951   6.882  0.0799  1.4945 -1.6244
  368TIP3    H222520   5.065   3.033   6.880  0.0864  1.6230  0.9689
  369TIP3   OH222521   2.897   6.298   5.550 -0.0360  0.4645 -0.0598
  369TIP3    H122522   2.810   6.336   5.538 -1.2757 -2.4022 -1.0947
  369TIP3    H222523   2.903   6.282   5.644 -0.7696  0.4149 -0.0137
  370TIP3   OH222524   0.527   2.248  16.225  0.2542 -0.3685  0.2905
  370TIP3    H122525   0.503   2.178  16.285 -0.9818  0.3826  0.7119
  370TIP3    H222526   0.501   2.328  16.270 -3.5085  0.1549 -2.3101
  371TIP3   OH222527   3.897   2.000  14.421  0.0094 -0.2370  0.2552
  371TIP3    H122528   3.924   2.092  14.415  2.3682 -0.8583  0.4537
  371TIP3    H222529   3.926   1.962  14.338 -2.0539 -0.5873 -0.3507
  372TIP3   OH222530   0.164   6.197  17.034 -0.4112  0.1785  0.0394
  372TIP3    H122531   0.203   6.269  17.084  0.4898 -1.1667  1.3453
  372TIP3    H222532   0.070   6.206  17.051 -0.3197  1.0836  0.1295
  373TIP3   OH222533   2.181   0.183   3.749 -0.4099  0.1034  0.2961
  373TIP3    H122534   2.223   0.255   3.703  1.7133 -1.4533 -0.3450
  373TIP3    H222535   2.130   0.137   3.681  1.1722 -1.0611 -0.1679
  374TIP3   OH222536   5.269   3.208   1.482  0.2202  0.1336 -0.7696
  374TIP3    H122537   5.293   3.182   1.393  1.2578 -1.0644 -0.1777
  374TIP3    H222538   5.190   3.261   1.471 -0.0454 -0.5216 -2.3431
  375TIP3   OH222539   6.001   4.769   0.238 -1.1068 -0.0122  0.3154
  375TIP3    H122540   6.082   4.724   0.262 -1.2807 -0.1719  0.6175
  375TIP3    H222541   5.931   4.707   0.260 -1.2466 -0.6785 -1.7662
  376TIP3   OH222542   5.450   4.716  13.748  0.0454  0.0966 -0.1249
  376TIP3    H122543   5.380   4.778  13.768 -0.1492 -0.3970  0.7582
  376TIP3    H222544   5.443   4.649  13.816 -0.3261 -1.3872 -1.5914
  377TIP3   OH222545   2.436   5.859   3.273  0.0763 -0.0974 -0.0638
  377TIP3    H122546   2.495   5.908   3.330 -3.0018 -0.7754  4.2179
  377TIP3    H222547   2.472   5.771   3.271  0.1674 -0.0866  0.9482
  378TIP3   OH222548   2.065   1.962  10.749 -0.5514  0.0415  0.4274
  378TIP3    H122549   1.979   1.941  10.713 -0.1820 -0.3384 -0.2533
  378TIP3    H222550   2.052   1.963  10.843 -1.3386  0.1543  0.3223
  379TIP3   OH222551   4.226   3.551   1.824 -0.7438  0.0775 -0.0960
  379TIP3    H122552   4.302   3.604   1.846 -0.9806  0.7086 -0.7597
  379TIP3    H222553   4.173   3.550   1.904 -0.5800  0.5755  0.0208
  380TIP3   OH222554   3.507   3.172  16.298 -0.1805  0.3232  0.4204
  380TIP3    H122555   3.537   3.194  16.386  2.0149 -1.3388  0.1813
  380TIP3    H222556   3.556   3.231  16.241 -1.3822  1.1966  0.2584
  381TIP3   OH222557   2.005   4.461  16.827  0.1045  0.8270 -0.4089
  381TIP3    H122558   1.913   4.449  16.803  0.4536  0.3519 -1.6262
  381TIP3    H222559   2.054   4.415  16.758  1.2485  0.6896  0.4541
  382TIP3   OH222560   0.652   0.692   0.340 -0.2822  0.1935 -0.2709
  382TIP3    H122561   0.647   0.630   0.413 -0.5323  1.0002  0.4035
  382TIP3    H222562   0.741   0.683   0.307 -0.3676 -0.6538 -0.2981
  383TIP3   OH222563   1.716   5.946  10.619 -0.4475  0.6948  0.1594
  383TIP3    H122564   1.733   6.023  10.565 -0.7743  0.6384 -0.0264
  383TIP3    H222565   1.644   5.972  10.676 -2.1152 -0.1740 -1.4300
  384TIP3   OH222566   2.119   1.002   1.520 -0.3211 -0.0019 -0.0063
  384TIP3    H122567   2.184   0.933   1.539  0.0027  0.3094  0.0318
  384TIP3    H222568   2.165   1.083   1.541 -0.3733  0.2831 -0.9576
  385TIP3   OH222569   6.178   3.927  11.942  0.3389 -0.4796  0.1678
  385TIP3    H122570   6.205   3.982  11.868 -1.7922 -1.1248 -1.1889
  385TIP3    H222571   6.260   3.902  11.985  1.4860  4.2631  1.3428
  386TIP3   OH222572   3.548   2.714   4.618 -0.2610 -0.1058 -0.0345
  386TIP3    H122573   3.589   2.687   4.536 -1.1383  0.3061 -0.6360
  386TIP3    H222574   3.455   2.691   4.607 -0.6359  1.1380  0.2911
  387TIP3   OH222575   5.204   5.124   2.540  0.4767  0.0294 -0.3846
  387TIP3    H122576   5.245   5.193   2.593 -0.2895 -1.3547  2.1872
  387TIP3    H222577   5.276   5.089   2.487  1.6547  0.5916  0.7696
  388TIP3   OH222578   6.551   3.225  11.896  0.1854  0.4037  0.3090
  388TIP3    H122579   6.552   3.282  11.819 -1.3147  1.3248  0.9324
  388TIP3    H222580   6.579   3.282  11.968 -0.0412  0.0018  0.7163
  389TIP3   OH222581   4.065   1.939   2.451  0.0406 -0.6723  0.8858
  389TIP3    H122582   4.156   1.955   2.472  0.5524 -1.4789 -0.5577
  389TIP3    H222583   4.066   1.909   2.360 -1.8287  0.9384  0.2672
  390TIP3   OH222584   1.445   3.659  11.920  0.6017 -0.2890 -0.5885
  390TIP3    H122585   1.468   3.567  11.939  0.0117 -0.2851  0.2174
  390TIP3    H222586   1.453   3.703  12.005 -2.4627 -0.3261 -0.1793
  391TIP3   OH222587   2.294   5.627   4.985  0.3955  0.0755  0.4823
  391TIP3    H122588   2.348   5.571   5.039 -0.2861 -0.2581  0.8332
  391TIP3    H222589   2.318   5.716   5.011 -0.1003 -0.0815  1.5254
  392TIP3   OH222590   3.522   6.154  15.884  0.1778  0.2688 -0.4954
  392TIP3    H122591   3.569   6.175  15.803 -0.7080  1.5445 -0.7216
  392TIP3    H222592   3.541   6.228  15.942 -0.9955  0.4907 -0.3645
  393TIP3   OH222593   2.932   4.842   2.969 -0.1233 -0.5644  0.3955
  393TIP3    H122594   2.987   4.919   2.984  0.9875 -1.3892  0.6932
  393TIP3    H222595   2.917   4.841   2.875  0.9947 -0.7327  0.2108
  394TIP3   OH222596   0.086   1.178   5.626  1.1330  0.5453  0.2031
  394TIP3    H122597   0.093   1.272   5.608  1.6173  0.5333  0.2984
  394TIP3    H222598   0.082   1.138   5.539  0.8783  0.6581  0.1624
  395TIP3   OH222599   6.470   6.369   5.606 -0.0263  0.1000 -0.8395
  395TIP3    H122600   6.513   6.386   5.522  0.2725 -0.7345 -0.8741
  395TIP3    H222601   6.534   6.317   5.655 -0.5581 -0.1992 -0.4526
  396TIP3   OH222602   0.515   1.442  14.621  0.2160  0.5823 -0.3855
  396TIP3    H122603   0.583   1.455  14.687  3.0372 -3.1840 -2.1531
  396TIP3    H222604   0.538   1.502  14.551  1.7658 -0.5770 -0.9159
  397TIP3   OH222605   5.541   2.585   2.043  0.0175  0.2953  0.3983
  397TIP3    H122606   5.486   2.663   2.037  1.9809  1.7268 -0.2907
  397TIP3    H222607   5.520   2.547   2.128 -1.5535  1.1138  0.4100
  398TIP3   OH222608   6.442   5.988   2.484  0.3473 -0.0269  0.5305
  398TIP3    H122609   6.521   6.011   2.436  1.3506 -0.1819  2.0175
  398TIP3    H222610   6.418   5.901   2.451  0.5389  0.2137 -0.2473
  399TIP3   OH222611   6.406   2.103  12.874 -0.2860  0.5834 -0.5325
  399TIP3    H122612   6.390   2.139  12.787 -2.5664  1.5827  0.2036
  399TIP3    H222613   6.323   2.060  12.897  0.9359 -1.4415  0.3702
  400TIP3   OH222614   2.472   4.306  11.871  0.0812 -0.0459  0.2389
  400TIP3    H122615   2.519   4.299  11.788 -1.2223  0.0742 -0.5316
  400TIP3    H222616   2.423   4.225  11.878 -3.1807  1.5874 -1.2932
  401TIP3   OH222617   3.612   0.748  11.931 -0.2920  0.2576  0.0481
  401TIP3    H122618   3.545   0.729  11.865 -0.8784 -0.6158  0.8809
  401TIP3    H222619   3.592   0.837  11.960 -1.8318 -0.3929  1.1140
  402TIP3   OH222620   1.935   2.465  10.588  0.1699  0.4179 -0.2829
  402TIP3    H122621   1.984   2.383  10.597  0.6926  0.7355 -0.2115
  402TIP3    H222622   1.852   2.438  10.549  0.3115 -0.1566 -0.2047
  403TIP3   OH222623   4.272   1.016  12.778 -0.2369  0.2486 -0.1843
  403TIP3    H122624   4.300   1.103  12.752 -0.6551  0.1394 -1.0526
  403TIP3    H222625   4.335   0.957  12.736 -0.8088  0.0786 -0.8312
  404TIP3   OH222626   5.622   0.665   5.277 -0.7532  0.0865  0.0962
  404TIP3    H122627   5.707   0.704   5.259 -0.4501  0.3970  1.9449
  404TIP3    H222628   5.595   0.626   5.194  0.9758  0.3660 -0.6457
  405TIP3   OH222629   0.337   1.421  16.240  0.4189 -0.0411 -0.4258
  405TIP3    H122630   0.297   1.407  16.326  1.6667  1.0237  0.3668
  405TIP3    H222631   0.342   1.516  16.231 -1.3600 -0.0899 -2.5128
  406TIP3   OH222632   6.642   2.373  16.345 -0.0061  0.3067  0.3252
  406TIP3    H122633   6.658   2.383  16.439 -2.0515 -1.3850  0.9391
  406TIP3    H222634   6.608   2.284  16.336  0.3313  0.3485 -2.0744
  407TIP3   OH222635   4.436   0.244   0.449  0.6118 -1.2132 -0.3450
  407TIP3    H122636   4.499   0.306   0.486 -1.2476  0.6038 -0.0580
  407TIP3    H222637   4.419   0.277   0.361 -2.2239  0.2525  0.6359
  408TIP3   OH222638   2.037   4.915   0.978 -0.0390 -0.4451  0.1296
  408TIP3    H122639   2.005   4.836   0.934  0.2482  0.3726 -1.6154
  408TIP3    H222640   1.980   4.925   1.054  0.1389 -2.5010  0.5766
  409TIP3   OH222641   4.168   5.577  13.206  0.2317 -0.3087 -1.0617
  409TIP3    H122642   4.083   5.617  13.223 -0.0242 -1.5791  1.1218
  409TIP3    H222643   4.164   5.549  13.115 -0.9788  1.2537 -1.5188
  410TIP3   OH222644   4.367   4.381  10.546  0.6411 -0.5782 -0.3815
  410TIP3    H122645   4.338   4.472  10.556  0.3615 -0.6602 -0.4309
  410TIP3    H222646   4.295   4.338  10.499  0.9679 -0.7231 -0.7515
  411TIP3   OH222647   2.060   2.133  14.965  0.0751 -0.1336 -0.0396
  411TIP3    H122648   2.016   2.201  15.017 -0.9767 -1.8411  1.3979
  411TIP3    H222649   2.151   2.163  14.960 -0.3965  1.4882  0.3351
  412TIP3   OH222650   4.272   2.660  17.124  0.4648 -0.3085  0.3745
  412TIP3    H122651   4.313   2.662  17.211 -1.7709 -2.6384  1.5869
  412TIP3    H222652   4.268   2.568  17.101  0.1929  0.2071 -1.8691
  413TIP3   OH222653   2.323   2.518   5.058 -0.3688  0.7738 -0.1533
  413TIP3    H122654   2.406   2.491   5.019 -1.2461  0.2320 -1.7349
  413TIP3    H222655   2.285   2.579   4.994 -2.3720 -1.0025 -0.7599
  414TIP3   OH222656   6.135   6.169   3.044  0.2959  0.4274 -0.2917
  414TIP3    H122657   6.161   6.260   3.030 -2.1823  1.1500 -0.5344
  414TIP3    H222658   6.085   6.145   2.966 -0.7284 -0.5119  0.6194
  415TIP3   OH222659   0.858   6.695   3.801  0.1378  0.4560  1.0933
  415TIP3    H122660   0.895   6.735   3.721  1.1452 -0.4096  1.1105
  415TIP3    H222661   0.763   6.707   3.791  0.0465 -1.4525 -1.2555
  416TIP3   OH222662   0.484   2.637   3.649 -0.3562  0.0601 -0.4426
  416TIP3    H122663   0.430   2.627   3.727  0.1570  0.9838  0.0377
  416TIP3    H222664   0.434   2.695   3.592  0.6771  2.0362  0.5663
  417TIP3   OH222665   5.253   0.246  11.499 -0.4495  0.0629  0.3449
  417TIP3    H122666   5.280   0.193  11.574 -0.1941 -1.1749 -0.5957
  417TIP3    H222667   5.326   0.241  11.439 -0.9411  0.4660 -0.2977
  418TIP3   OH222668   2.075   3.265   4.740 -0.1180 -0.2095  0.4039
  418TIP3    H122669   2.003   3.264   4.803 -1.5733 -1.2378 -1.1729
  418TIP3    H222670   2.037   3.302   4.660  1.1998 -0.4748 -0.3839
  419TIP3   OH222671   0.958   0.773  10.709  0.0766 -0.1190  0.6586
  419TIP3    H122672   0.864   0.753  10.716 -0.1766  0.8060 -0.0180
  419TIP3    H222673   1.000   0.705  10.762 -1.1097  0.6446  2.6997
  420TIP3   OH222674   2.180   1.888   5.401 -0.6460  0.0987 -0.8239
  420TIP3    H122675   2.251   1.941   5.438  0.7459 -3.0305  1.4804
  420TIP3    H222676   2.114   1.952   5.373  1.0222  3.0193  1.3015
  421TIP3   OH222677   2.060   2.366  13.766  0.0525 -1.1049  0.0663
  421TIP3    H122678   2.099   2.312  13.697  0.3871 -0.1693 -0.4944
  421TIP3    H222679   1.970   2.334  13.773 -0.4750 -0.2179 -1.9073
  422TIP3   OH222680   5.300   5.268   1.488  0.0628 -0.0754 -0.1535
  422TIP3    H122681   5.352   5.292   1.411 -1.5948  1.8735 -0.7717
  422TIP3    H222682   5.264   5.182   1.466 -0.0282  0.2503 -1.3939
  423TIP3   OH222683   2.072   3.422   1.458 -0.0227  0.5730  0.4902
  423TIP3    H122684   2.006   3.471   1.507  0.4503 -1.1451  3.0135
  423TIP3    H222685   2.033   3.336   1.444 -0.7133  1.3424 -3.6090
  424TIP3   OH222686   6.428   2.385   0.346 -0.6910  0.2120 -0.1044
  424TIP3    H122687   6.452   2.411   0.257 -1.0830 -1.1058 -0.6228
  424TIP3    H222688   6.400   2.466   0.388  0.4583  1.0343 -0.8578
  425TIP3   OH222689   1.761   5.687  16.180 -0.5739  0.1239  0.4317
  425TIP3    H122690   1.754   5.778  16.208  2.7190  1.4323 -2.3051
  425TIP3    H222691   1.729   5.686  16.090  0.2941 -1.2210  0.1042
  426TIP3   OH222692   2.545   0.136  16.076  0.1740  0.1224 -0.4885
  426TIP3    H122693   2.621   0.136  16.134  1.3011 -1.8569 -1.8076
  426TIP3    H222694   2.517   0.044  16.073 -0.1065  0.2159 -2.6834
  427TIP3   OH222695   6.495   0.024   2.197 -0.3802 -0.3401  0.1552
  427TIP3    H122696   6.510  -0.051   2.140  1.9427 -0.3715  0.6994
  427TIP3    H222697   6.399   0.034   2.199 -0.6297 -1.6989 -1.9110
  428TIP3   OH222698   3.614   2.561  17.006  0.5656 -0.1997  0.1828
  428TIP3    H122699   3.684   2.512  16.964 -1.4028 -1.9289 -1.3223
  428TIP3    H222700   3.593   2.512  17.086  0.1495 -0.4944 -0.1042
  429TIP3   OH222701   3.393   4.888   2.390  0.6848 -0.3291  0.1591
  429TIP3    H122702   3.341   4.967   2.405 -2.0754 -2.1490  0.8006
  429TIP3    H222703   3.391   4.877   2.295 -1.6231 -1.2366  0.2515
  430TIP3   OH222704   5.129   3.585   4.491  0.2150  0.7011 -0.1227
  430TIP3    H122705   5.104   3.498   4.458  2.3699 -0.0727  0.1051
  430TIP3    H222706   5.059   3.608   4.553 -0.1566 -1.1214  0.1949
  431TIP3   OH222707   1.878   6.544  14.891 -0.6614  0.1082  0.5408
  431TIP3    H122708   1.911   6.492  14.818 -1.6702  0.0219  0.1345
  431TIP3    H222709   1.851   6.626  14.851  1.1549  1.0857  1.2152
  432TIP3   OH222710   5.882   1.610  16.249  0.1990  0.1830 -0.0424
  432TIP3    H122711   5.925   1.691  16.220 -1.1644  0.9730  0.0961
  432TIP3    H222712   5.849   1.631  16.336  3.2359 -1.7935  1.7820
  433TIP3   OH222713   4.453   4.625  14.974  0.0522 -0.5163  0.0313
  433TIP3    H122714   4.362   4.595  14.977 -0.0308 -0.2328  0.4338
  433TIP3    H222715   4.452   4.710  15.020  0.1478  0.4665 -1.6968
  434TIP3   OH222716   0.012   1.624   2.455  0.3340  0.1131  0.3672
  434TIP3    H122717  -0.037   1.690   2.504 -0.4367 -0.3231  0.2208
  434TIP3    H222718   0.098   1.662   2.440 -0.4034  1.4670 -0.5433
  435TIP3   OH222719   4.069   0.432  12.037 -0.1989  0.0631 -0.0292
  435TIP3    H122720   4.085   0.406  12.127 -1.4568 -0.3024  0.1089
  435TIP3    H222721   4.134   0.500  12.020 -0.6596  0.9433  1.5305
  436TIP3   OH222722   1.347   5.682  13.633  0.2364 -0.3172 -0.0907
  436TIP3    H122723   1.344   5.597  13.590 -0.6755 -0.3291 -0.0299
  436TIP3    H222724   1.385   5.664  13.719 -3.2314 -1.3787  1.4043
  437TIP3   OH222725   1.586   6.368   5.281 -0.0621 -0.5389  0.1422
  437TIP3    H122726   1.493   6.390   5.277  0.0012 -0.4179 -0.7331
  437TIP3    H222727   1.591   6.297   5.345 -0.4695  0.8427  1.7685
  438TIP3   OH222728   3.319   2.019  14.849 -0.1795  0.2852 -0.0544
  438TIP3    H122729   3.375   2.067  14.788  0.2752  0.2362  0.3236
  438TIP3    H222730   3.338   1.927  14.833  0.4383  0.2858  0.6194
  439TIP3   OH222731   1.370   3.619  14.736 -0.2675 -0.2282 -0.0881
  439TIP3    H122732   1.335   3.533  14.758  0.6961 -0.2424  1.6114
  439TIP3    H222733   1.315   3.680  14.785  0.1826 -0.0407  0.1978
  440TIP3   OH222734   3.444   3.637  14.680 -0.1902 -0.4254 -0.2592
  440TIP3    H122735   3.513   3.702  14.693  0.1598 -0.4220 -1.8656
  440TIP3    H222736   3.401   3.665  14.599 -0.9984 -1.3615 -0.1685
  441TIP3   OH222737   6.782   0.969  13.952 -0.4068  0.2768  0.1852
  441TIP3    H122738   6.851   0.976  14.018  0.7656  3.4246 -1.1738
  441TIP3    H222739   6.701   0.982  14.000  0.1744 -0.2277  1.3549
  442TIP3   OH222740   2.882   0.942   4.843 -0.0768 -0.1671 -0.1581
  442TIP3    H122741   2.906   0.967   4.753 -1.9294  0.3674 -0.5450
  442TIP3    H222742   2.933   1.001   4.898 -0.0024  0.4863 -0.9009
  443TIP3   OH222743   2.131   0.273   0.769  0.9389  0.2262 -0.1234
  443TIP3    H122744   2.103   0.274   0.678  1.3679  1.7639 -0.2671
  443TIP3    H222745   2.049   0.273   0.819  0.7047 -0.6402 -0.4951
  444TIP3   OH222746   1.133   4.657  13.285  0.0579  0.0391 -0.1141
  444TIP3    H122747   1.224   4.643  13.262  1.2362  3.6704  1.5248
  444TIP3    H222748   1.093   4.692  13.205  0.8255  0.9166 -0.1268
  445TIP3   OH222749   4.297   3.436   0.100  0.2103 -0.2879 -0.2868
  445TIP3    H122750   4.342   3.498   0.043 -0.0614  0.1742 -0.0025
  445TIP3    H222751   4.366   3.377   0.131  0.4245 -0.2957 -0.7678
  446TIP3   OH222752   5.688   4.251   3.433 -0.5049  0.7248 -0.1922
  446TIP3    H122753   5.718   4.332   3.474 -1.2742  0.6446  0.5458
  446TIP3    H222754   5.613   4.223   3.485 -0.8555  0.0511 -1.0217
  447TIP3   OH222755   4.913   6.517  15.320 -0.1776  0.0471  0.0315
  447TIP3    H122756   4.836   6.573  15.331 -0.9236 -0.7720 -0.7901
  447TIP3    H222757   4.935   6.526  15.227  0.3377 -0.2179  0.1254
  448TIP3   OH222758   3.530   3.012   5.286 -0.4297 -0.6429 -0.0814
  448TIP3    H122759   3.486   3.096   5.280 -1.5234 -1.2371 -0.6526
  448TIP3    H222760   3.589   3.020   5.361 -1.2363  0.2957  0.4630
  449TIP3   OH222761   2.867   5.709   1.943 -0.1858 -0.0645 -0.0265
  449TIP3    H122762   2.861   5.805   1.946 -1.7900 -0.1082 -0.6959
  449TIP3    H222763   2.786   5.682   1.901 -0.0231 -1.7649  0.6822
  450TIP3   OH222764   6.424   4.563   3.465  0.4776 -0.7414  0.0843
  450TIP3    H122765   6.388   4.480   3.434 -0.0495 -0.6746  0.5025
  450TIP3    H222766   6.385   4.576   3.552 -1.1104  0.9815 -0.8220
  451TIP3   OH222767   1.567   6.258   1.837  0.0607  0.3154  0.2613
  451TIP3    H122768   1.630   6.187   1.850 -1.0733 -0.6734  0.5248
  451TIP3    H222769   1.501   6.245   1.905 -0.7641  0.9578 -0.3878
  452TIP3   OH222770   2.571   6.392  14.949  0.6005  0.9499  0.0328
  452TIP3    H122771   2.501   6.327  14.954  1.2794  0.0862 -1.0816
  452TIP3    H222772   2.640   6.349  14.899  2.4855  1.2956  2.1866
  453TIP3   OH222773   2.258   3.495  17.261  0.4308  0.1416 -0.1881
  453TIP3    H122774   2.286   3.476  17.171  2.0644  0.5146  0.2020
  453TIP3    H222775   2.174   3.450  17.270  1.2570 -1.7437 -1.2135
  454TIP3   OH222776   2.459   0.337  16.275  0.5153 -0.2272 -0.0813
  454TIP3    H122777   2.455   0.273  16.204 -0.2824 -0.5218  0.2106
  454TIP3    H222778   2.522   0.403  16.246 -0.1071 -0.1306 -1.2292
  455TIP3   OH222779   0.502   2.003  14.918  0.8511 -0.1163  0.0967
  455TIP3    H122780   0.427   2.011  14.978 -0.3380 -1.8702 -1.0774
  455TIP3    H222781   0.463   1.974  14.836  2.7931 -0.5593 -0.6937
  456TIP3   OH222782   5.907   2.561  16.243 -0.1226 -0.0518  0.1725
  456TIP3    H122783   5.862   2.604  16.171  0.9365  1.9957  0.6628
  456TIP3    H222784   5.904   2.625  16.315  1.9009 -0.5970  0.7992
  457TIP3   OH222785   2.814   2.468  11.873 -0.0014 -0.1546 -0.5688
  457TIP3    H122786   2.773   2.397  11.923 -0.0197  1.2593  1.5767
  457TIP3    H222787   2.752   2.485  11.802 -2.2801  0.5786  1.4250
  458TIP3   OH222788   4.145   4.476   3.544 -0.0173 -0.1416  0.1911
  458TIP3    H122789   4.223   4.450   3.593 -0.4676 -0.1568  0.9088
  458TIP3    H222790   4.180   4.517   3.465  0.7029 -2.1894 -0.6011
  459TIP3   OH222791   6.525   0.466  15.372 -0.1435 -0.6094 -0.1275
  459TIP3    H122792   6.537   0.561  15.374 -1.1449 -0.4853  1.5057
  459TIP3    H222793   6.461   0.452  15.302 -1.3151  0.1306  0.7397
  460TIP3   OH222794   1.693   6.142   2.297  0.5138  0.3882  0.4613
  460TIP3    H122795   1.651   6.176   2.218  3.0096  0.5689 -0.8863
  460TIP3    H222796   1.692   6.215   2.359  1.2819  1.3172 -0.5730
  461TIP3   OH222797   2.077   2.387  16.208  0.6307 -0.4978  0.0567
  461TIP3    H122798   1.998   2.440  16.199 -0.3722 -1.6722  1.3792
  461TIP3    H222799   2.145   2.449  16.236 -0.6904  0.0341  2.3382
  462TIP3   OH222800   5.239   3.908   4.761  0.2738  0.0327  0.0948
  462TIP3    H122801   5.158   3.909   4.709 -1.0073 -1.6411  1.8815
  462TIP3    H222802   5.281   3.991   4.742 -0.4858 -0.1778 -2.9801
  463TIP3   OH222803   4.410   3.181  12.874 -0.6302 -0.4572 -0.2513
  463TIP3    H122804   4.363   3.125  12.813 -0.4472  0.6730 -1.4779
  463TIP3    H222805   4.493   3.135  12.890 -1.5853 -1.8465  0.9445
  464TIP3   OH222806   0.731   5.878  16.209  0.1356  0.3668 -0.1812
  464TIP3    H122807   0.697   5.908  16.125  0.1717  1.9408  0.3225
  464TIP3    H222808   0.778   5.954  16.244  0.4017 -0.3595  1.1006
  465TIP3   OH222809   2.489   5.581  16.204 -0.1587  0.1999 -0.4006
  465TIP3    H122810   2.399   5.603  16.180 -0.3790 -0.2773 -0.0390
  465TIP3    H222811   2.480   5.526  16.282  0.4896  0.9255  0.2008
  466TIP3   OH222812   3.174   1.826   4.868 -0.1068  0.2119 -0.4821
  466TIP3    H122813   3.095   1.838   4.816  0.2962 -0.9532 -1.4086
  466TIP3    H222814   3.154   1.868   4.952 -1.4851  0.4338 -0.8948
  467TIP3   OH222815   0.877   2.376  16.741  0.1210 -0.6097 -0.1166
  467TIP3    H122816   0.924   2.383  16.824 -1.1590 -0.5589  0.6391
  467TIP3    H222817   0.875   2.465  16.706 -1.0959 -0.2205  0.8459
  468TIP3   OH222818   5.710   6.246   3.773 -0.8137  0.4652 -0.2384
  468TIP3    H122819   5.733   6.241   3.680  1.5293  1.7886  0.1957
  468TIP3    H222820   5.703   6.154   3.801 -1.3514  0.0531 -1.6633
  469TIP3   OH222821   5.943   0.696   4.976  0.2008  0.2649  0.0041
  469TIP3    H122822   5.883   0.645   4.921 -1.9268  0.8345  1.6590
  469TIP3    H222823   5.938   0.785   4.942  0.2152  0.2878  0.0606
  470TIP3   OH222824   4.210   0.318  13.524 -0.3781  0.1399  0.0048
  470TIP3    H122825   4.270   0.270  13.468 -1.0350 -0.6666 -0.0198
  470TIP3    H222826   4.134   0.261  13.533 -2.1821  2.0442 -1.8770
  471TIP3   OH222827   1.411   1.544   0.958  0.0186 -0.7835 -0.4390
  471TIP3    H122828   1.503   1.519   0.956 -0.3824 -2.6321  1.0094
  471TIP3    H222829   1.393   1.560   1.050 -0.5131  2.2668 -0.9728
  472TIP3   OH222830   1.505   2.792   5.179 -0.2835 -0.1267 -0.2223
  472TIP3    H122831   1.506   2.836   5.264 -0.4529 -1.0205  0.2462
  472TIP3    H222832   1.452   2.850   5.124  0.5010  0.8775  0.0346
  473TIP3   OH222833   1.935   6.455  14.174  0.0847  0.2916 -0.1845
  473TIP3    H122834   1.934   6.440  14.080  0.3175  0.0519 -0.1508
  473TIP3    H222835   1.923   6.550  14.184  1.5738  0.5311 -0.5082
  474TIP3   OH222836   1.863   1.484  16.129  0.0852 -0.1393  0.4839
  474TIP3    H122837   1.926   1.542  16.087  0.6187 -0.0374  1.4114
  474TIP3    H222838   1.802   1.460  16.058  0.8178  0.2160 -0.2870
  475TIP3   OH222839   1.477   1.637   0.077 -0.2428  0.7627  0.7185
  475TIP3    H122840   1.392   1.651   0.118 -0.0014  1.8723  0.9004
  475TIP3    H222841   1.480   1.544   0.056 -1.2864  0.6172  1.1776
  476TIP3   OH222842   4.940   6.673   5.153  0.1528 -0.1869  0.2320
  476TIP3    H122843   4.880   6.722   5.210  0.8455  0.8551  0.1129
  476TIP3    H222844   4.917   6.581   5.166 -0.9421  0.1493  0.7667
  477TIP3   OH222845   6.344   6.564   1.004  0.6500  0.8023  1.0480
  477TIP3    H122846   6.335   6.512   0.925  0.2501  1.7649  0.4406
  477TIP3    H222847   6.373   6.502   1.071  2.2013  0.1927 -0.1324
  478TIP3   OH222848   3.826   3.312  10.864 -0.0962 -0.3552  0.1263
  478TIP3    H122849   3.907   3.274  10.830 -0.1770  1.8355 -3.0702
  478TIP3    H222850   3.757   3.257  10.828 -0.1004  0.4727 -1.1939
  479TIP3   OH222851   0.146   2.178  12.465 -0.0771 -0.2479  0.4399
  479TIP3    H122852   0.134   2.272  12.470 -1.8092 -0.4846  1.7807
  479TIP3    H222853   0.152   2.159  12.371 -0.6942  1.0913  0.1179
  480TIP3   OH222854   5.231   1.449   6.907  0.1199  0.9824  0.6145
  480TIP3    H122855   5.217   1.381   6.841 -2.6183  1.3211  0.7559
  480TIP3    H222856   5.191   1.414   6.987 -0.9069  2.5427  0.8163
  481TIP3   OH222857   2.114   0.810   0.078 -0.0672  0.2657 -0.1913
  481TIP3    H122858   2.189   0.751   0.079 -1.5978 -1.8606 -1.0801
  481TIP3    H222859   2.056   0.776   0.146 -1.5315 -0.0994 -1.5605
  482TIP3   OH222860   5.427   1.633   2.011  0.1444  0.2803 -0.4082
  482TIP3    H122861   5.408   1.621   2.104  2.4777  0.4345  0.1596
  482TIP3    H222862   5.366   1.575   1.966 -0.4995 -0.4076  1.2547
  483TIP3   OH222863   1.398   3.857  17.064  0.3386  0.2710 -0.1169
  483TIP3    H122864   1.329   3.877  17.127  0.3970  1.1928 -0.3382
  483TIP3    H222865   1.353   3.848  16.981  0.4484  0.6424 -0.2195
  484TIP3   OH222866   2.779   0.566   6.255 -0.2611 -0.6076  0.1212
  484TIP3    H122867   2.827   0.642   6.287  0.3294 -0.5977 -0.7592
  484TIP3    H222868   2.687   0.595   6.254 -0.4078 -0.8713  2.4986
  485TIP3   OH222869   1.511   1.969   4.697 -0.6728 -0.7419 -0.2968
  485TIP3    H122870   1.415   1.977   4.701 -0.5682  1.5953 -0.8075
  485TIP3    H222871   1.543   2.058   4.715  1.5868 -2.0957  3.4847
  486TIP3   OH222872   1.792   4.996   4.116 -0.0971  0.1917 -0.4053
  486TIP3    H122873   1.858   4.978   4.182  1.1033  1.3552 -1.2239
  486TIP3    H222874   1.811   4.936   4.045 -0.1738  0.2530 -0.4785
  487TIP3   OH222875   2.508   1.177  13.873  0.3301 -0.2060 -0.3987
  487TIP3    H122876   2.599   1.164  13.900  0.4450  0.6375 -0.3351
  487TIP3    H222877   2.456   1.129  13.938  0.6320  1.2441  1.0111
  488TIP3   OH222878   5.318   1.963   3.255 -0.3304 -0.2458 -0.3577
  488TIP3    H122879   5.247   1.977   3.319  0.5495  1.7942  0.2778
  488TIP3    H222880   5.280   1.988   3.171  0.1494  3.1914  0.2815
  489TIP3   OH222881   2.478   6.131  10.735  0.1960 -0.2484 -0.5042
  489TIP3    H122882   2.475   6.226  10.747 -0.3945 -0.2277 -0.7527
  489TIP3    H222883   2.499   6.119  10.643  1.4295 -0.3775 -0.2221
  490TIP3   OH222884   6.734   0.456  11.628 -0.1688  0.3328  0.3172
  490TIP3    H122885   6.823   0.443  11.595 -0.2419 -1.3293  0.6717
  490TIP3    H222886   6.745   0.493  11.715  0.0594  3.1904 -0.8094
  491TIP3   OH222887   5.833   1.597  17.019 -0.1353 -0.6865  0.0165
  491TIP3    H122888   5.785   1.517  17.037 -1.3680  0.4027  1.8086
  491TIP3    H222889   5.917   1.585  17.064 -0.5109 -0.7780  0.7017
  492TIP3   OH222890   1.727   5.941   1.712  1.0947 -0.2557  0.1316
  492TIP3    H122891   1.784   5.870   1.740  1.6338 -0.5043 -1.5231
  492TIP3    H222892   1.739   5.946   1.617 -0.9606  0.2870 -0.1395
  493TIP3   OH222893   0.728   5.623  14.263 -0.4700 -0.3295 -0.1381
  493TIP3    H122894   0.640   5.644  14.295 -0.9163 -1.3685 -0.6123
  493TIP3    H222895   0.719   5.621  14.168  0.5570  1.5206 -0.3079
  494TIP3   OH222896   6.500   0.018  15.420  0.1069 -0.8665  0.1418
  494TIP3    H122897   6.543   0.095  15.457  0.0067 -1.0948  0.7326
  494TIP3    H222898   6.413   0.051  15.394 -0.2598 -0.9728  1.1903
  495TIP3   OH222899   2.425   3.941   2.413 -0.1652 -0.2767 -0.6250
  495TIP3    H122900   2.345   3.892   2.434 -0.1163 -0.3320 -0.5704
  495TIP3    H222901   2.460   3.897   2.336  0.0695 -0.5438 -0.3649
  496TIP3   OH222902   4.008   0.778  17.124  0.1714  0.8561 -0.0849
  496TIP3    H122903   3.928   0.781  17.176  0.3041  0.7432  0.1302
  496TIP3    H222904   4.079   0.786  17.189  0.3289  1.1462 -0.2914
  497TIP3   OH222905   6.694   0.463  10.400 -0.2019  0.2021 -0.3834
  497TIP3    H122906   6.637   0.392  10.370  1.2669 -0.4993 -1.6351
  497TIP3    H222907   6.634   0.525  10.443 -1.7450 -0.9899 -0.7201
  498TIP3   OH222908   3.813   5.442   0.721 -0.3438 -0.0982  0.1248
  498TIP3    H122909   3.895   5.405   0.754 -1.0055 -1.1704  0.6352
  498TIP3    H222910   3.755   5.444   0.798 -0.4141  1.8030  0.0527
  499TIP3   OH222911   2.833   6.544   6.093 -0.2438 -0.3691 -0.2445
  499TIP3    H122912   2.746   6.571   6.066  0.5752  1.7736 -0.9400
  499TIP3    H222913   2.824   6.520   6.185 -1.2986  1.1851  0.0921
  500TIP3   OH222914   1.793   0.095   4.902  0.3298  0.1699  0.8253
  500TIP3    H122915   1.792   0.124   4.810 -1.7244 -0.3160  0.6423
  500TIP3    H222916   1.875   0.046   4.910  0.2657 -0.3192 -0.9504
  501TIP3   OH222917   4.414   6.752  15.923 -0.1761  1.0367 -0.2532
  501TIP3    H122918   4.365   6.775  16.001 -0.2848 -0.9138  0.2873
  501TIP3    H222919   4.504   6.737  15.954  0.0319  1.3317 -0.6932
  502TIP3   OH222920   3.085   3.987  16.040 -0.8454 -0.0407 -0.4135
  502TIP3    H122921   3.146   4.026  15.977  1.0399 -0.3056  1.1735
  502TIP3    H222922   3.104   4.032  16.123 -0.7288 -2.1544  0.7728
  503TIP3   OH222923   3.376   5.051  14.927  1.2545  0.0381  0.0684
  503TIP3    H122924   3.288   5.080  14.904  0.2161 -0.5951  2.8532
  503TIP3    H222925   3.434   5.114  14.884 -0.6652  2.2106  0.4720
  504TIP3   OH222926   3.637   6.672  16.728  0.3155  0.0712  0.5011
  504TIP3    H122927   3.710   6.705  16.781 -0.7576  2.1515  0.8019
  504TIP3    H222928   3.570   6.649  16.792  0.3369 -0.9020  0.1824
  505TIP3   OH222929   5.552   5.512  15.208 -0.1877  0.4328 -0.1827
  505TIP3    H122930   5.488   5.455  15.165 -0.5855  1.3540 -0.8454
  505TIP3    H222931   5.629   5.457  15.221 -1.4018 -1.0014  1.5079
  506TIP3   OH222932   6.336   2.085  12.124  0.1190  0.3582  0.5416
  506TIP3    H122933   6.362   2.110  12.035  0.6663  0.8860  0.8440
  506TIP3    H222934   6.245   2.055  12.115 -0.4552  2.1078  0.0928
  507TIP3   OH222935   0.857   1.089   5.216  0.0595  0.3467 -0.2219
  507TIP3    H122936   0.818   1.103   5.129  2.0955 -0.6375 -1.3596
  507TIP3    H222937   0.862   1.177   5.254  1.1512  1.1358 -2.0462
  508TIP3   OH222938   6.264   6.317   2.269 -0.7655 -0.3482  0.3848
  508TIP3    H122939   6.180   6.277   2.247  0.3380 -1.8172 -1.3808
  508TIP3    H222940   6.254   6.409   2.244 -2.7647  0.2277  2.9046
  509TIP3   OH222941   0.047   0.895   4.088  0.6201 -0.0235 -0.1083
  509TIP3    H122942   0.104   0.932   4.021 -0.4437  0.7719 -0.6077
  509TIP3    H222943   0.085   0.925   4.171  0.4620  1.2298 -0.4599
  510TIP3   OH222944   3.548   2.471  12.137 -0.1754 -0.3181  0.2029
  510TIP3    H122945   3.621   2.440  12.083 -0.5833  0.7022 -0.9947
  510TIP3    H222946   3.548   2.566  12.125 -0.6867 -0.1367  1.5122
  511TIP3   OH222947   5.599   2.540   4.611  0.0368  0.2197  0.3209
  511TIP3    H122948   5.618   2.446   4.621  1.1565  0.6022  2.1763
  511TIP3    H222949   5.529   2.543   4.546  0.1238 -1.8899  0.0522
  512TIP3   OH222950   5.885   1.882  16.206 -0.2536  0.6223 -0.1756
  512TIP3    H122951   5.840   1.899  16.124 -1.2507 -1.8099 -0.2036
  512TIP3    H222952   5.839   1.938  16.270 -0.0269  1.8799 -1.0699
  513TIP3   OH222953   0.198   5.638   5.038 -0.1375 -0.0760 -0.1887
  513TIP3    H122954   0.188   5.549   5.072  0.4114  0.4791  1.5260
  513TIP3    H222955   0.183   5.629   4.944  0.1559 -2.0105 -0.0988
  514TIP3   OH222956   1.384   1.098  10.423 -0.6656 -0.2295  0.1448
  514TIP3    H122957   1.419   1.186  10.434  1.0342 -0.5150 -2.1527
  514TIP3    H222958   1.302   1.111  10.375 -0.1555  0.1164 -0.6671
  515TIP3   OH222959   6.222   2.317   1.480 -0.5481  0.1769 -0.0063
  515TIP3    H122960   6.143   2.317   1.426 -1.1332 -0.0525  0.8159
  515TIP3    H222961   6.263   2.401   1.462 -1.1343  0.4195 -0.2431
  516TIP3   OH222962   2.396   2.322   4.602 -0.0822 -0.9521 -0.1395
  516TIP3    H122963   2.307   2.334   4.634 -1.3046 -2.6538 -2.6129
  516TIP3    H222964   2.439   2.271   4.672 -0.9878 -0.0880  1.1005
  517TIP3   OH222965   2.556   2.026   1.712 -0.3377  0.4289  0.2873
  517TIP3    H122966   2.502   2.105   1.717  0.8143  1.3830 -1.3855
  517TIP3    H222967   2.610   2.029   1.791  0.7924  2.1887 -0.5004
  518TIP3   OH222968   1.248   3.933   4.969  0.4358 -0.7099  0.3415
  518TIP3    H122969   1.233   4.006   5.029 -1.0308  0.0357 -0.8629
  518TIP3    H222970   1.212   3.857   5.015 -2.2437  0.1286 -0.1816
  519TIP3   OH222971   4.167   0.274  16.440 -0.0996 -0.1442  0.1078
  519TIP3    H122972   4.198   0.337  16.506  0.9565  0.7970 -1.2220
  519TIP3    H222973   4.125   0.329  16.374  0.4331 -0.8676 -0.8535
  520TIP3   OH222974   4.351   6.242  15.696  0.0968 -0.1378  0.1623
  520TIP3    H122975   4.442   6.239  15.726  0.1093  0.0439  0.1395
  520TIP3    H222976   4.299   6.240  15.777  0.0804 -1.7781  0.1506
  521TIP3   OH222977   4.776   4.501  16.119  0.3496 -0.4456  0.0515
  521TIP3    H122978   4.861   4.497  16.075 -0.0662 -1.1119 -0.7185
  521TIP3    H222979   4.747   4.592  16.107  2.5014  0.8635  3.4124
  522TIP3   OH222980   4.389   0.369   4.756  0.1673 -0.0510  0.7159
  522TIP3    H122981   4.383   0.375   4.661 -0.3498  0.0609  0.7523
  522TIP3    H222982   4.422   0.281   4.773  2.8700  0.7935  0.3559
  523TIP3   OH222983   2.626   3.869  15.160  0.0760  0.2481  0.1432
  523TIP3    H122984   2.628   3.958  15.195 -1.1624 -0.0776  1.1437
  523TIP3    H222985   2.535   3.840  15.174  0.9786 -2.0108  2.0662
  524TIP3   OH222986   0.076   5.267   2.821  0.1009 -0.1080  0.2708
  524TIP3    H122987   0.055   5.175   2.805  0.3344 -0.1235  0.0492
  524TIP3    H222988   0.169   5.267   2.846  0.1621  0.0928  0.0439
  525TIP3   OH222989   0.378   3.692   4.880 -0.3558 -0.5461  0.1480
  525TIP3    H122990   0.350   3.725   4.795 -2.6395 -0.9985  0.6375
  525TIP3    H222991   0.403   3.601   4.864  0.7364 -0.1826 -0.2796
  526TIP3   OH222992   4.175   4.757  14.922 -0.4516 -0.0330  0.2674
  526TIP3    H122993   4.165   4.685  14.859 -0.2479  0.6586 -0.5715
  526TIP3    H222994   4.093   4.758  14.970 -0.7994 -0.2766 -0.3107
  527TIP3   OH222995   6.453   5.564   3.620 -0.2422 -0.0129  0.6992
  527TIP3    H122996   6.452   5.621   3.697 -1.2679  1.8828 -0.6396
  527TIP3    H222997   6.367   5.520   3.622 -0.8011  1.0081 -0.0079
  528TIP3   OH222998   5.608   1.744  12.454  0.8249  0.1872 -0.8161
  528TIP3    H122999   5.653   1.826  12.433 -0.1526  0.1795 -3.3888
  528TIP3    H223000   5.531   1.744  12.397 -0.6970 -1.2941  1.1012
  529TIP3   OH223001   3.865   6.170  15.417 -0.7367 -0.2293  0.2531
  529TIP3    H123002   3.796   6.195  15.356 -1.0459 -1.7872 -0.0956
  529TIP3    H223003   3.931   6.239  15.410 -1.1320  0.0289 -1.2600
  530TIP3   OH223004   1.828   5.586   0.727 -0.2924 -0.3186  0.5772
  530TIP3    H123005   1.853   5.495   0.742 -1.3148 -0.7087 -0.0082
  530TIP3    H223006   1.894   5.637   0.775  1.8274 -1.2632 -1.1498
  531TIP3   OH223007   0.988   3.032   0.255 -0.1588  0.2191  0.0287
  531TIP3    H123008   0.901   3.013   0.222 -0.7897  1.1088  1.1125
  531TIP3    H223009   0.973   3.085   0.333  1.2784 -1.1379  1.2996
  532TIP3   OH223010   6.371   5.450   0.926  0.1385  0.6153  0.1667
  532TIP3    H123011   6.381   5.528   0.980  1.2345 -0.5343  1.7021
  532TIP3    H223012   6.317   5.391   0.979 -0.3165  0.1306 -0.7915
  533TIP3   OH223013   0.662   4.483  12.462 -0.4137  0.6021  0.3272
  533TIP3    H123014   0.572   4.506  12.437 -1.3688 -0.6835  2.3059
  533TIP3    H223015   0.697   4.436  12.386 -1.3928  1.1405 -0.4803
  534TIP3   OH223016   4.396   5.465  16.107  0.8726 -0.1708  0.0240
  534TIP3    H123017   4.428   5.380  16.077 -0.2053 -0.9773  1.1191
  534TIP3    H223018   4.374   5.452  16.199 -0.7340  0.8783 -0.1797
  535TIP3   OH223019   0.668   2.618   4.584 -0.0890  0.2684 -0.2024
  535TIP3    H123020   0.671   2.710   4.557  1.9956  0.2699 -0.1456
  535TIP3    H223021   0.756   2.601   4.618  0.7679 -2.7214 -3.4240
  536TIP3   OH223022   2.719   6.301   3.137  0.1191  0.2846  0.6722
  536TIP3    H123023   2.774   6.239   3.089 -0.7954  0.0823 -0.1435
  536TIP3    H223024   2.742   6.387   3.100  1.9585  0.5740  2.3481
  537TIP3   OH223025   5.372   5.154   0.470 -0.2212 -0.5209  0.7876
  537TIP3    H123026   5.330   5.113   0.546  1.4139 -0.3239  1.8389
  537TIP3    H223027   5.391   5.243   0.500 -1.7450  0.3734 -0.7201
  538TIP3   OH223028   0.077   4.473  16.626 -0.1464 -0.3152 -0.1318
  538TIP3    H123029   0.109   4.547  16.576 -0.8419 -0.2776 -0.5307
  538TIP3    H223030   0.154   4.443  16.676 -0.3386  1.9867  1.7120
  539TIP3   OH223031   2.132   6.459  10.693 -0.3767 -0.5798 -0.1761
  539TIP3    H123032   2.060   6.400  10.714 -0.9104 -0.4489 -1.5344
  539TIP3    H223033   2.210   6.403  10.690 -0.6150 -0.9270  0.0962
  540TIP3   OH223034   4.948   3.128  15.987  0.2694 -0.0277 -0.3374
  540TIP3    H123035   4.998   3.186  16.044  0.0141  0.6631 -0.8031
  540TIP3    H223036   5.009   3.057  15.966  1.2902  1.1154 -1.3965
  541TIP3   OH223037   3.751   1.121  16.146  0.0254  0.2576  0.3655
  541TIP3    H123038   3.835   1.101  16.187  0.1288 -0.7685 -0.3029
  541TIP3    H223039   3.687   1.071  16.196 -0.3229  1.6797  1.3916
  542TIP3   OH223040   0.694   0.587   2.530 -0.1613  0.0395  0.0978
  542TIP3    H123041   0.599   0.582   2.520 -0.3204  0.4337  1.2775
  542TIP3    H223042   0.729   0.552   2.448 -1.3178  1.3079 -0.9800
  543TIP3   OH223043   5.961   0.247   4.507 -0.1439  0.0648  0.0194
  543TIP3    H123044   5.927   0.253   4.417  1.9725 -0.2364 -0.8492
  543TIP3    H223045   6.049   0.284   4.502  0.4819 -1.0803  1.7110
  544TIP3   OH223046   1.548   1.855   4.442 -0.8368 -0.3303  0.3294
  544TIP3    H123047   1.527   1.916   4.513 -2.6588  0.5987 -0.9309
  544TIP3    H223048   1.477   1.791   4.443 -0.6439 -0.5680 -0.3660
  545TIP3   OH223049   4.293   4.019   5.942 -0.4666  0.3971  0.1023
  545TIP3    H123050   4.357   4.011   5.872 -1.0503 -0.8741 -0.3091
  545TIP3    H223051   4.345   4.027   6.022  0.2663 -2.4693  0.0033
  546TIP3   OH223052   2.296   1.361   4.291  0.1093  0.4264  0.0273
  546TIP3    H123053   2.326   1.277   4.257 -0.1779 -0.0777  0.9838
  546TIP3    H223054   2.278   1.414   4.213 -0.9768 -0.8487 -0.6215
  547TIP3   OH223055   2.408   1.694  11.590  0.3430  0.0062  0.0177
  547TIP3    H123056   2.405   1.604  11.556 -3.6871 -0.0613  0.0253
  547TIP3    H223057   2.364   1.746  11.522 -1.5019  1.1120  1.9556
  548TIP3   OH223058   6.364   0.854   1.616  0.9255 -0.2018 -0.2252
  548TIP3    H123059   6.269   0.856   1.614  0.9182  2.0334  0.0021
  548TIP3    H223060   6.385   0.776   1.667 -0.8271  0.2567  1.3056
  549TIP3   OH223061   5.309   2.775  13.116  0.1960  0.1791 -0.5991
  549TIP3    H123062   5.239   2.835  13.092 -0.9789 -0.4849  1.0666
  549TIP3    H223063   5.265   2.695  13.142  1.7272 -1.7210 -3.3369
  550TIP3   OH223064   0.462   5.277   1.569  0.4259 -0.2144  0.1871
  550TIP3    H123065   0.539   5.233   1.532 -0.5604 -1.5173 -0.3960
  550TIP3    H223066   0.392   5.213   1.560  0.0267 -0.5209  4.0810
  551TIP3   OH223067   4.995   4.850   3.787 -0.2873  0.3442 -0.0665
  551TIP3    H123068   5.061   4.830   3.720 -0.8074 -0.6258 -0.3098
  551TIP3    H223069   5.043   4.848   3.869 -0.0881 -0.9498 -0.1832
  552TIP3   OH223070   3.870   1.844   0.083 -0.0647  0.1791 -0.0827
  552TIP3    H123071   3.882   1.842   0.178  0.8022 -1.7078 -0.1900
  552TIP3    H223072   3.952   1.807   0.048 -0.8938 -0.3949 -1.4960
  553TIP3   OH223073   0.677   3.217  10.433  0.2015 -0.9533  0.2212
  553TIP3    H123074   0.740   3.287  10.451 -0.0913  0.0145 -2.1348
  553TIP3    H223075   0.731   3.138  10.424  0.7110 -0.7452  1.3023
  554TIP3   OH223076   6.097   0.714  17.205 -0.5230 -0.2021 -0.0517
  554TIP3    H123077   6.144   0.797  17.196  1.7199 -1.3628  0.4874
  554TIP3    H223078   6.084   0.703  17.299 -0.0552 -0.8455 -0.0558
  555TIP3   OH223079   0.925   4.831   2.068  0.0734 -0.0645  0.7513
  555TIP3    H123080   0.839   4.854   2.103  0.4039  0.9335  0.9639
  555TIP3    H223081   0.924   4.863   1.978  0.0139 -0.5932  0.5624
  556TIP3   OH223082   3.787   4.327  14.262  0.3895  0.1284  0.1919
  556TIP3    H123083   3.718   4.279  14.216 -0.1274 -0.3785  1.4349
  556TIP3    H223084   3.869   4.292  14.227  0.0671  1.0312 -1.6078
  557TIP3   OH223085   4.048   3.422   0.023  0.3109 -0.2883  0.4729
  557TIP3    H123086   4.139   3.402   0.045  0.8582  0.4091 -1.0430
  557TIP3    H223087   4.032   3.509   0.058  0.6562  0.1285 -0.3763
  558TIP3   OH223088   6.313   6.478  11.210 -0.1010 -0.1429 -0.2115
  558TIP3    H123089   6.335   6.388  11.234 -0.7232 -0.4041 -0.5818
  558TIP3    H223090   6.376   6.501  11.142 -0.5912 -0.6849 -0.8726
  559TIP3   OH223091   1.505   5.674   0.531 -0.4637  0.9574 -0.3864
  559TIP3    H123092   1.418   5.696   0.499 -0.3186  0.0006 -1.5302
  559TIP3    H223093   1.492   5.596   0.585 -0.6239  2.2264  1.4973
  560TIP3   OH223094   0.395   6.224  12.105  0.3085 -0.4621 -0.8047
  560TIP3    H123095   0.414   6.272  12.024  1.3767  2.4455  1.0371
  560TIP3    H223096   0.331   6.279  12.151  1.3932 -0.8879  1.3267
  561TIP3   OH223097   5.372   0.916  11.487  0.1402  0.6599  0.6121
  561TIP3    H123098   5.443   0.918  11.424 -0.0665 -0.4464  0.3238
  561TIP3    H223099   5.295   0.888  11.436 -0.1710  0.3912  1.2157
  562TIP3   OH223100   0.862   5.422   3.202  0.9128  0.3820  0.0991
  562TIP3    H123101   0.875   5.501   3.255 -0.4104  1.4397 -1.0940
  562TIP3    H223102   0.837   5.455   3.116  0.8566 -1.3515 -0.5770
  563TIP3   OH223103   4.169   6.356   1.397  0.9098  0.2543 -0.0031
  563TIP3    H123104   4.194   6.308   1.476 -0.4591  2.0420  1.6253
  563TIP3    H223105   4.073   6.358   1.400  0.7236 -0.8099 -2.5131
  564TIP3   OH223106   1.730   3.409   3.376 -0.2232  0.2122  0.3218
  564TIP3    H123107   1.650   3.369   3.342 -1.0429  1.2683  0.9103
  564TIP3    H223108   1.701   3.494   3.411  0.9222  0.0603  1.7485
  565TIP3   OH223109   1.748   6.344   4.223 -0.3695  0.2267 -0.6274
  565TIP3    H123110   1.797   6.341   4.141 -1.3092  0.3574 -1.2024
  565TIP3    H223111   1.812   6.321   4.290  0.9911  2.2445 -1.1334
  566TIP3   OH223112   0.151   0.737   3.171  0.3231 -0.4056 -0.6094
  566TIP3    H123113   0.077   0.788   3.138  1.0490 -0.0622 -1.7457
  566TIP3    H223114   0.182   0.787   3.247  0.5308  0.4490 -1.2356
  567TIP3   OH223115   5.549   5.876   3.657  0.0823  0.5964 -0.7035
  567TIP3    H123116   5.487   5.928   3.709  0.5184 -0.3046  0.7619
  567TIP3    H223117   5.634   5.915   3.675  0.6388 -1.5067  1.6691
  568TIP3   OH223118   0.886   2.270   1.927  0.0374  0.3366 -0.3072
  568TIP3    H123119   0.800   2.229   1.913 -0.3306  1.5214 -1.8380
  568TIP3    H223120   0.939   2.242   1.853  0.0944  1.7558 -0.8406
  569TIP3   OH223121   5.849   2.562   6.337 -0.0534  0.7417 -0.3140
  569TIP3    H123122   5.801   2.644   6.346 -0.3664  0.6267 -0.9102
  569TIP3    H223123   5.939   2.585   6.361 -0.5495  0.7339  1.8291
  570TIP3   OH223124   2.043   2.087   6.521 -0.6031 -0.0274  0.3746
  570TIP3    H123125   2.088   2.004   6.531 -1.0430 -0.8201 -3.0396
  570TIP3    H223126   1.953   2.063   6.498 -0.4229  1.2536 -1.9870
  571TIP3   OH223127   1.056   4.465  12.631 -0.5944  0.4082 -0.4487
  571TIP3    H123128   1.015   4.451  12.717  0.0370 -1.9074 -0.4384
  571TIP3    H223129   1.112   4.542  12.643 -1.5876  0.9648  0.8018
  572TIP3   OH223130   2.877   5.130   4.585  0.1710 -0.6913  0.0076
  572TIP3    H123131   2.872   5.109   4.679 -2.9959 -0.7222 -0.0587
  572TIP3    H223132   2.863   5.046   4.541  1.4360 -0.6399 -0.5238
  573TIP3   OH223133   1.122   2.833   4.800 -0.2276  0.0504 -0.3178
  573TIP3    H123134   1.164   2.774   4.862  0.8743  0.0652 -1.0274
  573TIP3    H223135   1.182   2.837   4.726 -1.2791  0.4248 -1.1789
  574TIP3   OH223136   1.427   3.580  15.058 -0.3476  0.4178  0.1196
  574TIP3    H123137   1.361   3.625  15.005 -0.6225 -0.5676 -0.4043
  574TIP3    H223138   1.387   3.496  15.080  0.6108 -0.0796  0.0344
  575TIP3   OH223139   0.483   0.079  15.076  0.2283  0.1077  0.4479
  575TIP3    H123140   0.419   0.150  15.081  0.1447 -0.0253  1.3974
  575TIP3    H223141   0.516   0.083  14.986 -0.1761  0.9954  0.3302
  576TIP3   OH223142   3.136   2.165  11.190  0.0978 -0.3065 -0.0487
  576TIP3    H123143   3.156   2.126  11.275  0.0497 -0.5165 -0.1329
  576TIP3    H223144   3.040   2.171  11.188  0.1336  0.7332  0.3698
  577TIP3   OH223145   5.823   1.999  12.618 -1.1013  0.2606 -0.0861
  577TIP3    H123146   5.772   2.021  12.540  0.3995  1.9539 -0.6700
  577TIP3    H223147   5.910   2.033  12.600 -0.4893 -0.0231  2.0120
  578TIP3   OH223148   3.478   2.597  11.795 -0.0266  0.4632  0.3174
  578TIP3    H123149   3.450   2.676  11.842 -1.1172  1.8526 -2.4582
  578TIP3    H223150   3.397   2.550  11.777  0.7209 -2.6723  3.8294
  579TIP3   OH223151   5.693   0.687  13.230 -0.0120 -0.2190 -0.3051
  579TIP3    H123152   5.610   0.734  13.222  0.5229  1.0657  1.0984
  579TIP3    H223153   5.748   0.745  13.283  1.1415 -1.8662  0.3848
  580TIP3   OH223154   6.619   6.094   3.672 -0.1420  0.3733  0.0132
  580TIP3    H123155   6.603   6.029   3.603  0.8980  0.1569 -0.0436
  580TIP3    H223156   6.711   6.118   3.661  0.5763 -0.9720  2.4260
  581TIP3   OH223157   2.393   4.630   6.052 -1.0183 -0.3817 -0.1719
  581TIP3    H123158   2.340   4.564   6.097 -1.2234  0.0276  0.1944
  581TIP3    H223159   2.338   4.709   6.053 -0.6323 -0.1103 -0.2941
  582TIP3   OH223160   3.155   4.266   2.031 -0.5292 -0.5724  0.2251
  582TIP3    H123161   3.190   4.178   2.047 -1.3391 -0.8414  0.5598
  582TIP3    H223162   3.064   4.261   2.060 -0.4186  0.5392  0.8090
  583TIP3   OH223163   1.037   6.681  16.013 -0.2528  0.0264  0.6273
  583TIP3    H123164   0.944   6.697  16.030 -0.6341 -0.8376 -0.5434
  583TIP3    H223165   1.055   6.730  15.933 -0.6893 -2.7672 -1.3048
  584TIP3   OH223166   2.546   1.196  13.600  0.6535  0.2893  0.0531
  584TIP3    H123167   2.546   1.184  13.695 -1.2334  0.5292  0.1213
  584TIP3    H223168   2.520   1.110  13.565 -1.1396  0.8375 -0.0732
  585TIP3   OH223169   4.506   2.990  11.742  0.4361  0.2510  0.7045
  585TIP3    H123170   4.425   2.975  11.790 -0.1005 -0.5170 -0.3992
  585TIP3    H223171   4.486   3.063  11.683 -0.2586 -1.4282 -1.2529
  586TIP3   OH223172   5.568   2.546  14.407 -0.3396  0.1071  0.3045
  586TIP3    H123173   5.617   2.624  14.380 -0.4623 -0.2222 -0.9464
  586TIP3    H223174   5.502   2.535  14.339  1.4585 -2.7321 -1.1756
  587TIP3   OH223175   2.347   1.188   5.396  0.1689  0.0853 -0.0884
  587TIP3    H123176   2.327   1.273   5.358 -1.8978 -0.6491 -0.7680
  587TIP3    H223177   2.279   1.175   5.462  1.9646  0.0381  1.8457
  588TIP3   OH223178   4.556   2.563  17.061  0.2063 -0.5148 -0.5599
  588TIP3    H123179   4.549   2.655  17.089 -0.9632 -0.4341 -1.0484
  588TIP3    H223180   4.527   2.564  16.970  0.0818 -1.3896 -0.5352
  589TIP3   OH223181   4.134   4.711   5.493 -0.0952 -0.0907  0.2870
  589TIP3    H123182   4.047   4.750   5.483 -0.8883 -1.6695  0.6622
  589TIP3    H223183   4.164   4.696   5.403 -0.8856 -0.9310  0.1533
  590TIP3   OH223184   0.837   4.034  13.899  0.6203 -0.1816  0.1561
  590TIP3    H123185   0.767   4.017  13.835  2.1821  0.2551 -1.7427
  590TIP3    H223186   0.813   4.118  13.938 -0.7435 -0.8085  0.7524
  591TIP3   OH223187   5.994   5.077   2.518 -0.5404  0.1524  0.2643
  591TIP3    H123188   6.074   5.129   2.504  1.2076 -1.8602  2.0483
  591TIP3    H223189   6.018   4.988   2.492 -1.4754 -0.9259  2.7896
  592TIP3   OH223190   4.098   4.492  16.917 -0.0015  0.4106 -0.0144
  592TIP3    H123191   4.019   4.522  16.872  0.1661  0.9310  0.0422
  592TIP3    H223192   4.065   4.449  16.997 -0.2719 -0.1355 -0.4121
  593TIP3   OH223193   6.353   2.160   5.790 -0.5398  0.0048  0.1590
  593TIP3    H123194   6.396   2.106   5.856 -1.9959 -1.2051  0.1613
  593TIP3    H223195   6.398   2.139   5.708  0.5061  0.6479  0.5456
  594TIP3   OH223196   3.963   4.133   2.429 -0.0982 -0.1003 -0.1715
  594TIP3    H123197   3.876   4.150   2.465  0.2236 -0.5871  0.8744
  594TIP3    H223198   4.008   4.217   2.435 -0.5022  0.1584 -0.7390
  595TIP3   OH223199   4.381   4.061   1.963  0.7345  0.2550  0.1769
  595TIP3    H123200   4.344   4.104   2.040  0.3777  0.6863 -0.2397
  595TIP3    H223201   4.473   4.088   1.963  1.1399 -0.9673  1.3159
  596TIP3   OH223202   0.986   0.160  16.426  0.3466 -0.1388 -0.0513
  596TIP3    H123203   0.927   0.101  16.379  0.8129 -1.0578  0.4841
  596TIP3    H223204   1.020   0.219  16.360  0.8014 -1.2486 -0.8408
  597TIP3   OH223205   1.974   3.020   0.338  0.1087 -0.0497 -0.4284
  597TIP3    H123206   1.894   3.016   0.390  0.2331  2.2999  0.0577
  597TIP3    H223207   2.020   2.938   0.358  0.2368  0.7535  3.3845
  598TIP3   OH223208   0.038   2.530   6.037 -0.0788  0.1060  0.2780
  598TIP3    H123209  -0.050   2.511   6.071  0.4338 -0.4544  1.3387
  598TIP3    H223210   0.049   2.624   6.051 -0.7259  0.2857 -0.3931
  599TIP3   OH223211   6.106   6.107  12.203  0.1657 -0.2155  0.6073
  599TIP3    H123212   6.087   6.167  12.132 -0.6097  1.1193  1.8925
  599TIP3    H223213   6.137   6.163  12.274 -0.4436 -1.3473  1.8069
  600TIP3   OH223214   1.291   0.406   2.445 -0.5839 -0.3999 -0.0331
  600TIP3    H123215   1.350   0.480   2.458 -1.8816  0.7477 -0.3835
  600TIP3    H223216   1.315   0.369   2.360 -1.0144  0.6979 -0.6483
  601TIP3   OH223217   6.493   1.271  17.199 -0.3699  0.2293  0.1313
  601TIP3    H123218   6.429   1.287  17.129 -0.5193  1.1472  0.4681
  601TIP3    H223219   6.536   1.189  17.173 -1.2956 -0.1124 -0.3822
  602TIP3   OH223220   0.951   0.760  12.110  0.0081  0.3521  0.4095
  602TIP3    H123221   0.890   0.813  12.059 -0.6914  0.0202  0.8875
  602TIP3    H223222   0.975   0.688  12.051  0.2084  0.6767  0.0968
  603TIP3   OH223223   4.311   5.609  12.906 -0.0421  0.5644  0.2928
  603TIP3    H123224   4.399   5.594  12.943  0.0906  0.3309 -0.1104
  603TIP3    H223225   4.276   5.521  12.893  0.6485  0.5592 -1.8810
  604TIP3   OH223226   2.620   3.107   1.599  0.0356 -0.6760 -0.1038
  604TIP3    H123227   2.635   3.020   1.561  0.0464 -0.4523 -0.6286
  604TIP3    H223228   2.533   3.132   1.568  0.6128  0.1042 -1.1813
  605TIP3   OH223229   0.508   6.042  12.517 -0.1095  0.0186  0.2916
  605TIP3    H123230   0.538   6.133  12.524  0.2773 -0.0678 -0.2558
  605TIP3    H223231   0.496   6.027  12.424 -1.8495  0.0373  0.4890
  606TIP3   OH223232   5.676   2.221  11.052  0.4074  0.4494  0.3425
  606TIP3    H123233   5.607   2.220  11.118 -0.6352  0.6971 -0.6946
  606TIP3    H223234   5.651   2.152  10.990 -0.1693  1.9929 -1.2387
  607TIP3   OH223235   1.606   1.017  11.214  0.7168  0.0057 -0.0539
  607TIP3    H123236   1.655   0.976  11.142  0.5543  1.0966 -0.8064
  607TIP3    H223237   1.673   1.039  11.279  0.8616 -1.0166  0.1619
  608TIP3   OH223238   0.352   2.976   1.574 -0.3697  0.1912 -0.4235
  608TIP3    H123239   0.269   3.006   1.537 -0.6724  0.1940  0.2416
  608TIP3    H223240   0.327   2.912   1.641  0.2228 -0.8750 -1.1813
  609TIP3   OH223241   2.087   1.308   2.986 -0.5830  0.2789  0.4114
  609TIP3    H123242   2.018   1.367   3.015  0.2117  0.8500  1.1806
  609TIP3    H223243   2.095   1.244   3.057 -0.3887  0.1472  0.2720
  610TIP3   OH223244   5.325   3.811  16.543 -0.6739  0.1978 -0.0668
  610TIP3    H123245   5.236   3.777  16.547 -0.3287 -0.5938  1.5525
  610TIP3    H223246   5.377   3.749  16.594  0.3282  2.0115  1.2442
  611TIP3   OH223247   2.657   2.685  11.060 -0.1542  0.6543  0.4667
  611TIP3    H123248   2.650   2.655  10.969  1.1992  1.1369  0.1776
  611TIP3    H223249   2.571   2.666  11.098  0.1848 -2.4660 -0.0272
  612TIP3   OH223250   6.233   3.101   3.344 -0.3115  0.2036 -0.0117
  612TIP3    H123251   6.201   3.133   3.260  2.0183  0.1364 -1.0257
  612TIP3    H223252   6.294   3.031   3.321  0.8248  0.5717  1.6810
  613TIP3   OH223253   1.637   0.113   5.672 -0.3217 -0.6777  0.2500
  613TIP3    H123254   1.579   0.092   5.598  0.4902 -0.6937 -0.3978
  613TIP3    H223255   1.723   0.081   5.644  0.0734 -0.3189  1.0436
  614TIP3   OH223256   5.493   2.715   2.728 -0.5777 -0.3156  0.2464
  614TIP3    H123257   5.476   2.645   2.665  1.4413 -1.0197  0.4235
  614TIP3    H223258   5.546   2.673   2.796 -0.4217  1.0853  1.0097
  615TIP3   OH223259   2.050   3.829  10.950 -0.4208 -0.5310  0.1506
  615TIP3    H123260   2.005   3.910  10.929  0.8476  0.3973  0.9069
  615TIP3    H223261   2.141   3.843  10.922 -0.0699 -1.4914  0.7446
  616TIP3   OH223262   5.001   1.883  14.149 -0.3511 -0.0749  0.3360
  616TIP3    H123263   5.029   1.842  14.230 -0.8056 -2.0562 -0.4473
  616TIP3    H223264   4.964   1.812  14.097  0.0356  1.1022 -1.6730
  617TIP3   OH223265   0.167   5.312  12.872  0.5861 -0.0072  0.3840
  617TIP3    H123266   0.075   5.340  12.878  0.4926 -0.1513 -0.3125
  617TIP3    H223267   0.198   5.315  12.963 -0.6420 -1.7142  0.9320
  618TIP3   OH223268   1.007   1.619   6.999 -1.1717  0.1225 -0.1622
  618TIP3    H123269   1.089   1.662   6.976 -1.0526 -0.8044 -1.5643
  618TIP3    H223270   0.973   1.585   6.917 -1.3883 -2.2252  0.8129
  619TIP3   OH223271   1.968   2.578   1.006  0.1375  0.6993 -0.4127
  619TIP3    H123272   1.911   2.601   0.932  0.9727  3.2370 -0.3584
  619TIP3    H223273   2.048   2.545   0.964  0.7229  2.4007 -0.7400
  620TIP3   OH223274   0.803   2.615   2.654 -0.2854  0.4601 -0.1913
  620TIP3    H123275   0.873   2.672   2.622  0.4768  1.1763  2.4427
  620TIP3    H223276   0.761   2.665   2.724 -1.0246 -1.3477  0.7414
  621TIP3   OH223277   3.468   0.196  12.942  0.6217  0.1003 -0.2031
  621TIP3    H123278   3.469   0.239  12.856 -2.2341 -0.4902 -0.6122
  621TIP3    H223279   3.458   0.268  13.004  2.5991  0.5236 -0.2868
  622TIP3   OH223280   2.592   4.503  16.901 -0.4917 -0.1771 -0.2768
  622TIP3    H123281   2.638   4.563  16.842 -2.0172  1.0278 -0.3216
  622TIP3    H223282   2.515   4.475  16.852 -0.6336 -0.9148  0.3513
  623TIP3   OH223283   5.395   0.446  10.392 -0.0257 -0.1314 -0.0231
  623TIP3    H123284   5.358   0.358  10.399  0.3471 -0.3630 -0.8142
  623TIP3    H223285   5.339   0.490  10.328 -2.1792  1.2874  2.6505
  624TIP3   OH223286   4.530   5.638  16.338  0.6859  0.0985 -0.1492
  624TIP3    H123287   4.522   5.608  16.428 -1.5684 -0.8637 -0.6121
  624TIP3    H223288   4.574   5.565  16.293 -1.7810 -1.2029 -0.5881
  625TIP3   OH223289   5.822   0.637   5.518  0.5100  0.7481  0.3089
  625TIP3    H123290   5.805   0.723   5.556 -0.0115 -0.1444  2.2567
  625TIP3    H223291   5.740   0.614   5.473  0.7784  1.4052 -0.5311
  626TIP3   OH223292   1.802   5.485  11.430 -0.3357  0.3793  0.0667
  626TIP3    H123293   1.882   5.535  11.408 -1.3129  1.7613 -0.5128
  626TIP3    H223294   1.731   5.544  11.407 -1.5850 -1.4890 -1.0665
  627TIP3   OH223295   2.158   4.379  13.890 -0.2486 -0.0345  0.0895
  627TIP3    H123296   2.236   4.341  13.931  0.0270  0.3100 -0.1108
  627TIP3    H223297   2.101   4.402  13.963  0.1104  0.2980  0.2672
  628TIP3   OH223298   0.934   4.107   1.452  0.5971  0.1396  0.1227
  628TIP3    H123299   0.907   4.170   1.385 -0.9689 -0.6753 -0.0775
  628TIP3    H223300   0.893   4.138   1.533  0.6417 -0.0649  0.2258
  629TIP3   OH223301   3.709   1.912  13.403  0.3141  0.6626  0.0168
  629TIP3    H123302   3.731   2.005  13.392  0.4120  0.4459 -1.9652
  629TIP3    H223303   3.794   1.867  13.403  0.2125  0.4482 -0.7235
  630TIP3   OH223304   4.529   5.661   3.582  0.2826  0.2734 -0.2044
  630TIP3    H123305   4.501   5.582   3.628 -2.3693  1.2010 -0.0311
  630TIP3    H223306   4.621   5.671   3.606  0.1486 -1.6321  1.4025
  631TIP3   OH223307   5.567   3.463  13.844  0.3177  0.3809 -0.2530
  631TIP3    H123308   5.530   3.550  13.856 -0.9275 -0.0540 -0.7598
  631TIP3    H223309   5.650   3.478  13.801  0.9177  1.4127  1.1870
  632TIP3   OH223310   2.210   5.405  14.582 -0.7813  0.0446  0.0696
  632TIP3    H123311   2.242   5.463  14.651  1.2870 -2.3131  1.3037
  632TIP3    H223312   2.187   5.324  14.628 -3.3159 -0.2885 -1.5757
  633TIP3   OH223313   2.629   0.774   5.212  0.0552 -0.4068 -0.2224
  633TIP3    H123314   2.580   0.839   5.162 -0.9131 -0.5235  0.5459
  633TIP3    H223315   2.718   0.779   5.177 -0.5243 -0.3014 -1.7629
  634TIP3   OH223316   2.132   2.761  15.504  0.2846  0.4195 -0.6459
  634TIP3    H123317   2.123   2.856  15.494 -0.1021  0.3191 -1.2966
  634TIP3    H223318   2.190   2.735  15.433  1.4632  0.3359  0.3189
  635TIP3   OH223319   1.179   5.719  13.423 -0.0742  0.1302 -0.2767
  635TIP3    H123320   1.246   5.731  13.490  1.3243  1.0893 -1.7456
  635TIP3    H223321   1.229   5.696  13.344 -1.4357  1.3406 -1.5416
  636TIP3   OH223322   5.580   5.616   4.174 -0.3970 -0.1563 -0.3457
  636TIP3    H123323   5.543   5.538   4.133 -1.3642 -0.6626  1.4195
  636TIP3    H223324   5.507   5.656   4.220  0.1255  1.7235 -1.0520
  637TIP3   OH223325   3.156   5.276  16.322  0.1017 -0.4050 -0.4024
  637TIP3    H123326   3.095   5.208  16.351 -0.6501 -0.3468 -1.7493
  637TIP3    H223327   3.218   5.229  16.265  0.8566 -0.3256  0.3373
  638TIP3   OH223328   3.860   5.986   0.036 -0.3407 -0.3367  0.5519
  638TIP3    H123329   3.872   6.081   0.028 -0.4942 -0.2202  1.5301
  638TIP3    H223330   3.947   5.949   0.020 -0.7753 -0.2621 -2.5207
  639TIP3   OH223331   2.542   0.316  13.655 -0.1430 -0.1412 -0.0465
  639TIP3    H123332   2.537   0.220  13.653  0.7662 -0.2030  0.2497
  639TIP3    H223333   2.498   0.344  13.575 -1.4869 -0.7524  0.4516
  640TIP3   OH223334   5.947   3.511  12.704  0.1098  0.5746 -0.4118
  640TIP3    H123335   5.868   3.510  12.651 -0.0106 -0.6483 -0.2221
  640TIP3    H223336   5.923   3.469  12.786  0.8422  0.5619 -0.1900
  641TIP3   OH223337   0.180   3.798  16.218  0.6436 -0.1186 -0.2350
  641TIP3    H123338   0.216   3.710  16.232 -0.9347 -0.7463  0.1392
  641TIP3    H223339   0.094   3.795  16.259 -0.0378  1.1683 -1.4857
  642TIP3   OH223340   2.986   2.092  16.705  0.0318  0.7200 -0.0117
  642TIP3    H123341   2.964   1.999  16.712 -1.4928  0.8701 -1.7313
  642TIP3    H223342   3.073   2.094  16.665  0.0215  0.0152 -0.0752
  643TIP3   OH223343   6.324   5.549  11.337  0.1348  0.8706 -0.2648
  643TIP3    H123344   6.297   5.484  11.272 -1.5529  0.1521  1.0418
  643TIP3    H223345   6.358   5.622  11.286  2.0453 -0.9706 -1.8097
  644TIP3   OH223346   5.154   4.354   0.621 -0.2295  0.2237 -0.0093
  644TIP3    H123347   5.090   4.290   0.588 -1.1089  0.4343  1.2046
  644TIP3    H223348   5.123   4.375   0.709  1.4919  0.4003  0.5836
  645TIP3   OH223349   4.792   0.343   1.702 -0.4673 -0.5479 -0.4416
  645TIP3    H123350   4.728   0.323   1.633  0.2030  1.2304 -1.6597
  645TIP3    H223351   4.876   0.347   1.656  0.1778 -0.5320  0.7049
  646TIP3   OH223352   3.562   1.105   3.165 -0.0262  0.5315  0.6838
  646TIP3    H123353   3.516   1.023   3.146 -1.2450  1.4299 -0.4964
  646TIP3    H223354   3.493   1.164   3.196  0.7063  1.3005  0.8785
  647TIP3   OH223355   2.892   2.432  16.330  0.3399  0.3687 -0.0336
  647TIP3    H123356   2.967   2.432  16.270  0.6751  0.5049  0.3832
  647TIP3    H223357   2.929   2.459  16.414 -0.4184  1.7174 -0.1141
  648TIP3   OH223358   1.945   0.643   3.374 -0.0681  0.5119  0.3018
  648TIP3    H123359   2.031   0.650   3.416 -0.0725  0.4696  0.3181
  648TIP3    H223360   1.952   0.566   3.318 -0.2756  0.1819  0.7283
  649TIP3   OH223361   4.783   3.434  11.416 -0.6299  0.3857  0.1822
  649TIP3    H123362   4.740   3.516  11.442 -0.8831  0.6156 -0.8909
  649TIP3    H223363   4.807   3.392  11.498 -1.5177  1.0041  0.7806
  650TIP3   OH223364   0.114   3.400   6.302 -0.5766  0.1738 -0.0342
  650TIP3    H123365   0.189   3.429   6.249  1.5146 -1.1568  2.0215
  650TIP3    H223366   0.051   3.472   6.295  0.9509  1.4591 -1.6667
  651TIP3   OH223367   2.945   5.782   2.406 -0.3655 -0.0348  0.2710
  651TIP3    H123368   2.924   5.859   2.459 -1.5690 -0.6976  0.7980
  651TIP3    H223369   3.003   5.815   2.337 -0.2608  1.1913  0.9194
  652TIP3   OH223370   3.716   2.973  12.180 -0.1589 -0.5322 -0.3643
  652TIP3    H123371   3.798   2.932  12.208  0.6724  1.3422  0.1278
  652TIP3    H223372   3.711   3.054  12.231 -2.2201 -0.4956 -0.5554
  653TIP3   OH223373   4.643   0.986  15.545  0.5883  0.0160 -0.5130
  653TIP3    H123374   4.561   0.944  15.520 -0.0633  1.4189 -0.8171
  653TIP3    H223375   4.642   0.986  15.640  0.3918 -0.2512 -0.5133
  654TIP3   OH223376   2.806   1.666  14.800 -0.1103 -0.9577  0.3452
  654TIP3    H123377   2.892   1.634  14.774  0.7684  0.2392  1.6090
  654TIP3    H223378   2.819   1.760  14.814 -1.2586 -0.9970  1.9278
  655TIP3   OH223379   1.422   1.517   5.559  0.4524  0.6608 -0.1809
  655TIP3    H123380   1.436   1.469   5.477 -0.6725  0.6050 -0.3630
  655TIP3    H223381   1.441   1.454   5.628 -3.4946 -1.0564 -0.3649
  656TIP3   OH223382   1.590   5.015   4.518  0.2701 -0.2055  0.4776
  656TIP3    H123383   1.602   5.110   4.514  1.5440 -0.3148  1.1118
  656TIP3    H223384   1.533   4.994   4.444 -2.1236  1.3288  1.7627
  657TIP3   OH223385   3.660   3.243   1.194 -0.2489  0.1897 -0.1102
  657TIP3    H123386   3.661   3.318   1.254 -1.7187  0.0829  0.0807
  657TIP3    H223387   3.629   3.279   1.111  1.1372  0.2036 -0.6415
  658TIP3   OH223388   5.133   0.304   4.358 -0.6241  0.0428 -0.1295
  658TIP3    H123389   5.073   0.319   4.431  0.7195  0.6863  0.8835
  658TIP3    H223390   5.219   0.327   4.393  0.6023 -3.1883 -0.7529
  659TIP3   OH223391   2.205   3.828  12.549 -0.4294 -0.5192 -0.2363
  659TIP3    H123392   2.116   3.838  12.582 -0.7403 -0.8309 -0.9633
  659TIP3    H223393   2.229   3.915  12.517 -0.2192 -0.2749  0.5392
  660TIP3   OH223394   3.902   1.744   1.892 -0.1529  0.3308  0.1481
  660TIP3    H123395   3.853   1.760   1.811  1.4144 -0.9647 -1.1274
  660TIP3    H223396   3.994   1.760   1.868  0.3846 -0.4679  1.5656
  661TIP3   OH223397   0.150   3.378   0.037  0.5990  0.0684  0.0489
  661TIP3    H123398   0.191   3.352  -0.045  0.8937  0.2269  0.1458
  661TIP3    H223399   0.056   3.378   0.018  0.6313 -0.4572 -0.1260
  662TIP3   OH223400   2.687   2.213  16.408  0.4132  0.0457 -0.4626
  662TIP3    H123401   2.740   2.288  16.379  0.1955  0.5156  0.3299
  662TIP3    H223402   2.744   2.138  16.395  0.9104  0.4363 -0.5793
  663TIP3   OH223403   6.664   6.569  12.265  0.2841 -0.4733 -0.1570
  663TIP3    H123404   6.606   6.643  12.249  0.6284  0.0902  1.0939
  663TIP3    H223405   6.623   6.520  12.336  1.3074 -0.0887  0.7160
  664TIP3   OH223406   6.103   6.525  16.000  0.2376 -0.1570  0.1268
  664TIP3    H123407   6.071   6.439  16.027  0.5824 -0.4966 -0.5015
  664TIP3    H223408   6.044   6.552  15.930  1.7858 -1.2238 -1.7180
  665TIP3   OH223409   2.784   3.867   6.686 -0.1628 -0.0969 -0.1148
  665TIP3    H123410   2.875   3.842   6.669 -0.2945 -0.3200 -0.5093
  665TIP3    H223411   2.775   3.955   6.649 -0.3302 -0.4072 -0.8333
  666TIP3   OH223412   4.663   3.891   0.185  0.2164 -0.1456  0.4998
  666TIP3    H123413   4.630   3.898   0.095  0.0920 -0.6043  0.5032
  666TIP3    H223414   4.698   3.977   0.205  0.5849 -0.1425 -0.1232
  667TIP3   OH223415   4.574   3.476   4.708  0.0637 -0.6034 -0.3611
  667TIP3    H123416   4.669   3.482   4.722 -0.2456  0.5905  1.5037
  667TIP3    H223417   4.548   3.398   4.758  0.0288 -0.8258 -0.7240
  668TIP3   OH223418   1.260   3.577  11.328 -0.0487 -0.0860 -0.2138
  668TIP3    H123419   1.222   3.650  11.377 -1.6384  0.4330 -2.0781
  668TIP3    H223420   1.341   3.557  11.374 -0.5596  1.5306  1.5320
  669TIP3   OH223421   4.331   2.947  15.833 -0.6512 -0.1339 -0.0406
  669TIP3    H123422   4.318   2.900  15.916 -1.0956 -0.3080 -0.2086
  669TIP3    H223423   4.243   2.957  15.797 -0.3236 -1.4779 -1.2769
  670TIP3   OH223424   0.066   3.740   3.010  0.0709  0.2668 -0.1151
  670TIP3    H123425   0.064   3.724   2.916 -0.4936  0.0493 -0.0754
  670TIP3    H223426   0.030   3.828   3.021  2.4284  1.3210 -0.2714
  671TIP3   OH223427   5.612   2.498   2.834 -0.2103  0.1148  0.2958
  671TIP3    H123428   5.660   2.416   2.823 -2.3321 -1.2945  1.0653
  671TIP3    H223429   5.520   2.474   2.827 -0.8951  2.5310  0.0405
  672TIP3   OH223430   6.639   4.403  17.161  0.6735  0.1153 -0.2984
  672TIP3    H123431   6.594   4.337  17.109 -0.4914  0.7702 -0.1573
  672TIP3    H223432   6.732   4.390  17.141  0.6414 -2.4870  0.8192
  673TIP3   OH223433   5.692   4.473   2.875 -0.3076  0.2763 -0.0965
  673TIP3    H123434   5.743   4.541   2.832  2.2106 -1.0569  0.5453
  673TIP3    H223435   5.676   4.408   2.806  0.9810 -0.3805  0.1772
  674TIP3   OH223436   6.641   2.079  13.170 -0.1605  0.0072  0.0525
  674TIP3    H123437   6.693   2.076  13.090 -1.1754  0.3476 -0.6496
  674TIP3    H223438   6.697   2.040  13.237  1.7400  2.0446 -0.2255
  675TIP3   OH223439   4.172   3.530   1.242 -0.1153 -0.1450 -0.1064
  675TIP3    H123440   4.179   3.567   1.330  1.4906 -1.6205  0.4352
  675TIP3    H223441   4.164   3.607   1.185 -0.3176  0.8715  1.2319
  676TIP3   OH223442   3.542   3.470  13.716 -0.0860 -0.7448  0.1313
  676TIP3    H123443   3.509   3.402  13.658  0.0027  0.0949 -0.9296
  676TIP3    H223444   3.465   3.523  13.738  0.0337 -0.5437  0.0719
  677TIP3   OH223445   6.086   4.879  16.109  0.9027  0.6473 -0.8464
  677TIP3    H123446   6.021   4.949  16.100  1.0047  0.7451 -0.8281
  677TIP3    H223447   6.122   4.869  16.020 -0.6129 -0.8546 -1.3468
  678TIP3   OH223448   0.852   3.081   4.732  0.5524 -0.2843  0.0883
  678TIP3    H123449   0.775   3.114   4.779  0.9880 -0.3753  0.8983
  678TIP3    H223450   0.831   2.990   4.712 -0.4600  0.2990 -1.7308
  679TIP3   OH223451   0.268   6.365  10.530 -0.5169  0.1510  0.4337
  679TIP3    H123452   0.316   6.309  10.469 -0.2999 -0.6689  1.3376
  679TIP3    H223453   0.196   6.400  10.478  0.3053  0.3896 -0.6014
  680TIP3   OH223454   3.370   1.477   5.535 -0.6138 -0.7444 -0.7330
  680TIP3    H123455   3.400   1.567   5.526 -0.5849 -0.8963 -2.4885
  680TIP3    H223456   3.425   1.440   5.604 -1.4671  0.9011  0.8989
  681TIP3   OH223457   5.876   3.930   1.177  0.7120  0.2583  0.2724
  681TIP3    H123458   5.899   3.952   1.087  0.8192  0.6339  0.3932
  681TIP3    H223459   5.844   3.840   1.171  0.1193  0.4916 -0.2437
  682TIP3   OH223460   2.843   2.617   5.639 -0.2488  0.5171  0.1258
  682TIP3    H123461   2.815   2.671   5.564 -1.5062 -0.0576  0.1485
  682TIP3    H223462   2.935   2.638   5.650  0.1415  0.1507 -1.9811
  683TIP3   OH223463   2.494   4.715   1.541 -0.0645  0.5646 -0.3604
  683TIP3    H123464   2.573   4.735   1.491 -0.1834 -0.3236 -0.9257
  683TIP3    H223465   2.519   4.729   1.632  1.2254 -1.1869 -0.4057
  684TIP3   OH223466   4.729   0.922  15.304 -0.5018 -0.2009  0.0904
  684TIP3    H123467   4.716   0.959  15.391 -1.8209 -0.3481 -0.0248
  684TIP3    H223468   4.660   0.961  15.251 -0.7551 -1.3800 -0.4802
  685TIP3   OH223469   2.536   1.965   3.040  0.4135  0.1868 -0.0010
  685TIP3    H123470   2.530   1.955   2.945 -0.1603  2.1362 -0.2063
  685TIP3    H223471   2.469   2.030   3.061  0.6949 -0.0535  1.7125
  686TIP3   OH223472   1.894   2.322  15.130  0.1795  0.4022 -0.1932
  686TIP3    H123473   1.953   2.344  15.202  0.0297 -0.2251  0.1262
  686TIP3    H223474   1.896   2.399  15.073 -0.4391  1.2874  0.9432
  687TIP3   OH223475   5.518   2.454  12.537 -0.5803 -0.3791  0.3887
  687TIP3    H123476   5.614   2.458  12.533 -0.6601  1.8059 -1.2201
  687TIP3    H223477   5.491   2.427  12.450 -1.4457 -0.4588  0.6765
  688TIP3   OH223478   5.194   3.082  11.609 -0.0816  0.1898  0.0362
  688TIP3    H123479   5.161   3.013  11.667  1.9530 -0.2885  0.6963
  688TIP3    H223480   5.132   3.083  11.536 -1.9152 -0.1497  1.5105
  689TIP3   OH223481   1.771   2.717  14.155 -0.2350  1.0093  0.2382
  689TIP3    H123482   1.733   2.633  14.131 -1.3148  1.8885 -1.3710
  689TIP3    H223483   1.857   2.696  14.190 -1.1934 -0.8836  1.6511
  690TIP3   OH223484   4.290   4.991  12.144 -0.0901  0.2901 -0.0073
  690TIP3    H123485   4.201   5.027  12.136  0.0663  0.9223  0.9289
  690TIP3    H223486   4.318   4.976  12.054 -1.9557 -1.9903 -0.2974
  691TIP3   OH223487   1.905   0.373   1.421  0.1946  0.2097  0.5651
  691TIP3    H123488   1.827   0.337   1.463 -0.0231 -0.8342 -0.6611
  691TIP3    H223489   1.891   0.468   1.420 -1.5542 -0.0117 -0.5258
  692TIP3   OH223490   0.574   4.290   4.986 -0.2342  0.1273 -0.1784
  692TIP3    H123491   0.575   4.290   5.082  2.3100  1.6939 -0.0962
  692TIP3    H223492   0.587   4.198   4.962  0.3477 -0.1301  1.0347
  693TIP3   OH223493   5.960   5.143  13.383 -0.2057  0.1117 -0.8422
  693TIP3    H123494   5.963   5.169  13.475 -1.0013 -1.3303 -0.3819
  693TIP3    H223495   6.032   5.191  13.342  0.3248  0.5678  0.5855
  694TIP3   OH223496   3.012   6.543   3.788  0.4371 -0.1581 -0.3808
  694TIP3    H123497   2.959   6.607   3.740 -0.4261  2.0109  3.1108
  694TIP3    H223498   2.952   6.469   3.802 -1.1743  1.4001  1.7042
  695TIP3   OH223499   0.777   4.479  15.735  0.3754  0.3438 -0.1702
  695TIP3    H123500   0.861   4.482  15.688  1.3166  1.6961  1.4945
  695TIP3    H223501   0.786   4.545  15.804 -1.0808 -1.3267  1.7007
  696TIP3   OH223502   2.724   0.513  12.661 -0.0957 -0.5801 -0.1624
  696TIP3    H123503   2.693   0.431  12.623 -1.6064 -1.3025  2.3362
  696TIP3    H223504   2.808   0.491  12.701 -0.0021 -0.6250 -0.3827
  697TIP3   OH223505   1.933   5.108   5.623 -0.5838  0.0741 -0.5444
  697TIP3    H123506   1.894   5.050   5.688 -0.7453 -0.2849 -0.9567
  697TIP3    H223507   1.879   5.187   5.626  1.4991  1.5540  2.2855
  698TIP3   OH223508   0.964   4.977  12.715  0.1158  0.2646  0.5339
  698TIP3    H123509   0.870   4.958  12.712  0.0218  0.8037 -0.0802
  698TIP3    H223510   0.979   5.040  12.645  1.2165 -0.9793 -0.4001
  699TIP3   OH223511   1.333   2.153  12.587  0.6348 -0.3689 -0.4995
  699TIP3    H123512   1.399   2.098  12.629  0.8169 -0.2824 -0.6737
  699TIP3    H223513   1.377   2.237  12.573  0.5104 -0.3332 -0.6808
  700TIP3   OH223514   2.560   3.891   0.079 -0.0848  0.1850  0.3893
  700TIP3    H123515   2.545   3.898  -0.015  0.8359  0.6624  0.2602
  700TIP3    H223516   2.550   3.980   0.112  2.3324  0.5626  0.2801
  701TIP3   OH223517   1.794   3.280   0.560  0.1563  0.1964 -0.1322
  701TIP3    H123518   1.742   3.201   0.568 -0.2068  0.3015 -1.2511
  701TIP3    H223519   1.883   3.249   0.542  0.5783  0.0124  1.9804
  702TIP3   OH223520   5.795   6.075   2.435  0.1008 -0.5188 -0.0196
  702TIP3    H123521   5.748   6.091   2.517  1.7299 -0.7182  0.9782
  702TIP3    H223522   5.763   6.143   2.375  0.3360  0.8743  1.3829
  703TIP3   OH223523   3.782   0.692  12.226 -0.1921 -0.2877 -0.1650
  703TIP3    H123524   3.837   0.711  12.150  1.4597 -0.0011  1.0449
  703TIP3    H223525   3.786   0.772  12.279  1.8431 -1.7338  2.0349
  704TIP3   OH223526   0.568   3.998   4.416  0.0024 -0.3709  0.2981
  704TIP3    H123527   0.643   4.038   4.462  0.0576 -0.5543  0.3699
  704TIP3    H223528   0.537   4.067   4.357 -0.6400  0.1962  1.2588
  705TIP3   OH223529   1.270   6.310  11.298 -0.5296 -0.0393 -0.4431
  705TIP3    H123530   1.363   6.308  11.276 -0.1668 -0.1197  0.9673
  705TIP3    H223531   1.235   6.229  11.261  0.1716 -0.4669 -0.1929
  706TIP3   OH223532   1.287   0.231   2.721 -0.8609  0.2789  0.1820
  706TIP3    H123533   1.266   0.144   2.754  1.0174 -0.5193 -0.6004
  706TIP3    H223534   1.280   0.223   2.626  0.1377  0.7335  0.0571
  707TIP3   OH223535   5.693   1.272   4.164 -0.0987 -0.8484 -0.1525
  707TIP3    H123536   5.716   1.340   4.228  2.7404 -2.3038  0.5251
  707TIP3    H223537   5.721   1.307   4.080 -0.6197 -0.3418 -0.1212
  708TIP3   OH223538   2.223   0.047   3.479 -0.5415 -0.6178 -0.9065
  708TIP3    H123539   2.288  -0.003   3.430 -0.6149  0.5220 -2.2209
  708TIP3    H223540   2.173   0.094   3.413 -0.9966  0.5658  0.2288
  709TIP3   OH223541   4.904   5.464  14.791 -0.1269 -0.6271  0.4302
  709TIP3    H123542   4.814   5.452  14.821  0.4271 -2.6727  1.4604
  709TIP3    H223543   4.952   5.491  14.869  0.3918 -0.8985  0.2102
  710TIP3   OH223544   2.173   4.537  17.095 -0.9155  0.0658  0.3410
  710TIP3    H123545   2.143   4.582  17.016 -0.3393  0.2873  0.2470
  710TIP3    H223546   2.092   4.521  17.145 -1.3114 -0.3228 -0.4141
  711TIP3   OH223547   0.503   3.155  14.664  0.6021 -0.1185 -0.1099
  711TIP3    H123548   0.428   3.198  14.706  1.9998  1.4009  0.9476
  711TIP3    H223549   0.482   3.062  14.669 -0.2090  0.1043  2.2500
  712TIP3   OH223550   6.313   5.258  16.576 -0.3165  0.0417  0.0443
  712TIP3    H123551   6.368   5.258  16.654 -1.6388  0.0370  1.0161
  712TIP3    H223552   6.375   5.254  16.503  0.9862  0.9966  1.0474
  713TIP3   OH223553   5.457   2.642  13.393 -0.0969 -0.1983 -0.1209
  713TIP3    H123554   5.454   2.625  13.299  1.6243  1.6667 -0.5782
  713TIP3    H223555   5.401   2.718  13.406  1.6631  1.1725 -0.1262
  714TIP3   OH223556   4.584   5.934   2.209 -0.4625 -0.4307 -0.0681
  714TIP3    H123557   4.586   5.839   2.213 -1.4847 -0.6366 -2.6133
  714TIP3    H223558   4.505   5.959   2.258 -1.2724 -1.0802 -0.9961
  715TIP3   OH223559   6.472   2.905   4.149  0.0109 -0.6358  0.2936
  715TIP3    H123560   6.551   2.954   4.171  0.5776 -0.9600 -0.9468
  715TIP3    H223561   6.499   2.844   4.081 -1.5905  0.2475 -1.2421
  716TIP3   OH223562   2.846   5.137   1.679 -0.1979  0.0300  0.8676
  716TIP3    H123563   2.928   5.182   1.702 -1.1118  1.3343  1.7173
  716TIP3    H223564   2.796   5.203   1.631 -0.1787 -1.2286 -0.9710
  717TIP3   OH223565   2.588   1.508  16.083 -0.2159  0.2485  0.2925
  717TIP3    H123566   2.669   1.556  16.104  0.6844 -1.2973  0.4897
  717TIP3    H223567   2.558   1.473  16.167  0.0509 -0.8816 -0.0659
  718TIP3   OH223568   2.502   4.150   3.982 -0.1555  0.1747 -0.2593
  718TIP3    H123569   2.423   4.142   4.034  0.2146  0.0426  0.2931
  718TIP3    H223570   2.521   4.061   3.953 -0.9272  0.3861 -1.4964
  719TIP3   OH223571   6.364   0.626   3.968  0.5772 -0.2139  0.1047
  719TIP3    H123572   6.398   0.696   3.912 -0.4194  1.9521  2.0255
  719TIP3    H223573   6.301   0.580   3.913  0.8093  0.7971 -1.0537
  720TIP3   OH223574   4.431   2.479   2.131  0.6992 -0.1614  0.1599
  720TIP3    H123575   4.355   2.489   2.189  2.6650 -1.4178  3.2368
  720TIP3    H223576   4.458   2.388   2.143  3.7756  0.7042  0.7333
  721TIP3   OH223577   0.264   6.112   2.489 -0.3951  0.3038 -0.7236
  721TIP3    H123578   0.243   6.033   2.539 -0.5230  0.0453 -1.1776
  721TIP3    H223579   0.232   6.184   2.543  0.4834  0.1019  0.0955
  722TIP3   OH223580   3.852   4.729  13.202 -0.7067 -0.0773  0.4566
  722TIP3    H123581   3.784   4.711  13.267 -0.7943 -0.1267  0.3509
  722TIP3    H223582   3.933   4.698  13.243 -0.7414  0.0168  0.5981
  723TIP3   OH223583   4.225   6.654   2.116  0.4362  0.8152  0.0520
  723TIP3    H123584   4.227   6.664   2.211  1.2620  0.4314  0.0867
  723TIP3    H223585   4.134   6.634   2.096  0.5586 -0.8123  0.9543
  724TIP3   OH223586   0.126   3.835   3.722 -0.3137 -0.5050 -0.2864
  724TIP3    H123587   0.123   3.772   3.649 -1.4547  0.1953 -0.8899
  724TIP3    H223588   0.034   3.847   3.745 -0.2512  1.8902 -1.0524
  725TIP3   OH223589   4.471   2.995  16.946 -0.0757 -0.4907 -0.0329
  725TIP3    H123590   4.528   2.918  16.944 -0.4006 -0.7269 -0.2977
  725TIP3    H223591   4.401   2.971  17.006  0.1091 -0.1964  0.2981
  726TIP3   OH223592   0.688   1.715  12.457  0.0129 -0.3094 -0.3937
  726TIP3    H123593   0.755   1.782  12.469 -0.6269 -0.2022  4.2630
  726TIP3    H223594   0.614   1.762  12.418  1.3355  0.3735 -2.1903
  727TIP3   OH223595   3.723   0.689   2.705 -0.4478 -0.2680 -0.1443
  727TIP3    H123596   3.740   0.682   2.799  2.4030  1.1152 -0.4514
  727TIP3    H223597   3.797   0.740   2.671 -1.7873 -0.0660 -3.0388
  728TIP3   OH223598   6.127   0.355  17.215 -0.4221 -0.1685 -0.1285
  728TIP3    H123599   6.050   0.383  17.265 -0.5283  1.1516 -0.9731
  728TIP3    H223600   6.169   0.290  17.270 -1.3558  0.1473  1.0032
  729TIP3   OH223601   2.442   2.603   4.041 -0.6135  0.1487  0.0588
  729TIP3    H123602   2.389   2.544   4.096 -2.0997  0.9956 -0.3919
  729TIP3    H223603   2.387   2.619   3.965  0.7778  0.2318 -0.9562
  730TIP3   OH223604   1.729   2.576   5.972  0.0914 -0.4292  0.3567
  730TIP3    H123605   1.670   2.506   6.001 -0.6161  0.7409  1.8667
  730TIP3    H223606   1.813   2.554   6.012 -0.2450 -0.1879  1.2148
  731TIP3   OH223607   5.032   4.690  13.356  0.0071 -0.0835  0.3950
  731TIP3    H123608   4.996   4.715  13.271  1.3366 -1.1118 -0.5092
  731TIP3    H223609   4.995   4.754  13.417 -0.4049  1.1303 -1.0569
  732TIP3   OH223610   4.371   2.422   3.430 -0.3813  0.0504 -0.3478
  732TIP3    H123611   4.449   2.437   3.484 -1.1517 -0.3831  0.9240
  732TIP3    H223612   4.304   2.395   3.492 -1.3151 -0.4435 -1.5376
  733TIP3   OH223613   5.275   3.073   3.882  0.4186 -0.9084 -0.0504
  733TIP3    H123614   5.257   3.018   3.806 -1.5705 -2.1580  1.2552
  733TIP3    H223615   5.233   3.157   3.862 -1.7611 -1.8375  0.3841
  734TIP3   OH223616   1.995   4.664  15.166 -0.5672 -0.0940  0.2030
  734TIP3    H123617   1.997   4.613  15.247 -0.3317  0.4921  0.5697
  734TIP3    H223618   2.018   4.601  15.098 -1.4444 -0.7636  0.4957
  735TIP3   OH223619   1.147   0.267  15.003  0.3491  0.2365  0.5281
  735TIP3    H123620   1.196   0.349  15.017  0.4713  0.2416  0.1004
  735TIP3    H223621   1.208   0.211  14.956  0.1257  0.0493  0.4594
  736TIP3   OH223622   3.300   4.915  13.598 -0.0491  0.0150  0.0768
  736TIP3    H123623   3.347   4.833  13.615  1.3323  1.1604  2.3112
  736TIP3    H223624   3.362   4.968  13.549 -0.8154 -0.1206 -1.0695
  737TIP3   OH223625   5.948   2.463  17.087  0.2260  0.2746 -0.2297
  737TIP3    H123626   5.997   2.413  17.022 -1.3728  0.0880 -1.3375
  737TIP3    H223627   6.009   2.473  17.160  1.0115 -2.2160 -0.4568
  738TIP3   OH223628   3.926   0.307  15.573  0.6671  0.0193 -0.3232
  738TIP3    H123629   3.995   0.349  15.521  1.4957 -1.6628 -0.6478
  738TIP3    H223630   3.846   0.325  15.524  0.7467  2.3634  0.2729
  739TIP3   OH223631   1.075   3.045  13.131 -0.0184  0.2130  0.1886
  739TIP3    H123632   1.015   3.065  13.059 -0.1436 -0.3627  0.1271
  739TIP3    H223633   1.089   2.951  13.125  0.4081  0.2462  0.5829
  740TIP3   OH223634   5.485   3.943  17.147 -0.1439  0.3818 -0.3574
  740TIP3    H123635   5.529   3.867  17.108  0.2190  0.6837 -0.5358
  740TIP3    H223636   5.411   3.960  17.087 -0.5074 -0.1164 -0.0611
  741TIP3   OH223637   4.084   4.688  15.984 -0.1470  0.3461 -0.3515
  741TIP3    H123638   4.024   4.761  15.966 -0.5073  0.3185  0.6323
  741TIP3    H223639   4.037   4.635  16.050  0.2162 -0.6356 -0.8627
  742TIP3   OH223640   2.471   3.282  12.117 -0.0139  0.4573 -0.4739
  742TIP3    H123641   2.386   3.292  12.076 -1.3901  1.7782  2.3965
  742TIP3    H223642   2.533   3.322  12.056 -1.4462 -0.1636 -2.4244
  743TIP3   OH223643   5.491   5.185   0.849 -0.4972  0.1114  0.1483
  743TIP3    H123644   5.455   5.248   0.911 -2.2435  2.5598 -3.0730
  743TIP3    H223645   5.578   5.217   0.829 -0.0171 -0.5588  1.0819
  744TIP3   OH223646   0.677   1.910  15.112  0.3267 -0.5021 -0.2526
  744TIP3    H123647   0.632   1.946  15.036  0.7619  0.1856 -0.1919
  744TIP3    H223648   0.617   1.844  15.146 -1.1574  1.1422  0.4998
  745TIP3   OH223649   1.776   1.346  15.652  0.0427 -0.1588  0.3064
  745TIP3    H123650   1.850   1.367  15.708  1.3954  0.3447 -1.5870
  745TIP3    H223651   1.810   1.280  15.591 -1.4486 -0.8764  0.2008
  746TIP3   OH223652   3.803   2.654   6.504  0.6283 -0.3930  0.2240
  746TIP3    H123653   3.883   2.629   6.550  2.0975  0.0538 -1.9200
  746TIP3    H223654   3.816   2.746   6.480 -0.8810 -0.0749  0.4716
  747TIP3   OH223655   2.663   1.928  13.409 -0.0849 -0.3175 -0.3349
  747TIP3    H123656   2.680   1.898  13.320 -0.1793  0.7170 -0.7098
  747TIP3    H223657   2.613   2.008  13.399 -2.3089 -1.4955  0.7058
  748TIP3   OH223658   4.141   6.638  16.467 -0.4700  0.1098 -0.4293
  748TIP3    H123659   4.074   6.592  16.518 -0.7604  1.1329  0.1472
  748TIP3    H223660   4.154   6.584  16.389 -0.7775 -0.9469  0.2327
  749TIP3   OH223661   2.645   3.384  10.758  0.1075  0.5719  0.3713
  749TIP3    H123662   2.664   3.293  10.779  1.2394  0.8639  0.6576
  749TIP3    H223663   2.550   3.386  10.744 -0.2477 -0.2538  2.3448
  750TIP3   OH223664   5.917   4.834   2.230  0.2002  0.1480  0.1019
  750TIP3    H123665   5.968   4.758   2.202 -0.4319 -1.6654  3.2975
  750TIP3    H223666   5.829   4.819   2.194  0.0108 -0.8724  0.9298
  751TIP3   OH223667   5.506   6.703   0.952 -0.2418 -0.8435 -0.2287
  751TIP3    H123668   5.576   6.690   1.016  0.7535 -0.1931 -1.1521
  751TIP3    H223669   5.425   6.696   1.003  0.4254 -2.9209  0.6502
  752TIP3   OH223670   0.004   0.872   4.451  0.1122  0.1359  0.0373
  752TIP3    H123671  -0.002   0.786   4.409  3.0381 -0.4355  0.5815
  752TIP3    H223672   0.090   0.873   4.492  0.3691  3.5242 -0.2960
  753TIP3   OH223673   0.882   4.313  15.174 -0.1786 -0.0432  0.4649
  753TIP3    H123674   0.868   4.373  15.246 -1.4748  0.5396 -0.2363
  753TIP3    H223675   0.804   4.322  15.119  0.9322 -0.1753 -1.2137
  754TIP3   OH223676   3.778   6.339   4.513 -0.0008  0.4738 -0.7265
  754TIP3    H123677   3.712   6.277   4.544  0.2370  0.5309 -0.0951
  754TIP3    H223678   3.759   6.348   4.420 -1.4097  1.1156 -0.4134
  755TIP3   OH223679   3.750   5.731  15.468  0.4530  0.6359  0.2205
  755TIP3    H123680   3.658   5.754  15.453 -0.6984 -3.5267 -0.4650
  755TIP3    H223681   3.770   5.767  15.554 -1.6996  1.9297  0.2697
  756TIP3   OH223682   0.635   0.616   6.539  0.3422  0.1791  0.0001
  756TIP3    H123683   0.711   0.650   6.490 -0.4696 -0.8214 -2.0827
  756TIP3    H223684   0.559   0.655   6.496 -0.4145 -0.7348  0.4711
  757TIP3   OH223685   2.410   5.758  15.898  0.0197  0.6484 -0.3771
  757TIP3    H123686   2.398   5.790  15.809  0.5746 -0.7631 -0.9969
  757TIP3    H223687   2.419   5.837  15.952 -0.2689  1.5156 -1.5755
  758TIP3   OH223688   2.020   5.478   1.826 -0.4806  0.6666 -0.2444
  758TIP3    H123689   1.989   5.411   1.764 -0.0219  0.6429 -0.4490
  758TIP3    H223690   1.963   5.468   1.902 -0.2016 -0.1844 -0.1358
  759TIP3   OH223691   4.205   4.146  17.219  0.0870 -0.5759 -0.1252
  759TIP3    H123692   4.207   4.051  17.229 -1.8006 -0.5769  0.6518
  759TIP3    H223693   4.151   4.162  17.142  1.4519 -0.1173 -1.0398
  760TIP3   OH223694   2.252   2.605  15.965  0.0180  0.2499 -0.0673
  760TIP3    H123695   2.181   2.623  16.026 -0.0198  0.4594 -0.1756
  760TIP3    H223696   2.275   2.690  15.928 -0.6251 -0.0083 -1.0878
  761TIP3   OH223697   4.797   3.226   0.391  0.2524 -0.2347  0.2034
  761TIP3    H123698   4.844   3.230   0.308  0.2879 -0.6583  0.2045
  761TIP3    H223699   4.711   3.191   0.368  0.5333 -1.0981  0.4678
  762TIP3   OH223700   5.246   0.372   0.563  0.1461  0.0302 -0.5377
  762TIP3    H123701   5.199   0.449   0.594 -0.3183  0.4541 -2.1918
  762TIP3    H223702   5.305   0.349   0.635 -0.8094  0.9887  0.5899
  763TIP3   OH223703   5.938   1.236  12.252  0.1335  0.1508  0.1614
  763TIP3    H123704   5.915   1.279  12.169  1.2665 -0.0340 -0.2605
  763TIP3    H223705   5.860   1.185  12.274  0.1448 -0.5709 -1.3011
  764TIP3   OH223706   5.254   6.165   3.221 -0.3314  0.3400  0.5637
  764TIP3    H123707   5.183   6.146   3.283  0.4027  1.1871  1.7024
  764TIP3    H223708   5.253   6.260   3.213 -0.8388  0.2211 -1.2903
  765TIP3   OH223709   0.926   1.473  13.027  0.0798 -0.0614  0.0156
  765TIP3    H123710   0.924   1.539  13.097  0.1962 -1.9617  1.9200
  765TIP3    H223711   0.834   1.453  13.011  0.0832 -0.7458  0.7877
  766TIP3   OH223712   1.601   2.925   2.543  0.2704  0.4243  0.3673
  766TIP3    H123713   1.665   2.862   2.509 -1.2194 -1.6230  1.1624
  766TIP3    H223714   1.558   2.961   2.466  0.1235 -0.6780 -0.0741
  767TIP3   OH223715   2.047   1.215  12.973 -0.1942  0.2654  0.3176
  767TIP3    H123716   2.055   1.159  12.895 -1.8701 -0.1432  0.3989
  767TIP3    H223717   2.118   1.278  12.964 -0.1485  0.0307 -1.3842
  768TIP3   OH223718   6.099   5.605   2.794  0.2171  0.3419 -0.0000
  768TIP3    H123719   6.095   5.574   2.884 -0.2014  1.0896  0.2404
  768TIP3    H223720   6.116   5.526   2.742 -1.6533 -0.4429  0.5158
  769TIP3   OH223721   4.563   2.163   2.522 -0.5925 -0.2236  0.0551
  769TIP3    H123722   4.644   2.151   2.572  0.2931 -0.9166 -1.4631
  769TIP3    H223723   4.499   2.108   2.566  0.0268 -0.4483  0.6922
  770TIP3   OH223724   6.285   6.654   3.146  0.2109  0.0197 -0.2942
  770TIP3    H123725   6.333   6.681   3.224  0.7453 -0.3497 -0.4849
  770TIP3    H223726   6.280   6.733   3.092  0.2664  0.1583 -0.0957
  771TIP3   OH223727   2.286   0.534  15.878 -0.3409  0.4380 -0.2014
  771TIP3    H123728   2.328   0.594  15.817 -2.2741 -0.0586 -2.1361
  771TIP3    H223729   2.336   0.453  15.872 -0.0643  0.6339 -0.5514
  772TIP3   OH223730   6.739   2.887   2.300 -0.0690 -0.2748  0.0418
  772TIP3    H123731   6.740   2.855   2.390  0.1053 -0.9593 -0.1918
  772TIP3    H223732   6.831   2.897   2.277 -0.1163  0.0443 -0.0121
  773TIP3   OH223733   1.690   1.146   4.051 -0.5316  0.2677 -0.0429
  773TIP3    H123734   1.725   1.077   4.107  1.5120 -0.0328 -1.5722
  773TIP3    H223735   1.618   1.104   4.003  1.6425 -1.4303 -2.0906
  774TIP3   OH223736   1.418   2.397   5.286 -0.3850  0.3076 -0.5418
  774TIP3    H123737   1.441   2.483   5.322 -1.7975  0.8389 -0.8571
  774TIP3    H223738   1.481   2.337   5.327  2.6041  1.8304 -2.5641
  775TIP3   OH223739   0.951   2.052   2.881  0.7115 -0.6192 -0.2877
  775TIP3    H123740   1.013   2.064   2.953  1.2136  1.3106 -0.9617
  775TIP3    H223741   0.992   2.097   2.807  0.6447 -3.3315 -2.0893
  776TIP3   OH223742   2.942   0.064   0.979  0.3299  0.0673  0.7151
  776TIP3    H123743   3.010   0.023   0.925 -0.8008  1.8257 -2.2950
  776TIP3    H223744   2.990   0.106   1.050  2.3410  0.5805 -0.8591
  777TIP3   OH223745   4.924   2.768   2.536 -0.1494  0.1519  0.0706
  777TIP3    H123746   5.004   2.819   2.531 -0.3244  0.6082  1.4355
  777TIP3    H223747   4.948   2.682   2.503  0.4925  0.7264 -0.9975
  778TIP3   OH223748   1.214   5.685  14.990 -0.2805 -0.6903  0.0766
  778TIP3    H123749   1.127   5.690  14.948  0.4106  0.9190 -1.2861
  778TIP3    H223750   1.250   5.602  14.959 -0.5074 -0.3698 -1.1070
  779TIP3   OH223751   2.180   6.189  12.653  0.1424 -0.1483 -0.0696
  779TIP3    H123752   2.266   6.217  12.685 -0.4569  1.4336  0.2266
  779TIP3    H223753   2.127   6.178  12.732  0.2541 -1.8704 -0.1965
  780TIP3   OH223754   4.793   2.138   2.687 -0.0666  0.3790  0.5765
  780TIP3    H123755   4.794   2.194   2.764  1.3242  0.4901  0.5016
  780TIP3    H223756   4.885   2.124   2.666 -0.4095 -0.5238 -0.4346
  781TIP3   OH223757   1.212   0.091   2.165  0.2109 -0.2058  0.8501
  781TIP3    H123758   1.195   0.014   2.111  0.9783 -0.2988  0.7323
  781TIP3    H223759   1.139   0.093   2.227 -0.5987 -0.1773 -0.0897
  782TIP3   OH223760   4.744   1.947  12.087  1.2299  0.0680  0.1150
  782TIP3    H123761   4.726   2.008  12.158  1.6892  1.8478 -1.2467
  782TIP3    H223762   4.828   1.976  12.051  2.4537 -2.5438  0.6036
  783TIP3   OH223763   5.067   4.186  13.986 -0.3689  0.3355 -0.6670
  783TIP3    H123764   5.083   4.121  14.054  1.3542  2.8176  1.4919
  783TIP3    H223765   5.143   4.244  13.990 -1.3221  1.8980 -3.1788
  784TIP3   OH223766   2.773   0.389   3.189  0.3135 -0.2319 -0.6491
  784TIP3    H123767   2.769   0.484   3.180 -0.3863 -0.2021 -0.1136
  784TIP3    H223768   2.780   0.374   3.283 -3.5397 -0.7568 -0.2679
  785TIP3   OH223769   6.416   1.395   4.275 -0.2350  0.0113 -0.6222
  785TIP3    H123770   6.454   1.368   4.358  0.5647 -1.6042 -1.4731
  785TIP3    H223771   6.471   1.353   4.208 -1.0052  1.0511 -1.9779
  786TIP3   OH223772   0.736   2.999   0.156 -0.2781  0.1861  0.9555
  786TIP3    H123773   0.668   2.961   0.212 -0.9327  1.9127  1.3972
  786TIP3    H223774   0.688   3.047   0.089  0.5077  0.7132  0.7581
  787TIP3   OH223775   4.536   4.407   0.095 -0.1254  0.7056  0.0910
  787TIP3    H123776   4.554   4.315   0.115 -2.2414  0.6795  2.3047
  787TIP3    H223777   4.616   4.453   0.119 -0.0169 -0.2652  1.7378
  788TIP3   OH223778   4.746   3.132   3.572 -0.0828 -0.2088 -0.1093
  788TIP3    H123779   4.729   3.041   3.548  0.5702  0.4252 -3.4677
  788TIP3    H223780   4.809   3.162   3.507  1.5595  2.0330  2.3019
  789TIP3   OH223781   4.270   4.875   5.922 -0.0458  0.2553 -0.1417
  789TIP3    H123782   4.275   4.918   5.836  2.2512  0.5669  0.0680
  789TIP3    H223783   4.261   4.782   5.901  1.8307  0.1805 -0.8224
  790TIP3   OH223784   0.491   5.779   1.432  0.2576  0.6869 -0.0059
  790TIP3    H123785   0.563   5.841   1.446  0.9606 -0.1161  0.0070
  790TIP3    H223786   0.513   5.704   1.487 -0.1842  0.1080 -0.6024
  791TIP3   OH223787   3.378   5.999  16.508  0.3192 -0.4763 -0.9153
  791TIP3    H123788   3.344   6.086  16.487  2.3044  0.5751  0.0034
  791TIP3    H223789   3.373   5.951  16.426 -3.0565 -0.3521 -0.9264
  792TIP3   OH223790   4.936   2.542   3.097  0.3027 -0.2558 -0.2890
  792TIP3    H123791   5.016   2.508   3.136  0.6922  0.2337 -0.6546
  792TIP3    H223792   4.963   2.577   3.013 -0.5590 -1.4912 -1.1237
  793TIP3   OH223793   2.832   3.509   1.608  0.1473  0.0953 -0.8161
  793TIP3    H123794   2.752   3.463   1.634 -0.8918  1.3781 -1.6252
  793TIP3    H223795   2.880   3.444   1.556 -1.0566 -0.2578 -1.5343
  794TIP3   OH223796   2.119   5.837  15.070 -0.6065 -0.4668  0.3789
  794TIP3    H123797   2.192   5.897  15.052 -0.9303 -0.4493 -1.0180
  794TIP3    H223798   2.056   5.891  15.118  0.0356 -0.3158  1.0777
  795TIP3   OH223799   6.261   3.247  15.191  0.0897 -0.3753 -0.3362
  795TIP3    H123800   6.195   3.179  15.186 -3.1801  2.6058 -1.9163
  795TIP3    H223801   6.252   3.284  15.279  0.3399 -0.5862 -0.2215
  796TIP3   OH223802   6.542   6.548   4.637 -0.7828 -0.2739  0.2041
  796TIP3    H123803   6.466   6.578   4.586 -1.3045 -1.8033  0.0268
  796TIP3    H223804   6.505   6.489   4.702 -0.1335  1.6588  2.4826
  797TIP3   OH223805   1.350   5.436   6.715 -0.1681 -0.0321 -0.4362
  797TIP3    H123806   1.349   5.393   6.630 -0.1079 -1.0430  0.0629
  797TIP3    H223807   1.437   5.474   6.722  0.4854 -1.5549 -0.0487
  798TIP3   OH223808   6.308   1.505   5.756  0.3361  0.3776 -0.3026
  798TIP3    H123809   6.277   1.426   5.799  1.6595 -0.1166 -0.2028
  798TIP3    H223810   6.260   1.576   5.799  0.2124 -0.2536  0.6290
  799TIP3   OH223811   5.921   2.768   6.101  0.4921 -0.3702 -0.5170
  799TIP3    H123812   5.988   2.802   6.161  2.8542 -3.0709 -1.4156
  799TIP3    H223813   5.852   2.734   6.158  0.3803  1.3885  0.4684
  800TIP3   OH223814   6.085   1.251   4.981 -0.0399  0.1015  0.2836
  800TIP3    H123815   6.161   1.229   5.035  0.3094  1.9373  0.6086
  800TIP3    H223816   6.115   1.237   4.891 -0.0906 -1.3913  0.4762
  801TIP3   OH223817   2.413   0.810   2.824 -0.4168 -0.0696  0.5121
  801TIP3    H123818   2.489   0.763   2.857  0.8486  1.9358  0.6156
  801TIP3    H223819   2.439   0.840   2.737 -0.7482  1.3098  0.8608
  802TIP3   OH223820   3.468   4.054   4.993  0.0376 -0.0708 -0.0381
  802TIP3    H123821   3.517   3.973   4.975 -0.1174 -0.2053  0.1374
  802TIP3    H223822   3.531   4.110   5.039  0.5358  0.3999 -1.2481
  803TIP3   OH223823   1.188   3.662  17.156  0.3840  0.1364 -0.9543
  803TIP3    H123824   1.284   3.662  17.156  0.6258  0.9666  3.8487
  803TIP3    H223825   1.163   3.579  17.197 -0.9563  0.3898 -1.1926
  804TIP3   OH223826   6.264   0.539  11.234 -0.5945 -0.1650  0.2152
  804TIP3    H123827   6.224   0.492  11.307 -0.3364  1.4602  1.4639
  804TIP3    H223828   6.295   0.470  11.175 -2.6675 -1.4913  0.5840
  805TIP3   OH223829   6.173   5.945  11.855  0.4667 -0.2222 -0.2486
  805TIP3    H123830   6.192   5.859  11.818  0.4550 -0.1097 -0.5218
  805TIP3    H223831   6.251   5.997  11.837  0.9884 -0.5328  1.0422
  806TIP3   OH223832   3.639   3.974   2.543 -0.1817 -0.5063  0.1117
  806TIP3    H123833   3.664   4.062   2.514  1.8494 -1.1104 -0.1593
  806TIP3    H223834   3.627   3.925   2.461  2.7991 -1.4848  0.1228
  807TIP3   OH223835   1.338   6.112  15.155 -0.2087  0.5971  0.1705
  807TIP3    H123836   1.427   6.121  15.189  0.2061  1.3469 -1.0591
  807TIP3    H223837   1.346   6.046  15.086 -0.5442  0.9268 -0.1806
  808TIP3   OH223838   2.852   6.529  14.317  0.3671 -0.4346  0.3966
  808TIP3    H123839   2.935   6.538  14.271 -0.1073 -1.7059 -0.7611
  808TIP3    H223840   2.787   6.512  14.249 -0.6580 -0.6211  1.3735
  809TIP3   OH223841   5.814   6.063   1.270  0.0585  0.4550  0.3014
  809TIP3    H123842   5.783   5.977   1.241  1.6159 -0.3276  0.8492
  809TIP3    H223843   5.862   6.045   1.351  1.0931  1.7236 -0.0020
  810TIP3   OH223844   5.349   5.049  10.837  0.0162  0.3772  0.2997
  810TIP3    H123845   5.348   5.142  10.817  1.0589  0.1372 -1.0632
  810TIP3    H223846   5.439   5.021  10.818 -0.6229 -1.1670 -0.7733
  811TIP3   OH223847   4.817   0.914   4.604  0.3871 -0.6552  0.6003
  811TIP3    H123848   4.802   0.988   4.663  0.7765  0.4507 -0.6391
  811TIP3    H223849   4.740   0.913   4.547  1.4420  0.3444 -0.9336
  812TIP3   OH223850   1.724   1.690   1.671 -0.2911  0.0815  0.4726
  812TIP3    H123851   1.721   1.757   1.739 -3.1602  0.0575  0.5174
  812TIP3    H223852   1.662   1.623   1.701 -0.4958 -0.6592 -1.4533
  813TIP3   OH223853   1.598   2.240   2.930  0.2562 -0.5710 -0.1365
  813TIP3    H123854   1.623   2.265   2.841 -0.1290 -0.5611 -0.2400
  813TIP3    H223855   1.612   2.319   2.981  0.6576 -0.6287 -0.1495
  814TIP3   OH223856   3.049   5.221   1.143  0.0969  0.0416  0.0411
  814TIP3    H123857   3.037   5.281   1.069  1.3697 -1.4491 -1.4774
  814TIP3    H223858   3.053   5.277   1.220 -1.3970  1.6619 -0.9780
  815TIP3   OH223859   0.548   2.630   6.481  0.3890  0.8435  0.5981
  815TIP3    H123860   0.561   2.713   6.527  2.0381  1.9960 -1.7308
  815TIP3    H223861   0.486   2.650   6.412  1.1064  0.2460 -0.2424
  816TIP3   OH223862   5.335   5.157   5.698 -0.2397  0.2547 -0.3790
  816TIP3    H123863   5.254   5.165   5.647 -1.1851  1.8541  1.2797
  816TIP3    H223864   5.340   5.238   5.749  0.8021 -1.1230  1.8458
  817TIP3   OH223865   6.554   2.638   1.772  0.0648 -0.6051 -0.4382
  817TIP3    H123866   6.528   2.725   1.743  1.6232  0.1553  0.3236
  817TIP3    H223867   6.532   2.636   1.865 -0.1384 -1.1062 -0.4928
  818TIP3   OH223868   2.889   3.224   2.049  0.0147  0.0495 -0.2451
  818TIP3    H123869   2.886   3.211   1.954 -0.4743 -1.0352 -0.0902
  818TIP3    H223870   2.810   3.181   2.081  0.1940  0.3887  0.6625
  819TIP3   OH223871   2.604   5.701  15.667  0.3121 -0.4808 -0.4312
  819TIP3    H123872   2.629   5.779  15.618  0.3212 -0.2090  0.0017
  819TIP3    H223873   2.518   5.722  15.704  1.0484  0.0112  1.1166
  820TIP3   OH223874   5.489   3.961  15.283  0.1812  0.0419 -0.5285
  820TIP3    H123875   5.430   4.035  15.270  0.3439  0.6777  1.8154
  820TIP3    H223876   5.564   3.979  15.227 -0.6043  0.6581 -1.4224
  821TIP3   OH223877   4.351   4.393  16.402 -0.6335 -0.3934  0.4371
  821TIP3    H123878   4.397   4.358  16.326 -0.4108  0.0573  0.3573
  821TIP3    H223879   4.395   4.353  16.477  1.0162  1.2535  0.4355
  822TIP3   OH223880   1.381   2.356   2.433 -0.3622  0.2899 -0.2868
  822TIP3    H123881   1.454   2.293   2.437 -0.8596 -0.4780 -2.2866
  822TIP3    H223882   1.331   2.329   2.356 -2.8108  0.7823  1.0567
  823TIP3   OH223883   2.561   2.945  16.631 -0.1170 -0.2298 -0.4013
  823TIP3    H123884   2.471   2.940  16.660 -0.2405 -1.5071 -0.8941
  823TIP3    H223885   2.605   3.000  16.696 -1.0893 -0.1752  0.2324
  824TIP3   OH223886   3.633   3.740  14.098  0.7243 -0.4910 -0.3449
  824TIP3    H123887   3.724   3.769  14.092  0.8941 -0.3014  2.1526
  824TIP3    H223888   3.597   3.787  14.173 -0.8462 -2.0156 -0.0563
  825TIP3   OH223889   1.376   2.212   6.361 -0.1106  0.7435 -1.1363
  825TIP3    H123890   1.327   2.287   6.395 -1.1412 -0.6002  0.4982
  825TIP3    H223891   1.358   2.213   6.267 -1.4935  1.5891 -0.9019
  826TIP3   OH223892   0.552   5.235  13.275 -0.7323 -0.6190  0.0660
  826TIP3    H123893   0.543   5.230  13.179 -0.4913  0.0632  0.0045
  826TIP3    H223894   0.545   5.144  13.304  1.5544 -1.1402 -0.8022
  827TIP3   OH223895   0.762   4.580   5.256  0.3738 -0.7042 -0.1580
  827TIP3    H123896   0.850   4.549   5.236  0.4898  0.0223 -0.8126
  827TIP3    H223897   0.758   4.582   5.352  0.8520 -1.3154 -0.1170
  828TIP3   OH223898   1.382   6.192  17.204 -0.2314  0.1050  0.6476
  828TIP3    H123899   1.434   6.232  17.134  0.8041 -0.4138  1.0979
  828TIP3    H223900   1.330   6.264  17.239 -0.2693  0.5119 -0.2080
  829TIP3   OH223901   6.621   3.943   4.880  0.0191  0.4687  0.2487
  829TIP3    H123902   6.670   3.917   4.802 -0.4309 -0.8519  0.3772
  829TIP3    H223903   6.689   3.966   4.944  0.4383 -0.1465  0.0339
  830TIP3   OH223904   1.985   6.278   5.540  0.0380 -0.3194 -0.3464
  830TIP3    H123905   1.971   6.355   5.595  0.9997 -1.4747  1.6400
  830TIP3    H223906   2.080   6.268   5.535 -0.0591 -0.9610 -1.1698
  831TIP3   OH223907   6.760   6.079  11.185  0.1337 -0.1432 -0.3424
  831TIP3    H123908   6.731   6.065  11.095  1.6946 -0.7323 -0.7946
  831TIP3    H223909   6.761   6.174  11.196 -0.8475 -0.0855 -0.6553
  832TIP3   OH223910   1.957   1.670  12.543 -0.2319 -0.0963 -0.0562
  832TIP3    H123911   1.888   1.663  12.609 -1.7374 -2.0154 -1.6846
  832TIP3    H223912   1.948   1.590  12.490  0.6231  1.4633 -2.7779
  833TIP3   OH223913   4.110   0.579   2.401  0.1284  0.3371  0.5503
  833TIP3    H123914   4.056   0.505   2.372  1.3731 -0.0435 -0.8701
  833TIP3    H223915   4.083   0.652   2.345  0.0308  0.5532  0.8726
  834TIP3   OH223916   0.447   3.784   1.229 -0.5270 -0.1294 -0.2657
  834TIP3    H123917   0.467   3.694   1.254 -1.1828 -0.6642 -1.6255
  834TIP3    H223918   0.512   3.806   1.162 -0.2799  0.4778  0.1579
  835TIP3   OH223919   4.770   4.897  11.969 -0.1849  0.0632  0.0426
  835TIP3    H123920   4.676   4.895  11.951  0.1470 -2.0215 -1.7793
  835TIP3    H223921   4.788   4.813  12.012  1.0000 -0.0236 -0.5919
  836TIP3   OH223922   5.031   5.378  14.367 -0.3173 -0.2363 -0.3066
  836TIP3    H123923   5.040   5.466  14.330  0.7823  0.0100  0.4856
  836TIP3    H223924   5.091   5.377  14.442 -2.9759 -0.4710  1.9860
  837TIP3   OH223925   3.559   0.458   5.002 -0.1194  0.2007 -0.1342
  837TIP3    H123926   3.509   0.381   4.973 -1.3618  1.2486 -0.8966
  837TIP3    H223927   3.539   0.525   4.937 -2.1936  2.3512  2.4782
  838TIP3   OH223928   6.780   6.232  11.617  0.2605 -0.2373 -0.4863
  838TIP3    H123929   6.808   6.255  11.706 -0.8210  1.3448 -0.5188
  838TIP3    H223930   6.861   6.230  11.566  0.9183 -1.3825  0.5443
  839TIP3   OH223931   0.218   2.862  15.757  0.1456  0.0255 -0.1983
  839TIP3    H123932   0.283   2.792  15.746  1.4247  1.4101 -2.0284
  839TIP3    H223933   0.270   2.941  15.770 -1.2830  0.6627  2.1312
  840TIP3   OH223934   5.148   4.308  16.771  0.4458 -0.3137 -0.4602
  840TIP3    H123935   5.088   4.320  16.845 -0.1431 -0.9918 -0.8185
  840TIP3    H223936   5.137   4.216  16.746  3.7597 -1.3612  1.3172
  841TIP3   OH223937   0.291   4.720   4.201 -0.0410  0.1372  0.7470
  841TIP3    H123938   0.241   4.693   4.279  1.0295  0.6230  1.6307
  841TIP3    H223939   0.374   4.752   4.236  0.2886  0.7961 -0.5793
  842TIP3   OH223940   2.988   3.570  14.533 -0.1323  0.1685  0.4498
  842TIP3    H123941   2.924   3.608  14.473  1.9869  1.9611 -0.8118
  842TIP3    H223942   2.972   3.616  14.616 -1.0260 -0.0442  0.4083
  843TIP3   OH223943   5.073   3.906   3.824  0.4004  0.6979 -0.2878
  843TIP3    H123944   5.122   3.880   3.745  0.0285 -0.4077 -0.1633
  843TIP3    H223945   4.991   3.941   3.790 -0.5383 -1.4416 -0.3716
  844TIP3   OH223946   5.044   1.914   4.483 -0.0770 -0.8807 -0.1783
  844TIP3    H123947   5.073   1.994   4.526  0.9675  0.4271 -3.0431
  844TIP3    H223948   5.078   1.843   4.538 -0.9478  0.5758  2.3870
  845TIP3   OH223949   6.601   2.173   1.292  0.4694 -0.3514  0.1728
  845TIP3    H123950   6.671   2.141   1.348  1.3281  1.0499 -0.0602
  845TIP3    H223951   6.554   2.094   1.264  1.6130 -1.2611  0.7765
  846TIP3   OH223952   5.171   5.025   1.316 -0.4345  1.0810 -0.3868
  846TIP3    H123953   5.076   5.031   1.327 -0.3575  0.9037  0.4833
  846TIP3    H223954   5.183   4.968   1.240 -1.0210  0.3092  0.0866
  847TIP3   OH223955   2.347   1.328   0.566 -0.0225 -0.1216 -0.1272
  847TIP3    H123956   2.408   1.401   0.574 -0.5658  0.2875  0.3990
  847TIP3    H223957   2.262   1.365   0.590 -0.0591 -1.2969  1.7321
  848TIP3   OH223958   3.206   3.494  16.126  0.0156  1.0833  0.3689
  848TIP3    H123959   3.264   3.473  16.200 -0.3901  0.8961  0.6390
  848TIP3    H223960   3.169   3.579  16.149  2.1534  2.4774 -1.0264
  849TIP3   OH223961   5.105   1.586   3.262 -0.0421 -0.0940 -0.2901
  849TIP3    H123962   5.199   1.570   3.256 -0.0288  0.1683 -0.7816
  849TIP3    H223963   5.069   1.549   3.182 -0.4373 -0.7490  0.1854
  850TIP3   OH223964   4.277   2.052   4.383  0.4398 -0.1726 -0.3447
  850TIP3    H123965   4.247   2.049   4.292 -2.5754 -0.5397  0.5410
  850TIP3    H223966   4.270   2.145   4.407  3.9221  0.4403 -1.1622
  851TIP3   OH223967   3.513   4.633  15.419  0.0945 -0.1142 -0.2518
  851TIP3    H123968   3.594   4.613  15.373  1.0196  2.3580  0.1156
  851TIP3    H223969   3.528   4.601  15.508  0.5177 -0.0782 -0.3044
  852TIP3   OH223970   3.098   1.959  14.229 -0.0878  0.0342  0.0675
  852TIP3    H123971   3.128   1.880  14.185  2.1865  0.6786  0.2854
  852TIP3    H223972   3.106   1.939  14.322 -0.1947  0.2595  0.1272
  853TIP3   OH223973   6.275   0.337  12.686  0.3048  0.3936 -0.3618
  853TIP3    H123974   6.368   0.347  12.705 -0.0253  2.0280  0.5718
  853TIP3    H223975   6.255   0.409  12.626 -0.4531  0.3342 -0.1883
  854TIP3   OH223976   0.489   1.113   5.789 -0.0175 -0.1511  0.7280
  854TIP3    H123977   0.474   1.168   5.866 -1.2946  1.0804 -0.3392
  854TIP3    H223978   0.401   1.085   5.762  0.3296  0.1016 -0.7277
  855TIP3   OH223979   6.737   4.176   3.528  0.8099  0.1360 -0.0577
  855TIP3    H123980   6.661   4.117   3.526  1.2831 -0.4699 -1.1300
  855TIP3    H223981   6.729   4.223   3.611 -1.3184  0.8858 -0.6386
  856TIP3   OH223982   3.115   5.721   3.691 -0.1567  0.4541  0.0432
  856TIP3    H123983   3.079   5.793   3.743 -0.5723  0.9568 -0.9213
  856TIP3    H223984   3.142   5.762   3.609  1.8102 -0.0777  0.3973
  857TIP3   OH223985   0.713   5.859   1.555 -0.6127 -0.0062  0.2583
  857TIP3    H123986   0.727   5.941   1.603 -1.5692 -0.8480  2.0415
  857TIP3    H223987   0.670   5.801   1.617  0.7415 -2.1759 -0.7009
  858TIP3   OH223988   4.692   5.252   4.559  0.4321 -0.2876 -0.1621
  858TIP3    H123989   4.687   5.224   4.468  1.1209 -0.2260 -0.2198
  858TIP3    H223990   4.719   5.173   4.606  1.1189 -0.0478 -0.1530
  859TIP3   OH223991   1.614   2.579   4.786  0.0032  0.6001 -0.2174
  859TIP3    H123992   1.531   2.613   4.754 -0.1863  1.8647  1.4595
  859TIP3    H223993   1.618   2.609   4.877  0.4223 -2.8873  1.0367
  860TIP3   OH223994   1.964   2.413  12.927  0.1505  0.5891 -0.4235
  860TIP3    H123995   1.945   2.499  12.964 -0.4393  0.2834  0.0049
  860TIP3    H223996   2.032   2.377  12.984 -1.5347 -0.3392  1.1127
  861TIP3   OH223997   2.119   2.156   3.236 -0.9592  0.3024  0.1172
  861TIP3    H123998   2.101   2.168   3.329 -1.6735 -1.7856  0.3131
  861TIP3    H223999   2.033   2.154   3.195 -0.6646  0.7536 -0.5349
  862TIP3   OH224000   1.194   1.836   0.540 -0.6277 -0.1208 -0.0836
  862TIP3    H124001   1.246   1.855   0.462 -0.5786 -0.2725 -0.0878
  862TIP3    H224002   1.242   1.767   0.585 -1.5117 -1.2247 -0.7851
  863TIP3   OH224003   5.472   4.029   6.629 -0.1574  0.7813 -0.3959
  863TIP3    H124004   5.464   4.123   6.609  2.0007  1.4726  1.4884
  863TIP3    H224005   5.560   4.007   6.599 -0.4004 -0.4869 -0.2074
  864TIP3   OH224006   6.267   5.441  12.090 -0.0653  0.1295 -0.2102
  864TIP3    H124007   6.254   5.399  12.005  0.2887  1.1126 -0.7580
  864TIP3    H224008   6.275   5.534  12.071 -0.2282  0.3977  0.9281
  865TIP3   OH224009   3.612   2.732  15.906  0.9510 -0.1323 -0.1429
  865TIP3    H124010   3.602   2.689  15.821 -0.8791 -0.4869  0.1945
  865TIP3    H224011   3.555   2.809  15.901 -0.7520 -1.2058  1.3666
  866TIP3   OH224012   2.262   2.477  11.492  0.1211  0.0019  0.2920
  866TIP3    H124013   2.312   2.442  11.566  0.5996 -1.2476 -0.5962
  866TIP3    H224014   2.310   2.449  11.414  0.2600  2.2416 -0.5219
  867TIP3   OH224015   3.226   5.639  16.714  0.0603 -0.1779  0.5438
  867TIP3    H124016   3.232   5.685  16.631 -2.5006  0.3790  0.5731
  867TIP3    H224017   3.181   5.700  16.772 -0.1195 -1.3489  1.6855
  868TIP3   OH224018   0.808   2.469  15.334 -0.6431 -0.4388  0.4274
  868TIP3    H124019   0.805   2.381  15.297  0.4612  0.0492 -0.8998
  868TIP3    H224020   0.743   2.518  15.283 -1.2345 -0.4674  1.1435
  869TIP3   OH224021   6.358   5.395   1.843 -0.0535  0.4228  0.3850
  869TIP3    H124022   6.370   5.490   1.848  0.2945  0.4627 -0.7492
  869TIP3    H224023   6.275   5.383   1.798  1.2387  0.2529 -2.1267
  870TIP3   OH224024   1.998   1.066   0.033  0.1310 -0.2631 -0.1446
  870TIP3    H124025   1.919   1.039   0.081 -0.6106  1.0218 -0.5965
  870TIP3    H224026   2.068   1.015   0.072 -1.0848 -2.3449 -0.5214
  871TIP3   OH224027   2.913   3.447   0.253  0.1807  0.7785 -0.0033
  871TIP3    H124028   2.889   3.539   0.243  0.5165  1.0429  1.4139
  871TIP3    H224029   2.955   3.443   0.338  0.7456 -0.5817 -0.3296
  872TIP3   OH224030   4.727   5.402   5.530  0.5757  0.3632  0.3697
  872TIP3    H124031   4.641   5.390   5.489  1.7891 -0.7385 -2.0421
  872TIP3    H224032   4.714   5.374   5.621 -1.4997 -0.2090 -0.0505
  873TIP3   OH224033   1.042   2.584  13.298 -0.1375 -0.0071 -0.2837
  873TIP3    H124034   1.006   2.495  13.299  1.6391 -0.7531  0.5438
  873TIP3    H224035   1.027   2.616  13.387  0.9905 -0.2354 -0.0045
  874TIP3   OH224036   6.186   3.132   2.089 -0.6061 -0.3122 -0.3961
  874TIP3    H124037   6.166   3.184   2.011  1.6794 -0.1147 -0.9517
  874TIP3    H224038   6.259   3.178   2.130 -0.9613 -1.0933  1.1990
  875TIP3   OH224039   6.602   1.460  12.195 -0.2315  0.2711  0.1620
  875TIP3    H124040   6.686   1.417  12.212  0.4775  1.1869 -0.9595
  875TIP3    H224041   6.624   1.552  12.185 -1.4741  0.6196  0.5427
  876TIP3   OH224042   5.270   3.606   1.099 -0.3698  0.6926  0.0381
  876TIP3    H124043   5.270   3.523   1.146 -0.1011  0.9457  0.4862
  876TIP3    H224044   5.297   3.583   1.010  1.9851  0.5857  0.7021
  877TIP3   OH224045   4.727   3.937  12.373 -0.0300  0.1684  0.3683
  877TIP3    H124046   4.669   3.881  12.322  0.7305 -1.4978  1.2380
  877TIP3    H224047   4.669   3.981  12.435 -0.8411  1.5636 -1.2976
  878TIP3   OH224048   5.201   1.899   1.746  0.0927  0.1009 -0.2087
  878TIP3    H124049   5.161   1.841   1.811  0.8215  0.2900  0.4256
  878TIP3    H224050   5.243   1.841   1.683  0.6398 -0.0740  0.3086
  879TIP3   OH224051   5.084   1.482   0.689  0.4788 -0.4524  0.8073
  879TIP3    H124052   5.087   1.408   0.628  0.4350 -0.0539  0.3061
  879TIP3    H224053   5.011   1.462   0.748  1.9238 -1.9162  2.1746
  880TIP3   OH224054   3.759   4.586  11.969 -0.0589 -0.2843 -0.3770
  880TIP3    H124055   3.759   4.583  12.064 -0.0088  1.6948 -0.2760
  880TIP3    H224056   3.849   4.564  11.944  0.7516  2.0181  0.2333
  881TIP3   OH224057   0.774   4.863   2.632  0.6569  0.1147  0.0182
  881TIP3    H124058   0.867   4.852   2.613  0.7380  0.5044  0.1804
  881TIP3    H224059   0.735   4.888   2.548  0.5103 -1.1038 -0.3016
  882TIP3   OH224060   1.460   5.049  14.550 -0.1765  0.2485 -0.3235
  882TIP3    H124061   1.424   5.070  14.464  0.8114  0.0293 -0.8097
  882TIP3    H224062   1.526   4.981  14.532  1.8330  1.9424  0.2591
  883TIP3   OH224063   4.734   2.839   2.326  0.0552  0.4594 -0.3687
  883TIP3    H124064   4.804   2.836   2.391  0.5870  1.6073 -0.8709
  883TIP3    H224065   4.778   2.859   2.244 -0.6830 -0.3888 -0.9997
  884TIP3   OH224066   3.055   1.187   4.533 -0.4674 -0.5514  0.0811
  884TIP3    H124067   3.061   1.092   4.530 -0.1523 -0.6135  1.5716
  884TIP3    H224068   3.050   1.207   4.627  1.7200  1.0165 -0.0795
  885TIP3   OH224069   3.811   4.975   2.269 -0.4790  0.0396 -0.4643
  885TIP3    H124070   3.831   5.048   2.211  1.2323  1.0764  1.3041
  885TIP3    H224071   3.765   5.015   2.343  1.9132 -0.2635  1.3217
  886TIP3   OH224072   5.959   0.430   5.679  0.1091  0.2266 -0.0239
  886TIP3    H124073   5.986   0.414   5.769  1.7976 -0.6172 -0.6365
  886TIP3    H224074   5.959   0.525   5.670  0.5500  0.3030  0.6998
  887TIP3   OH224075   3.612   2.418   1.079  1.2384  0.1655  0.0762
  887TIP3    H124076   3.636   2.502   1.116 -1.4341  2.2190 -2.3379
  887TIP3    H224077   3.656   2.415   0.994 -0.3294  0.2171 -0.7934
  888TIP3   OH224078   0.420   5.810   5.841  0.7329  0.1334  0.3161
  888TIP3    H124079   0.424   5.904   5.820 -2.0005  0.6016  1.3845
  888TIP3    H224080   0.349   5.776   5.786  1.7099 -1.3529 -0.0825
  889TIP3   OH224081   3.646   1.252   4.557  0.1890  0.2669 -0.2954
  889TIP3    H124082   3.642   1.263   4.462 -0.1949  2.1228 -0.0920
  889TIP3    H224083   3.634   1.340   4.592 -1.1293 -0.5868  1.5274
  890TIP3   OH224084   5.382   5.559  12.401  0.0232  0.1395  0.0034
  890TIP3    H124085   5.356   5.598  12.484  0.4627  0.2961  0.0677
  890TIP3    H224086   5.443   5.622  12.362  0.5874 -0.3828  0.0232
  891TIP3   OH224087   5.092   6.145  13.870  0.0333 -0.1899 -0.3781
  891TIP3    H124088   5.156   6.191  13.815  1.3102 -1.2185  0.1954
  891TIP3    H224089   5.017   6.129  13.811  0.6833  0.2078 -1.3409
  892TIP3   OH224090   2.260   5.449   1.930  0.6182  0.2992 -0.7450
  892TIP3    H124091   2.320   5.433   1.857 -0.8914  0.6394 -2.1054
  892TIP3    H224092   2.180   5.480   1.889  0.2226  2.0062  1.1540
  893TIP3   OH224093   1.997   3.319  11.400 -0.0607 -0.4816 -0.1247
  893TIP3    H124094   1.958   3.346  11.483 -0.2158 -1.0790  0.0059
  893TIP3    H224095   2.053   3.244  11.422 -1.5319 -1.8524 -0.7989
  894TIP3   OH224096   1.438   3.409  11.172 -0.0308 -0.0447 -0.3005
  894TIP3    H124097   1.415   3.316  11.175  0.6622 -0.2349 -0.5770
  894TIP3    H224098   1.530   3.411  11.198 -0.2396  0.6445  0.4328
  895TIP3   OH224099   4.456   6.359   2.549  0.4609  0.0952  0.0772
  895TIP3    H124100   4.467   6.423   2.479 -1.7820  0.8670  0.3785
  895TIP3    H224101   4.365   6.333   2.544 -0.6270  2.1822  4.2814
  896TIP3   OH224102   2.303   2.791  16.977  0.5571  0.3455  0.1730
  896TIP3    H124103   2.326   2.700  16.958  0.2541  0.5998 -1.6202
  896TIP3    H224104   2.324   2.802  17.070  2.3005 -1.0299  0.0105
  897TIP3   OH224105   4.441   0.287  16.885 -0.3675  0.6486 -0.3023
  897TIP3    H124106   4.434   0.370  16.932  1.7012  0.4552  0.4366
  897TIP3    H224107   4.531   0.260  16.897 -1.0014 -1.7713 -0.4749
  898TIP3   OH224108   1.867   6.200   1.227 -0.5994 -0.1431  0.1950
  898TIP3    H124109   1.808   6.145   1.278 -0.7884  0.7684  0.9817
  898TIP3    H224110   1.955   6.171   1.253 -0.6498  1.6320  2.5974
  899TIP3   OH224111   4.415   1.110   5.663  0.5943 -0.1600 -0.0355
  899TIP3    H124112   4.508   1.113   5.641  0.9943  0.9489  1.6322
  899TIP3    H224113   4.405   1.173   5.735 -1.3449 -0.6476  0.1793
  900TIP3   OH224114   4.502   1.616   5.078 -0.0485 -0.1222  0.1075
  900TIP3    H124115   4.570   1.552   5.099  0.2367 -0.2865 -1.2151
  900TIP3    H224116   4.477   1.653   5.162  2.9918  1.2954  0.5345
  901TIP3   OH224117   1.163   3.265   0.403 -0.2732  0.3156  1.0189
  901TIP3    H124118   1.096   3.332   0.416 -0.3162  0.2412  1.1914
  901TIP3    H224119   1.130   3.188   0.450 -1.4540 -0.6730 -1.2412
  902TIP3   OH224120   5.089   2.060  14.742  0.1895 -0.3492  0.5575
  902TIP3    H124121   5.023   2.113  14.696 -0.7341 -0.4195  1.7582
  902TIP3    H224122   5.131   2.008  14.673 -0.2928  0.4527 -0.3640
  903TIP3   OH224123   5.477   2.445  11.832 -0.4787 -0.0455  0.4379
  903TIP3    H124124   5.435   2.509  11.888 -0.2994  0.1874  0.3076
  903TIP3    H224125   5.406   2.408  11.780 -1.0230 -1.8413  2.3059
  904TIP3   OH224126   2.592   4.747  14.416  0.1395  0.2624 -0.2079
  904TIP3    H124127   2.612   4.685  14.486  0.5348 -0.3033 -0.8119
  904TIP3    H224128   2.661   4.814  14.423 -0.1983  0.5671  0.3432
  905TIP3   OH224129   5.536   5.106  11.870 -0.0564  0.1457  0.1063
  905TIP3    H124130   5.519   5.162  11.794 -0.7338  0.0918  0.2123
  905TIP3    H224131   5.507   5.019  11.842 -0.7974  0.2273  0.5988
  906TIP3   OH224132   2.325   5.282   1.531  0.3350  0.0951 -0.4345
  906TIP3    H124133   2.349   5.196   1.565  0.0035  1.0726  2.6157
  906TIP3    H224134   2.230   5.286   1.540  0.4863  1.3486  1.2373
  907TIP3   OH224135   3.325   1.526  15.344 -0.4852  0.5602  0.3450
  907TIP3    H124136   3.354   1.542  15.434 -0.0150  0.8646  0.1479
  907TIP3    H224137   3.320   1.431  15.336 -0.9882  0.5437  0.8307
  908TIP3   OH224138   2.873   3.628   3.763 -0.0268  0.3708  0.3887
  908TIP3    H124139   2.847   3.553   3.816 -2.6576  0.6840 -0.2913
  908TIP3    H224140   2.915   3.591   3.686 -2.2218 -0.5387 -0.4375
  909TIP3   OH224141   2.028   3.351  14.283  0.2473 -0.0571  0.3260
  909TIP3    H124142   2.084   3.422  14.315  2.6559 -0.6386 -2.1859
  909TIP3    H224143   2.017   3.294  14.358  1.1769  1.2214  1.4975
  910TIP3   OH224144   5.811   3.349   5.983 -0.0179  0.2143  0.0863
  910TIP3    H124145   5.789   3.260   6.010  0.9664  0.2762  1.1781
  910TIP3    H224146   5.758   3.406   6.039 -0.6520  0.3312 -0.6153
  911TIP3   OH224147   2.673   0.505   5.758 -0.9123  0.0009 -0.5394
  911TIP3    H124148   2.741   0.555   5.712  0.8976 -0.4372  1.5214
  911TIP3    H224149   2.639   0.566   5.823 -2.7604  0.2923 -1.6944
  912TIP3   OH224150   3.437   6.694  15.096  0.2754 -0.3181 -0.3843
  912TIP3    H124151   3.500   6.695  15.168  0.4125 -0.2807 -0.5059
  912TIP3    H224152   3.474   6.753  15.031 -0.6329  0.9300  0.1861
  913TIP3   OH224153   4.596   0.403   6.364  0.0675 -0.0101  0.9016
  913TIP3    H124154   4.565   0.494   6.358  0.4053  0.0996  0.8002
  913TIP3    H224155   4.544   0.366   6.436 -2.8775 -0.8972 -1.4907
  914TIP3   OH224156   6.078   6.743   0.685 -0.8495 -0.2668  0.5282
  914TIP3    H124157   6.153   6.792   0.719  0.8931 -0.9290 -2.0048
  914TIP3    H224158   6.002   6.795   0.710  0.6233  1.7086  1.2006
  915TIP3   OH224159   6.028   1.783   3.008 -0.2496 -0.1272  0.0619
  915TIP3    H124160   6.027   1.758   3.101  0.5912  2.6524  0.9120
  915TIP3    H224161   6.053   1.703   2.962  0.5759 -1.2864  2.3712
  916TIP3   OH224162   3.124   0.298  15.011  0.6028 -0.6350 -0.1235
  916TIP3    H124163   3.156   0.388  15.015 -0.2476 -0.2037 -1.8394
  916TIP3    H224164   3.203   0.244  15.008  1.1389 -0.0768  2.2442
  917TIP3   OH224165   4.684   2.247  16.346 -0.0654  0.0048  1.0017
  917TIP3    H124166   4.643   2.310  16.287 -1.5641  0.6041  2.5952
  917TIP3    H224167   4.630   2.168  16.339  0.3911 -0.2930  0.7780
  918TIP3   OH224168   5.216   1.074   4.238 -0.2268  0.1205  0.0115
  918TIP3    H124169   5.138   1.040   4.282  0.8727 -0.9998  1.1663
  918TIP3    H224170   5.284   1.073   4.305  0.7320  1.3948 -0.8749
  919TIP3   OH224171   5.929   3.248  12.491 -0.3495  0.6631  0.0531
  919TIP3    H124172   5.876   3.324  12.469 -0.1725  0.5514 -0.7794
  919TIP3    H224173   5.878   3.201  12.557 -0.6235  1.3090  0.3032
  920TIP3   OH224174   4.032   4.934  14.386  0.1467  0.4574  0.4636
  920TIP3    H124175   3.983   5.010  14.416  0.4165  1.1261 -0.7260
  920TIP3    H224176   4.113   4.935  14.438  0.3269  1.2211  0.1819
  921TIP3   OH224177   0.454   3.349   3.499  0.1415 -0.3274  0.7784
  921TIP3    H124178   0.530   3.404   3.516 -0.9220  1.5515 -0.2987
  921TIP3    H224179   0.418   3.382   3.417 -0.5331 -2.6908  0.0478
  922TIP3   OH224180   4.445   0.607   1.225 -0.2222 -0.0260  0.3937
  922TIP3    H124181   4.487   0.573   1.304  0.1044 -1.5979 -0.4091
  922TIP3    H224182   4.427   0.529   1.172 -0.3796  0.9847 -1.1032
  923TIP3   OH224183   1.169   5.534  11.762  0.8765 -0.0154  0.3666
  923TIP3    H124184   1.247   5.490  11.796  1.4518  0.2880 -0.5088
  923TIP3    H224185   1.187   5.544  11.668  0.9433  2.4412  0.5822
  924TIP3   OH224186   1.547   4.156   3.558  0.0262  0.6705  0.0204
  924TIP3    H124187   1.527   4.101   3.633  0.3642 -1.8632 -1.6327
  924TIP3    H224188   1.643   4.150   3.548  0.1858  2.2797  0.2904
  925TIP3   OH224189   0.300   5.934   3.158 -0.4938  1.0427 -0.1158
  925TIP3    H124190   0.299   5.891   3.072  0.6638  1.2515 -0.2530
  925TIP3    H224191   0.388   5.973   3.164 -0.5948  1.1168  1.1183
  926TIP3   OH224192   2.208   3.654   1.611 -0.0246 -0.3174 -0.2152
  926TIP3    H124193   2.211   3.558   1.611 -1.4252 -0.3805 -0.2689
  926TIP3    H224194   2.242   3.679   1.525  0.6405 -0.7429 -0.0821
  927TIP3   OH224195   1.929   0.207   1.802 -0.7689 -0.0487 -0.0284
  927TIP3    H124196   1.841   0.227   1.771 -1.0116  0.1688  0.7783
  927TIP3    H224197   1.936   0.112   1.796 -1.0238 -0.0572 -0.1935
  928TIP3   OH224198   2.341   1.566   4.074  0.6001  0.1772 -0.0911
  928TIP3    H124199   2.361   1.529   3.989  1.7999  2.2644 -0.7783
  928TIP3    H224200   2.425   1.570   4.120 -0.1840 -2.0948  1.7785
  929TIP3   OH224201   3.245   1.929   2.470  0.5252  0.3514  0.1199
  929TIP3    H124202   3.267   1.924   2.563  0.2843  0.8208  0.2017
  929TIP3    H224203   3.330   1.923   2.425  0.5824 -0.6704  0.3316
  930TIP3   OH224204   1.702   0.559   1.105 -0.7340  0.2651 -0.2180
  930TIP3    H124205   1.785   0.594   1.072 -0.1455  0.7440  1.6351
  930TIP3    H224206   1.652   0.538   1.027  0.4494  1.6288 -1.4012
  931TIP3   OH224207   3.662   1.482   5.374  0.5066 -0.1071 -0.3330
  931TIP3    H124208   3.661   1.559   5.431  2.1701 -0.2526 -0.0456
  931TIP3    H224209   3.643   1.517   5.287  1.3043  0.6740 -0.2196
  932TIP3   OH224210   5.620   6.647  16.828  0.5064  0.1703 -0.6284
  932TIP3    H124211   5.572   6.567  16.805  0.0030  0.5400 -0.8813
  932TIP3    H224212   5.606   6.706  16.754  0.9445  0.4661 -0.4800
  933TIP3   OH224213   5.627   0.049   3.618 -0.4937  0.1139 -0.7942
  933TIP3    H124214   5.533   0.042   3.601 -0.2998 -1.4635 -1.3689
  933TIP3    H224215   5.633   0.107   3.694 -1.9160  0.4281 -0.8908
  934TIP3   OH224216   2.994   3.351  14.341 -0.0881  0.2756  0.3066
  934TIP3    H124217   2.960   3.424  14.393  1.4437  0.0844  1.6553
  934TIP3    H224218   2.929   3.282  14.352  0.3284  0.1251  2.2987
  935TIP3   OH224219   3.039   0.373  14.012  0.5584 -0.1834 -0.4828
  935TIP3    H124220   3.105   0.304  14.009  1.8166  0.8119  1.5307
  935TIP3    H224221   2.969   0.338  14.068  1.6419  0.4389  1.3475
  936TIP3   OH224222   0.479   4.031  13.956 -0.2025  0.1941  0.0873
  936TIP3    H124223   0.527   3.997  13.880  0.6094  2.2305 -0.3894
  936TIP3    H224224   0.506   3.976  14.029  0.7414 -0.4164 -0.7029
  937TIP3   OH224225   0.359   0.086  15.386 -0.6531  0.1331  0.0752
  937TIP3    H124226   0.436   0.127  15.426 -1.3618  0.0906  1.5582
  937TIP3    H224227   0.395   0.031  15.316  0.7281 -0.3482  1.1051
  938TIP3   OH224228   1.713   5.682   3.276 -0.2102  0.0834  0.1515
  938TIP3    H124229   1.748   5.679   3.364 -0.4133  0.1211  0.2356
  938TIP3    H224230   1.618   5.683   3.288 -0.2345  1.6355 -0.0192
  939TIP3   OH224231   1.394   1.914  15.070  0.1876 -0.0832  0.3279
  939TIP3    H124232   1.371   1.916  15.163  0.5508 -3.2590  0.6050
  939TIP3    H224233   1.310   1.923  15.025 -0.0380  1.0776  0.9439
  940TIP3   OH224234   2.631   5.991  12.012 -0.0286  0.5335 -0.4435
  940TIP3    H124235   2.579   5.999  11.932 -0.3472  1.6761 -0.1372
  940TIP3    H224236   2.582   5.929  12.066  0.2776 -0.3766 -1.1946
  941TIP3   OH224237   1.952   6.570  15.962  0.2569 -0.3539  0.5468
  941TIP3    H124238   1.871   6.561  15.912  0.9765  2.4637 -1.4304
  941TIP3    H224239   1.956   6.663  15.985  2.0675 -0.7580  2.1918
  942TIP3   OH224240   2.413   6.774   1.107 -0.0947 -0.4491  0.0708
  942TIP3    H124241   2.360   6.740   1.035  2.0035 -0.9955 -1.2933
  942TIP3    H224242   2.428   6.866   1.086  0.5259 -0.6100 -0.2098
  943TIP3   OH224243   0.526   3.680   3.944  0.3621  0.0613 -0.8628
  943TIP3    H124244   0.553   3.591   3.922  2.2452  0.4885 -0.4726
  943TIP3    H224245   0.451   3.668   4.003  1.1285 -1.3132 -0.1011
  944TIP3   OH224246   3.834   0.029  14.611  0.0274 -0.3414 -0.2894
  944TIP3    H124247   3.810   0.095  14.546 -0.3766 -0.7343 -0.5489
  944TIP3    H224248   3.833   0.076  14.695 -3.2168 -0.6185 -0.0459
  945TIP3   OH224249   4.981   5.748   2.793 -0.6796 -0.2999 -0.1731
  945TIP3    H124250   4.965   5.750   2.699  0.0466  0.6281 -0.2906
  945TIP3    H224251   5.009   5.837   2.815  2.1931 -1.2252  0.3525
  946TIP3   OH224252   1.252   2.519  14.952  0.4799 -0.3760  0.3340
  946TIP3    H124253   1.247   2.519  15.048  0.2808 -0.3235  0.3258
  946TIP3    H224254   1.264   2.427  14.929 -0.3267 -0.5014  0.3770
  947TIP3   OH224255   0.617   2.551   3.341  0.6973  0.2265  0.1311
  947TIP3    H124256   0.645   2.580   3.254  0.8261 -1.1798 -0.3308
  947TIP3    H224257   0.531   2.591   3.353  0.8116  0.6857 -0.5126
  948TIP3   OH224258   5.596   3.891   3.989  0.0962 -0.3677  0.7756
  948TIP3    H124259   5.686   3.903   3.959 -0.2444  0.5431  0.0672
  948TIP3    H224260   5.602   3.822   4.055  1.5456  0.6796  1.8075
  949TIP3   OH224261   1.344   0.249   0.753  0.9119 -0.0392  0.0235
  949TIP3    H124262   1.325   0.304   0.677 -1.5375  1.0060  1.2663
  949TIP3    H224263   1.396   0.305   0.810  0.6305  0.0853  0.1630
  950TIP3   OH224264   5.796   4.913   1.485 -0.3965 -0.0649  0.4589
  950TIP3    H124265   5.871   4.864   1.519 -0.8558 -0.4799  0.9056
  950TIP3    H224266   5.756   4.951   1.563  0.3003  1.5608  0.0611
  951TIP3   OH224267   4.612   5.065  17.075 -0.0640  0.5335 -0.1516
  951TIP3    H124268   4.603   4.972  17.055  1.5802  0.2963  0.0796
  951TIP3    H224269   4.555   5.079  17.150 -1.5387  0.0817 -1.1452
  952TIP3   OH224270   6.091   5.376   5.220 -0.0966  0.2001 -0.1242
  952TIP3    H124271   6.172   5.423   5.200 -0.7680  2.3474  1.7846
  952TIP3    H224272   6.117   5.284   5.223  1.4177  0.3641 -3.3469
  953TIP3   OH224273   0.166   3.452  12.456  0.7031  0.1471 -0.5573
  953TIP3    H124274   0.128   3.466  12.543  2.1923  1.5460 -0.0751
  953TIP3    H224275   0.259   3.434  12.474  0.9971  0.3037 -1.8616
  954TIP3   OH224276   2.183   3.970   5.143  0.2386 -0.0672  0.3950
  954TIP3    H124277   2.117   3.912   5.180 -0.9598  1.1487  0.2574
  954TIP3    H224278   2.202   3.934   5.057 -0.4541 -0.2750  0.3303
  955TIP3   OH224279   0.803   3.893   1.143  0.0215 -0.3615  0.4619
  955TIP3    H124280   0.745   3.842   1.086 -0.8690 -0.6758  1.6001
  955TIP3    H224281   0.784   3.861   1.231  0.3336  1.0858  1.0897
  956TIP3   OH224282   3.903   4.289  12.728 -0.3867  0.2365  0.3763
  956TIP3    H124283   3.855   4.222  12.679  1.5852 -1.0743  0.1217
  956TIP3    H224284   3.889   4.369  12.677 -0.6488 -0.5153 -0.7868
  957TIP3   OH224285   5.331   1.094   5.034  0.2753 -0.1610 -0.4387
  957TIP3    H124286   5.296   1.120   5.119 -0.3181  2.7481 -1.4673
  957TIP3    H224287   5.420   1.130   5.032 -0.4794  1.7946 -1.8114
  958TIP3   OH224288   3.943   6.719   0.426  0.6279 -0.1734  0.3575
  958TIP3    H124289   4.031   6.750   0.402  0.1877  0.6489 -0.2721
  958TIP3    H224290   3.895   6.799   0.448 -0.9421 -0.1446 -2.5965
  959TIP3   OH224291   3.076   5.063  14.832 -0.4678  0.0983  0.0409
  959TIP3    H124292   3.119   5.133  14.881 -0.1771 -1.3401  1.9498
  959TIP3    H224293   3.032   5.011  14.899 -1.4144 -1.0457 -1.4192
  960TIP3   OH224294   6.741   3.644   3.271  0.3069  0.4832 -0.1415
  960TIP3    H124295   6.835   3.658   3.265  0.3635  1.2286  1.8655
  960TIP3    H224296   6.731   3.578   3.340 -0.6346  0.1557 -0.5708
  961TIP3   OH224297   3.175   2.668  12.884 -0.2249 -0.1658 -0.4459
  961TIP3    H124298   3.184   2.638  12.794  0.0349  0.4632 -0.6347
  961TIP3    H224299   3.142   2.758  12.877  2.0749  0.8090 -0.0442
  962TIP3   OH224300   1.910   2.693  13.321  0.3531  0.4369  0.2271
  962TIP3    H124301   1.889   2.783  13.346 -0.2003  0.4657 -0.3189
  962TIP3    H224302   1.824   2.653  13.305  0.5264 -0.4875  1.4789
  963TIP3   OH224303   2.516   1.465  14.262  0.7312  0.2798 -0.7233
  963TIP3    H124304   2.570   1.396  14.301 -0.9585 -0.5580  0.2266
  963TIP3    H224305   2.550   1.472  14.172  1.7242 -0.9465 -0.4908
  964TIP3   OH224306   4.981   1.558   3.997 -0.0602  0.5307 -0.2364
  964TIP3    H124307   4.956   1.605   3.917 -0.4078  0.3109 -0.2591
  964TIP3    H224308   5.068   1.523   3.979 -0.7758 -0.8491 -1.1084
  965TIP3   OH224309   1.055   6.388   3.594 -0.2170 -0.3698  0.0729
  965TIP3    H124310   0.977   6.386   3.539  0.8084 -0.7672 -1.4124
  965TIP3    H224311   1.073   6.296   3.613 -0.5502 -0.2415  1.1134
  966TIP3   OH224312   6.131   2.590   2.952 -0.1614  0.0291 -0.0811
  966TIP3    H124313   6.061   2.534   2.921  0.5188 -0.8506 -0.0703
  966TIP3    H224314   6.087   2.660   3.000 -1.0368 -0.3405 -0.3386
  967TIP3   OH224315   2.150   3.905   1.786 -0.0868 -0.0978  0.0641
  967TIP3    H124316   2.177   3.819   1.753 -0.0344 -0.0216 -0.0912
  967TIP3    H224317   2.230   3.942   1.824 -0.1627 -0.2141  0.3411
  968TIP3   OH224318   6.483   5.743  11.546 -0.1066 -0.0038 -0.5764
  968TIP3    H124319   6.531   5.787  11.475  2.0217 -0.2890  0.6058
  968TIP3    H224320   6.546   5.735  11.617 -1.8655 -0.6761  1.0111
  969TIP3   OH224321   5.012   2.517   2.770  0.6608  0.3426  0.1258
  969TIP3    H124322   4.972   2.484   2.689  0.2529  1.0574  0.0324
  969TIP3    H224323   5.063   2.593   2.743  0.9067  0.3100  0.4796
  970TIP3   OH224324   5.751   1.360  12.761  0.6676 -0.4651 -0.5411
  970TIP3    H124325   5.757   1.421  12.688  0.2258 -0.6340 -0.7191
  970TIP3    H224326   5.676   1.392  12.813  0.0781 -1.1705 -0.9349
  971TIP3   OH224327   0.579   4.750   0.569 -0.1336 -0.1291 -0.1331
  971TIP3    H124328   0.494   4.793   0.555 -1.0857 -1.3127  1.6265
  971TIP3    H224329   0.602   4.714   0.483 -1.3584  0.2938 -0.6652
  972TIP3   OH224330   5.698   5.814   1.613  0.1631 -0.3363  0.3238
  972TIP3    H124331   5.672   5.722   1.615  0.3829 -0.4018  0.0713
  972TIP3    H224332   5.707   5.838   1.706 -0.6214 -0.3604  0.4177
  973TIP3   OH224333   1.008   0.828  11.323 -0.0579  0.3236 -0.1911
  973TIP3    H124334   0.992   0.829  11.417 -0.2431 -0.2778 -0.2173
  973TIP3    H224335   0.926   0.861  11.285 -0.2757 -0.2037 -0.1830
  974TIP3   OH224336   4.362   6.077  11.453  0.1349  0.1543  0.6684
  974TIP3    H124337   4.364   6.052  11.361  0.6562 -1.9812  1.1905
  974TIP3    H224338   4.370   6.172  11.453 -0.4801  0.2507 -1.4895
  975TIP3   OH224339   4.276   3.891   0.505  0.6393  0.4439  0.1155
  975TIP3    H124340   4.306   3.817   0.454  0.4741  0.3677  0.1266
  975TIP3    H224341   4.352   3.920   0.555  0.8812  0.7113 -0.4016
  976TIP3   OH224342   1.109   0.444  13.799 -0.1521  0.2703 -0.8776
  976TIP3    H124343   1.087   0.465  13.890 -0.7143 -0.0699 -0.9288
  976TIP3    H224344   1.143   0.355  13.802  0.6774  0.5786 -0.8846
  977TIP3   OH224345   1.314   5.121   4.756  0.5977  0.6098 -0.1112
  977TIP3    H124346   1.345   5.198   4.709 -1.7393  1.0884 -1.0044
  977TIP3    H224347   1.293   5.058   4.688 -1.1306  0.6455  0.3334
  978TIP3   OH224348   4.804   5.670  15.208 -0.2190 -0.0328  0.4459
  978TIP3    H124349   4.828   5.675  15.301 -0.7810  0.7900  0.5562
  978TIP3    H224350   4.749   5.747  15.193 -1.1300 -0.8079 -0.2919
  979TIP3   OH224351   4.505   1.408   1.093 -0.5755  0.4179 -0.3276
  979TIP3    H124352   4.494   1.390   1.186  1.3239 -1.9704 -0.4430
  979TIP3    H224353   4.532   1.500   1.089 -1.2279  0.7250  1.4017
  980TIP3   OH224354   0.754   2.583   5.345  0.0954  0.0789  0.5153
  980TIP3    H124355   0.807   2.627   5.411  1.9159 -0.8406 -0.2568
  980TIP3    H224356   0.674   2.636   5.339  1.0197  1.6691  1.5502
  981TIP3   OH224357   6.550   4.928  15.630  0.1112 -0.2818  0.3923
  981TIP3    H124358   6.577   4.992  15.565  1.0715 -0.4899  0.5736
  981TIP3    H224359   6.631   4.894  15.666 -0.3915 -1.0069  0.8853
  982TIP3   OH224360   6.150   1.923   2.422 -0.1752  0.8101 -0.8494
  982TIP3    H124361   6.148   1.972   2.504 -0.5621 -1.0230  0.2788
  982TIP3    H224362   6.058   1.908   2.401 -0.0511  0.3108 -1.0376
  983TIP3   OH224363   2.284   4.564  11.120  0.1717 -0.0960 -0.2145
  983TIP3    H124364   2.224   4.579  11.047 -0.7167 -0.9392  0.3177
  983TIP3    H224365   2.370   4.593  11.087 -0.3745  0.3840 -1.2624
  984TIP3   OH224366   5.700   5.430  14.252  0.5766 -0.2096 -0.0292
  984TIP3    H124367   5.744   5.406  14.334 -0.3992  2.0095  1.2491
  984TIP3    H224368   5.615   5.386  14.258  0.8502 -0.7786 -0.2912
  985TIP3   OH224369   2.399   1.532  13.250 -0.7161  0.1672  0.3423
  985TIP3    H124370   2.385   1.623  13.223 -0.9105 -0.2959 -1.2182
  985TIP3    H224371   2.494   1.526  13.264 -0.6747  0.5542  0.2509
  986TIP3   OH224372   2.949   0.953   5.893 -0.0529 -0.5333  0.6717
  986TIP3    H124373   2.856   0.970   5.876 -0.0214 -1.5880 -0.7436
  986TIP3    H224374   2.949   0.887   5.962 -0.4452 -2.1307 -0.8083
  987TIP3   OH224375   1.492   1.815  12.926 -0.0454  0.4711  0.8355
  987TIP3    H124376   1.470   1.907  12.936  1.2792  0.7864  0.9617
  987TIP3    H224377   1.528   1.789  13.011 -0.3046 -0.1400  0.7692
  988TIP3   OH224378   2.867   6.558  11.679 -0.4917  0.1269 -0.0282
  988TIP3    H124379   2.817   6.572  11.760 -1.9529  0.2727 -0.9284
  988TIP3    H224380   2.886   6.647  11.647  1.2431  0.1098  0.7815
  989TIP3   OH224381   1.479   3.669  16.784 -0.3492  0.4445  0.2840
  989TIP3    H124382   1.385   3.660  16.770  0.1215 -1.2129 -2.7558
  989TIP3    H224383   1.508   3.581  16.808  1.0306 -0.6209 -4.4005
  990TIP3   OH224384   2.503   4.570   3.298 -0.3267  0.1971  0.0733
  990TIP3    H124385   2.473   4.643   3.243 -2.1716 -1.7670 -1.7092
  990TIP3    H224386   2.435   4.503   3.289  1.8477 -2.2660  0.5763
  991TIP3   OH224387   2.342   5.689   5.262 -0.6462  0.1891  0.1137
  991TIP3    H124388   2.375   5.599   5.261 -1.4451 -0.1575 -2.1945
  991TIP3    H224389   2.419   5.742   5.283 -0.0377 -0.9743  0.9715
  992TIP3   OH224390   1.085   4.549   2.489 -0.3222  0.1910 -0.2711
  992TIP3    H124391   1.087   4.568   2.395 -0.4962  1.3709 -0.0480
  992TIP3    H224392   1.081   4.635   2.531  0.5459 -0.2875  0.8438
  993TIP3   OH224393   3.302   2.173   0.886  0.0543 -0.0543 -0.7464
  993TIP3    H124394   3.275   2.187   0.795  0.1085 -0.7623 -0.8758
  993TIP3    H224395   3.227   2.202   0.938 -0.1631 -0.0974 -1.0349
  994TIP3   OH224396   4.034   2.671   2.635  0.4073  0.4013  0.1532
  994TIP3    H124397   4.055   2.673   2.542  1.7219 -1.6242  0.3554
  994TIP3    H224398   3.981   2.592   2.646 -1.1349  1.4880  0.8983
  995TIP3   OH224399   4.151   2.455  11.452  0.0137 -0.1527 -0.0570
  995TIP3    H124400   4.090   2.499  11.393  1.7187  1.0946 -0.9696
  995TIP3    H224401   4.132   2.493  11.538 -0.4856  0.2324 -0.3269
  996TIP3   OH224402   4.379   1.116  16.312  0.5125 -0.4294 -0.6634
  996TIP3    H124403   4.417   1.189  16.264 -2.3982  1.2011 -0.7241
  996TIP3    H224404   4.372   1.148  16.402  0.4672 -1.1886 -0.3945
  997TIP3   OH224405   6.577   1.011  17.169  0.1699  0.6585  0.5277
  997TIP3    H124406   6.526   1.002  17.089 -1.4741  1.0043  1.4846
  997TIP3    H224407   6.575   0.924  17.209 -0.2847  0.8413  0.9123
  998TIP3   OH224408   2.219   4.753   1.870  0.0139 -0.1281  0.1561
  998TIP3    H124409   2.298   4.785   1.913  0.9508 -1.2141 -0.6913
  998TIP3    H224410   2.181   4.831   1.829 -1.1376  1.0424  3.1399
  999TIP3   OH224411   0.649   2.095   1.887  0.2887 -0.6607  0.4791
  999TIP3    H124412   0.603   2.144   1.819 -2.8258 -0.1102  2.7616
  999TIP3    H224413   0.633   2.003   1.865 -1.2767 -0.4822  0.7740
 1000TIP3   OH224414   5.651   5.653   1.902  0.2115  0.2980 -0.3969
 1000TIP3    H124415   5.703   5.731   1.882 -0.7679  0.9811 -0.3294
 1000TIP3    H224416   5.679   5.628   1.990 -0.2386  1.2198  0.0159
 1001TIP3   OH224417   2.087   4.721   2.268  0.4391  0.6807  0.6177
 1001TIP3    H124418   2.124   4.785   2.206 -0.3469  1.5621  1.0355
 1001TIP3    H224419   2.081   4.768   2.351 -0.6981  0.2568  0.7957
 1002TIP3   OH224420   3.548   5.250  14.393 -0.0124  0.2103  0.0673
 1002TIP3    H124421   3.552   5.154  14.388 -0.0287  0.1915  0.4128
 1002TIP3    H224422   3.497   5.268  14.472  2.2230  0.5085  1.5416
 1003TIP3   OH224423   5.976   1.834  11.755 -0.1257  0.0197 -0.2921
 1003TIP3    H124424   5.967   1.928  11.765  1.2474  0.6148 -3.4280
 1003TIP3    H224425   6.067   1.822  11.726 -0.3906 -2.2195 -0.3701
 1004TIP3   OH224426   6.491   5.945  16.507 -0.1092 -0.8748 -0.6221
 1004TIP3    H124427   6.454   5.896  16.434 -1.5655 -1.3069  0.3704
 1004TIP3    H224428   6.582   5.962  16.481 -0.3758 -1.6837 -2.1789
 1005TIP3   OH224429   1.916   5.177  15.986 -0.0773 -0.8385  0.2472
 1005TIP3    H124430   1.955   5.091  16.001 -0.5452 -1.0588  0.2236
 1005TIP3    H224431   1.972   5.237  16.034 -0.8179 -1.3759  1.8689
 1006TIP3   OH224432   5.671   4.685  14.251  0.2922  0.2412 -0.5256
 1006TIP3    H124433   5.733   4.691  14.179 -1.0861 -1.3437 -1.9331
 1006TIP3    H224434   5.677   4.594  14.280 -1.7973 -0.1655 -1.1696
 1007TIP3   OH224435   5.143   4.180   5.747  0.0688  0.2997  0.3148
 1007TIP3    H124436   5.197   4.187   5.825  1.0806 -2.4809 -0.0058
 1007TIP3    H224437   5.124   4.270   5.722  1.2540  1.2861  2.6899
 1008TIP3   OH224438   5.439   3.299   4.988 -0.6863  0.0633  0.0374
 1008TIP3    H124439   5.453   3.374   4.929 -1.7139 -0.8491 -1.4451
 1008TIP3    H224440   5.386   3.335   5.059 -1.0472  0.8016 -0.5820
 1009TIP3   OH224441   2.423   2.062   5.143 -0.0427 -0.7041  0.2620
 1009TIP3    H124442   2.408   2.145   5.189  0.1814 -0.2092 -0.5387
 1009TIP3    H224443   2.509   2.032   5.174  0.3765 -0.0721 -0.2719
 1010TIP3   OH224444   0.331   3.498   6.152 -0.2615  0.1708  0.0150
 1010TIP3    H124445   0.418   3.503   6.190 -0.5624  0.0375  0.7313
 1010TIP3    H224446   0.327   3.573   6.092 -0.4519  1.5577  1.6690
 1011TIP3   OH224447   0.050   3.119  12.032 -0.2150  0.2081 -0.3163
 1011TIP3    H124448   0.009   3.138  12.117 -1.2593  1.1659 -1.0067
 1011TIP3    H224449   0.113   3.189  12.019  0.6734 -0.4931  0.1044
 1012TIP3   OH224450   3.705   0.258  16.217  0.2506  0.1085  0.3181
 1012TIP3    H124451   3.755   0.327  16.261  1.4407 -0.5125 -0.0100
 1012TIP3    H224452   3.749   0.177  16.242  0.7578 -0.2934 -1.7046
 1013TIP3   OH224453   0.546   6.086   1.338  0.5261  0.0376  0.6336
 1013TIP3    H124454   0.593   6.160   1.376 -0.4402  0.7283  0.5121
 1013TIP3    H224455   0.469   6.075   1.393  1.1346 -1.5286  1.2474
 1014TIP3   OH224456   0.885   4.847  10.902  0.4388  0.3085  0.0700
 1014TIP3    H124457   0.923   4.935  10.906  3.1684 -0.6553 -1.5740
 1014TIP3    H224458   0.838   4.845  10.819  0.5525  0.1752  0.0074
 1015TIP3   OH224459   6.142   0.171  14.286  0.5089 -0.7646 -0.2598
 1015TIP3    H124460   6.080   0.129  14.227 -0.4646  0.8029 -0.3982
 1015TIP3    H224461   6.185   0.237  14.232  1.0198 -0.6193  0.3116
 1016TIP3   OH224462   0.761   1.030  16.490 -0.0038  0.1425  0.2941
 1016TIP3    H124463   0.702   1.096  16.527 -0.2491  0.8516 -1.2835
 1016TIP3    H224464   0.714   0.995  16.415  1.4161  0.4786 -0.8038
 1017TIP3   OH224465   6.666   4.814  16.209 -0.0899 -0.0649  0.1893
 1017TIP3    H124466   6.755   4.817  16.175 -0.2010 -1.1009 -0.2291
 1017TIP3    H224467   6.658   4.894  16.262  0.2242  1.3945 -1.8303
 1018TIP3   OH224468   5.903   5.346   2.499  0.0232 -1.1274  0.1720
 1018TIP3    H124469   5.826   5.328   2.445  0.2881 -2.4170  0.2037
 1018TIP3    H224470   5.927   5.262   2.538  0.7428 -0.5212  1.1170
 1019TIP3   OH224471   0.595   2.563  13.006 -0.3858  0.3529  0.0588
 1019TIP3    H124472   0.626   2.617  13.079 -0.7000  0.4198  0.1438
 1019TIP3    H224473   0.670   2.559  12.946 -0.1305  0.3031  0.3800
 1020TIP3   OH224474   2.008   3.690  11.577  0.2699  0.4668  0.9029
 1020TIP3    H124475   2.016   3.628  11.504  0.2734 -0.6691  1.8372
 1020TIP3    H224476   2.024   3.775  11.538 -1.9091  0.1367 -0.8752
 1021TIP3   OH224477   0.690   2.190   2.570  0.3121  0.5409  0.5271
 1021TIP3    H124478   0.704   2.114   2.515  1.9745  1.8340 -0.9386
 1021TIP3    H224479   0.611   2.231   2.535  0.3774  0.4234  0.2429
 1022TIP3   OH224480   1.628   2.648   0.010  0.7079 -0.3142  0.1311
 1022TIP3    H124481   1.622   2.693   0.094 -0.8126  0.1208 -0.1812
 1022TIP3    H224482   1.656   2.717  -0.051 -2.0225  0.3961 -0.4264
 1023TIP3   OH224483   3.761   6.544   0.867  0.0077 -0.2539  0.1407
 1023TIP3    H124484   3.671   6.520   0.848 -0.2382  1.1890 -0.6345
 1023TIP3    H224485   3.809   6.461   0.867 -1.1174 -0.9210 -0.5233
 1024TIP3   OH224486   5.071   6.067   1.161  0.0322 -0.0740 -0.3750
 1024TIP3    H124487   5.032   6.006   1.224  1.4529 -0.5600  0.0772
 1024TIP3    H224488   5.115   6.132   1.216  1.6091 -0.7126 -0.8311
 1025TIP3   OH224489   1.692   6.430   3.504 -0.2767 -0.2258  0.3079
 1025TIP3    H124490   1.627   6.475   3.449  1.6816  1.7557 -0.5365
 1025TIP3    H224491   1.770   6.423   3.448  0.9543 -0.5289  1.9922
 1026TIP3   OH224492   0.767   0.769   5.598 -0.2402  0.1307  0.3941
 1026TIP3    H124493   0.785   0.829   5.671  0.9035 -0.0488  0.2766
 1026TIP3    H224494   0.756   0.826   5.522  3.3200  0.1706 -0.2300
 1027TIP3   OH224495   5.215   3.949  13.597  0.5850 -0.1202  0.4027
 1027TIP3    H124496   5.154   3.899  13.543  1.8578 -0.2552 -0.9553
 1027TIP3    H224497   5.223   3.898  13.678  1.6011 -1.9913 -0.8146
 1028TIP3   OH224498   3.084   0.762  16.958  0.2440 -0.7298  0.4162
 1028TIP3    H124499   3.122   0.841  16.919 -0.5888  0.6512  2.2645
 1028TIP3    H224500   3.152   0.728  17.015  0.7821 -1.6666 -0.7542
 1029TIP3   OH224501   0.415   1.978   2.223 -0.3286 -0.3172  0.0981
 1029TIP3    H124502   0.501   2.009   2.196  0.1339 -0.2208  1.5862
 1029TIP3    H224503   0.370   1.956   2.141  0.6105  0.8951 -0.7811
 1030TIP3   OH224504   1.883   3.772  13.631  0.3049 -0.0708  0.0198
 1030TIP3    H124505   1.824   3.829  13.582  0.5412 -1.2654 -1.7607
 1030TIP3    H224506   1.851   3.776  13.721  0.0361  2.4612 -0.1119
 1031TIP3   OH224507   3.058   3.281   0.661  0.0979 -0.6799  0.4338
 1031TIP3    H124508   3.110   3.302   0.583 -1.9162 -1.1922 -1.1489
 1031TIP3    H224509   3.036   3.366   0.699  0.3413 -0.3734 -0.0979
 1032TIP3   OH224510   6.061   3.519   2.517 -0.2196 -0.2732 -0.2777
 1032TIP3    H124511   6.129   3.564   2.567  1.1220 -3.5184  1.1017
 1032TIP3    H224512   5.981   3.532   2.568  0.1316  0.5029  0.0881
 1033TIP3   OH224513   1.684   4.710   4.917 -0.4339 -0.3416 -0.0604
 1033TIP3    H124514   1.724   4.795   4.895  1.1099 -1.1636 -0.5706
 1033TIP3    H224515   1.630   4.689   4.841 -3.1923  1.4622  1.2212
 1034TIP3   OH224516   5.154   2.861  17.312  0.2469 -0.3975 -0.2919
 1034TIP3    H124517   5.063   2.832  17.303  0.0521 -0.1241  0.6882
 1034TIP3    H224518   5.190   2.804  17.380  0.5983 -0.0200 -0.1622
 1035TIP3   OH224519   4.446   0.166  13.441 -0.5302 -0.1984  0.3812
 1035TIP3    H124520   4.429   0.175  13.347 -2.5451  0.5913  0.7615
 1035TIP3    H224521   4.532   0.206  13.454  0.6537 -2.0155 -1.3768
 1036TIP3   OH224522   6.191   4.344  15.477 -0.8638 -0.0109  0.0649
 1036TIP3    H124523   6.146   4.356  15.394 -1.1299  1.9134  0.4370
 1036TIP3    H224524   6.126   4.367  15.543  0.6107  3.2440  0.6132
 1037TIP3   OH224525   1.647   5.913  16.359 -0.1634  0.1688 -0.0986
 1037TIP3    H124526   1.692   5.950  16.283  0.3167 -0.0546  0.0663
 1037TIP3    H224527   1.558   5.948  16.354 -0.4047 -0.5656 -1.2588
 1038TIP3   OH224528   3.266   1.803  16.310 -0.2126 -0.1838  0.0231
 1038TIP3    H124529   3.280   1.888  16.268 -0.4708  0.2060  0.7185
 1038TIP3    H224530   3.294   1.740  16.244  0.9565  0.4558 -0.1148
 1039TIP3   OH224531   3.834   5.787   4.598 -0.0150 -0.6919  0.4371
 1039TIP3    H124532   3.903   5.853   4.588 -0.5861 -0.1193  0.2188
 1039TIP3    H224533   3.875   5.705   4.570  0.7779 -0.4844  0.9403
 1040TIP3   OH224534   4.752   0.211  14.977 -0.3466  0.2999  0.4616
 1040TIP3    H124535   4.845   0.216  14.957  0.1306 -0.3912  2.3443
 1040TIP3    H224536   4.745   0.238  15.069 -1.5384 -2.7577  1.3826
 1041TIP3   OH224537   6.510   5.839  16.820  0.0270  0.5799  0.1359
 1041TIP3    H124538   6.547   5.757  16.855 -3.2761 -0.4227  1.7205
 1041TIP3    H224539   6.509   5.826  16.725  0.6282 -0.7276  0.2860
 1042TIP3   OH224540   0.576   2.650  14.553 -0.4180 -0.0848 -0.2253
 1042TIP3    H124541   0.542   2.693  14.631  0.8779  2.6384 -1.0490
 1042TIP3    H224542   0.633   2.581  14.586 -1.9063 -0.7311  1.1562
 1043TIP3   OH224543   5.226   0.494   6.606 -0.4929  0.3674 -0.1267
 1043TIP3    H124544   5.296   0.432   6.624 -0.1336  0.5965 -0.7028
 1043TIP3    H224545   5.179   0.504   6.689  0.5558  0.7083  0.4332
 1044TIP3   OH224546   4.254   2.231   2.372  0.1506 -0.0557 -0.1686
 1044TIP3    H124547   4.266   2.318   2.411  1.7046 -0.1068 -0.4745
 1044TIP3    H224548   4.185   2.244   2.306  1.4741  1.3604 -1.3663
 1045TIP3   OH224549   2.092   3.822  16.164  0.4445 -0.2140 -0.1880
 1045TIP3    H124550   2.119   3.863  16.246  1.4583 -0.2062 -0.5098
 1045TIP3    H224551   2.097   3.892  16.099 -0.7817 -0.1107 -0.1869
 1046TIP3   OH224552   3.522   5.749  14.585 -0.5518 -0.0391 -0.6973
 1046TIP3    H124553   3.493   5.720  14.498 -1.0567 -1.0035 -0.2276
 1046TIP3    H224554   3.447   5.731  14.642 -0.1539  0.4053 -0.0304
 1047TIP3   OH224555   3.106   6.201  16.667  0.3636 -0.1535  0.3451
 1047TIP3    H124556   3.128   6.176  16.577  1.0347  2.3539 -0.2572
 1047TIP3    H224557   3.077   6.292  16.660 -1.7688 -0.5727  2.3870
 1048TIP3   OH224558   6.365   5.300   0.667  0.1929 -0.6427 -0.3662
 1048TIP3    H124559   6.416   5.219   0.661  2.6061  0.8188 -0.7468
 1048TIP3    H224560   6.379   5.331   0.757  0.4564  0.0758 -0.6509
 1049TIP3   OH224561   3.179   5.172   0.538  0.0356 -0.2393  0.1012
 1049TIP3    H124562   3.249   5.229   0.570 -1.7442  0.5409  2.9435
 1049TIP3    H224563   3.165   5.108   0.608 -2.2195 -0.2024 -0.2290
 1050TIP3   OH224564   0.158   2.224   3.277  0.4443  0.1543 -0.2234
 1050TIP3    H124565   0.224   2.273   3.326  1.2343 -0.3205 -0.7997
 1050TIP3    H224566   0.081   2.224   3.334  1.2972 -0.2660  0.9579
 1051TIP3   OH224567   2.268   5.425   2.723 -0.3610  0.5063  0.0699
 1051TIP3    H124568   2.347   5.371   2.715 -0.7690  0.1536 -3.0421
 1051TIP3    H224569   2.301   5.514   2.736  0.7692  0.6616 -3.0091
 1052TIP3   OH224570   5.863   0.952   3.374 -0.2053 -0.7227 -0.4646
 1052TIP3    H124571   5.794   0.898   3.413 -1.8185  0.3864 -1.6286
 1052TIP3    H224572   5.838   0.958   3.281 -0.4361  2.3946 -0.3021
 1053TIP3   OH224573   3.966   6.710   0.933 -0.0422  0.3654 -0.1333
 1053TIP3    H124574   4.002   6.751   0.854  0.6500 -0.6010 -0.3350
 1053TIP3    H224575   3.897   6.653   0.901  0.8604 -0.7494 -0.1695
 1054TIP3   OH224576   5.941   2.457  11.380 -0.1196  0.1652 -0.0320
 1054TIP3    H124577   6.031   2.446  11.412  0.1798 -1.8746 -1.3984
 1054TIP3    H224578   5.936   2.401  11.302 -2.0665  1.6354 -1.0382
 1055TIP3   OH224579   3.692   0.136   6.937 -0.4020  0.1486 -0.2880
 1055TIP3    H124580   3.619   0.185   6.973 -1.5766 -1.2080 -0.7472
 1055TIP3    H224581   3.760   0.202   6.922 -0.0001  0.9074  3.7709
 1056TIP3   OH224582   0.204   5.996   2.210 -0.2907 -0.3596  0.2199
 1056TIP3    H124583   0.213   5.901   2.210  0.1343 -0.3405  1.4246
 1056TIP3    H224584   0.215   6.021   2.302  1.5370  1.0428 -0.3268
 1057TIP3   OH224585   0.267   3.511   1.592  0.3047 -0.9099 -0.1670
 1057TIP3    H124586   0.242   3.495   1.501 -0.8778 -0.2157  0.0145
 1057TIP3    H224587   0.184   3.523   1.638  0.8848 -1.2651  1.0157
 1058TIP3   OH224588   2.286   4.198  13.332  0.1757 -0.3006  0.1147
 1058TIP3    H124589   2.375   4.164  13.334 -0.1940 -1.4323 -1.2021
 1058TIP3    H224590   2.240   4.148  13.400  0.3237 -0.3673  0.1651
 1059TIP3   OH224591   1.533   2.797  10.943  0.4492  0.0365  1.0062
 1059TIP3    H124592   1.445   2.765  10.965  0.1729  0.4781  0.5826
 1059TIP3    H224593   1.589   2.762  11.011  0.6996 -3.7989 -0.8855
 1060TIP3   OH224594   2.207   3.488   6.088  0.4352 -0.0713 -0.1654
 1060TIP3    H124595   2.277   3.552   6.104  1.1248 -0.4720 -1.3672
 1060TIP3    H224596   2.137   3.539   6.047  0.4784  0.1465  0.0346
 1061TIP3   OH224597   4.028   2.674  13.078  0.0660 -0.8773  0.4733
 1061TIP3    H124598   3.998   2.682  13.168  1.9009 -2.1410  1.2520
 1061TIP3    H224599   4.084   2.750  13.064 -1.0509 -0.1157  0.0139
 1062TIP3   OH224600   1.110   3.387  13.834  0.4844  0.5883  0.0321
 1062TIP3    H124601   1.091   3.367  13.925  1.4136 -1.0539 -0.0891
 1062TIP3    H224602   1.189   3.441  13.837  1.1274 -0.3463  0.1728
 1063TIP3   OH224603   1.237   0.882  10.606  0.0443  0.2901  0.4988
 1063TIP3    H124604   1.198   0.799  10.581 -0.4907  0.5325  0.5172
 1063TIP3    H224605   1.192   0.947  10.552  0.2104  0.6061  0.7344
 1064TIP3   OH224606   0.360   5.199   4.516 -0.4140  0.4576 -0.4561
 1064TIP3    H124607   0.314   5.116   4.500  1.1666 -0.7907  0.9689
 1064TIP3    H224608   0.400   5.220   4.432  1.3852 -1.7676 -0.2822
 1065TIP3   OH224609   3.943   3.425   1.175  0.0143 -0.1067 -0.0746
 1065TIP3    H124610   4.022   3.466   1.210 -0.3313  1.5998 -1.1745
 1065TIP3    H224611   3.963   3.410   1.082 -0.9308  0.3394 -0.3586
 1066TIP3   OH224612   4.828   5.145  12.335  0.4370  0.2754  0.0725
 1066TIP3    H124613   4.740   5.126  12.302  0.3356  0.9416 -0.0528
 1066TIP3    H224614   4.855   5.064  12.377 -0.0730 -0.0712 -0.2488
 1067TIP3   OH224615   4.033   4.275  13.470 -0.1060  0.0955 -0.3321
 1067TIP3    H124616   4.027   4.362  13.428 -1.2407 -0.6282 -1.7696
 1067TIP3    H224617   3.953   4.269  13.523  1.3639  1.0436  2.1824
 1068TIP3   OH224618   6.773   1.207  15.734  0.0807  0.4559 -0.0724
 1068TIP3    H124619   6.784   1.127  15.682  0.6283  1.3466 -1.3748
 1068TIP3    H224620   6.827   1.272  15.689  0.9982  1.1519  1.9227
 1069TIP3   OH224621   6.299   1.782  12.284  0.4551  0.1798 -0.1713
 1069TIP3    H124622   6.377   1.797  12.231  0.2154 -0.3134 -0.6737
 1069TIP3    H224623   6.240   1.733  12.227 -0.9295  2.0456 -0.4115
 1070TIP3   OH224624   0.440   2.401  17.008  0.1191 -0.0917  0.3742
 1070TIP3    H124625   0.506   2.383  17.076  1.0709  0.5426 -0.3630
 1070TIP3    H224626   0.487   2.448  16.940 -1.4360  1.7858  0.5107
 1071TIP3   OH224627   1.248   0.098   1.040  0.5280 -0.2126 -0.0877
 1071TIP3    H124628   1.334   0.056   1.037  1.1287  0.7719  1.7973
 1071TIP3    H224629   1.214   0.078   1.127  0.2731  2.0424  0.3989
 1072TIP3   OH224630   0.561   1.956  15.909 -0.0473 -0.0489  0.1161
 1072TIP3    H124631   0.583   1.881  15.853 -0.6193  0.0012 -0.1825
 1072TIP3    H224632   0.645   1.986  15.942  0.1704 -0.9665  0.4216
 1073TIP3   OH224633   3.226   6.765   3.013  0.8855  0.1831 -0.4721
 1073TIP3    H124634   3.245   6.760   3.107  0.2840 -0.1448 -0.3579
 1073TIP3    H224635   3.130   6.763   3.009  0.9206 -0.9497 -1.1525
 1074TIP3   OH224636   2.880   3.740  15.039 -0.4412 -0.5263 -0.3146
 1074TIP3    H124637   2.828   3.770  15.113  1.1743  1.0038  0.2784
 1074TIP3    H224638   2.902   3.820  14.990  2.0126 -0.9275 -0.0322
 1075TIP3   OH224639   2.319   0.272   5.742 -0.3827  0.4365 -0.1697
 1075TIP3    H124640   2.265   0.351   5.743  0.0628  0.7482 -0.2008
 1075TIP3    H224641   2.360   0.272   5.655 -1.0430 -0.2921 -0.4960
 1076TIP3   OH224642   5.303   6.678   2.026 -0.1726  0.1265  0.3946
 1076TIP3    H124643   5.251   6.754   2.051  0.4882  0.6740  0.1631
 1076TIP3    H224644   5.381   6.715   1.984  0.8538 -0.6112  1.5541
 1077TIP3   OH224645   5.264   1.637  17.163  0.0409  0.1988 -0.1761
 1077TIP3    H124646   5.217   1.710  17.122 -0.0294  0.1428 -0.1965
 1077TIP3    H224647   5.210   1.614  17.239  0.2574  0.4129  0.0459
 1078TIP3   OH224648   1.168   2.550   4.246  0.5763 -0.5715 -0.2205
 1078TIP3    H124649   1.075   2.572   4.252  0.6509 -0.5022  0.9522
 1078TIP3    H224650   1.168   2.459   4.215 -0.0944 -1.9398  3.2319
 1079TIP3   OH224651   1.952   3.793   2.113  0.5923  0.7184  0.2323
 1079TIP3    H124652   1.914   3.717   2.157  1.0718  0.4264  0.1551
 1079TIP3    H224653   1.906   3.868   2.151 -1.4552  0.2979 -1.2713
 1080TIP3   OH224654   1.326   1.547  15.107  0.6108  0.2301  0.5780
 1080TIP3    H124655   1.298   1.625  15.155 -1.6395 -0.4204  0.4474
 1080TIP3    H224656   1.409   1.572  15.067 -0.2403  2.7255  0.1685
 1081TIP3   OH224657   4.470   3.633   1.001  0.1670 -0.4294  0.1513
 1081TIP3    H124658   4.449   3.724   0.984 -2.0460 -1.2495 -2.2380
 1081TIP3    H224659   4.562   3.624   0.974  1.4867  1.6090  3.3683
 1082TIP3   OH224660   3.239   0.748  12.129 -0.3170 -0.4876  0.0635
 1082TIP3    H124661   3.225   0.668  12.079 -1.5262 -0.0002 -0.4245
 1082TIP3    H224662   3.256   0.815  12.064 -0.4270 -0.1359  0.3891
 1083TIP3   OH224663   1.849   5.673  12.586  0.6103 -0.2028 -0.5977
 1083TIP3    H124664   1.823   5.745  12.528  1.4606  0.3491 -0.3141
 1083TIP3    H224665   1.920   5.710  12.639  1.0378 -1.2482 -0.4309
 1084TIP3   OH224666   1.926   5.396   3.288 -0.1916  0.0494  0.1206
 1084TIP3    H124667   1.870   5.322   3.309 -1.4672 -0.2981 -3.8343
 1084TIP3    H224668   1.879   5.472   3.324 -2.3008 -0.4461 -1.4112
 1085TIP3   OH224669   3.982   3.670  16.537 -0.2582  0.4801 -0.2043
 1085TIP3    H124670   4.032   3.740  16.494  1.3296  0.4366  1.4608
 1085TIP3    H224671   4.012   3.590  16.494 -1.6140  0.7137 -1.6776
 1086TIP3   OH224672   0.287   4.891  10.667 -0.4705  0.1158 -0.1539
 1086TIP3    H124673   0.373   4.917  10.699  0.6558 -1.1889 -1.9352
 1086TIP3    H224674   0.241   4.974  10.653  1.9094  1.1426 -2.8245
 1087TIP3   OH224675   6.183   0.938   1.945  0.0658  0.4825 -0.2434
 1087TIP3    H124676   6.237   0.860   1.938  1.4019  1.3743 -0.1429
 1087TIP3    H224677   6.223   0.988   2.016 -0.2386  1.6715 -0.8947
 1088TIP3   OH224678   5.659   0.277   4.791 -0.0069 -0.1427  0.1270
 1088TIP3    H124679   5.661   0.372   4.804  1.0307 -0.1630  0.2207
 1088TIP3    H224680   5.573   0.259   4.754 -1.2141  0.5129  2.4590
 1089TIP3   OH224681   6.239   0.246  14.526 -0.7935 -0.2583  0.4176
 1089TIP3    H124682   6.175   0.218  14.592 -0.9104 -0.7750  0.0890
 1089TIP3    H224683   6.194   0.231  14.443 -0.6736  0.4586  0.2223
 1090TIP3   OH224684   3.067   5.142   3.542 -0.0858 -0.1987 -0.4336
 1090TIP3    H124685   3.033   5.092   3.616  0.6087 -0.2178 -0.1086
 1090TIP3    H224686   3.078   5.078   3.472  0.3006 -0.4107 -0.1871
 1091TIP3   OH224687   2.786   1.637   2.052  0.5897 -0.0666  0.2951
 1091TIP3    H124688   2.831   1.713   2.014  0.6293 -1.0507 -1.7838
 1091TIP3    H224689   2.739   1.598   1.978 -0.0337 -1.6463  1.4710
 1092TIP3   OH224690   4.668   0.638  10.654 -0.2558  0.4532  0.5785
 1092TIP3    H124691   4.645   0.546  10.639 -2.7750  1.3313 -2.0337
 1092TIP3    H224692   4.732   0.658  10.586  1.6720  0.2494  2.2736
 1093TIP3   OH224693   1.752   0.769  17.173  0.0510  0.0434  0.2889
 1093TIP3    H124694   1.703   0.772  17.091  0.3965 -1.1279  0.0093
 1093TIP3    H224695   1.686   0.751  17.240 -0.1518  0.4018  0.1867
 1094TIP3   OH224696   3.186   6.155  13.060 -0.3616 -0.0370 -0.1361
 1094TIP3    H124697   3.213   6.111  12.979  0.5774  0.4986 -0.1262
 1094TIP3    H224698   3.230   6.240  13.057 -0.1212 -0.1052  1.0630
 1095TIP3   OH224699   1.551   4.291  16.923 -0.2958 -0.2503  0.2183
 1095TIP3    H124700   1.476   4.276  16.866  1.2698 -0.1623 -1.9862
 1095TIP3    H224701   1.572   4.204  16.958 -0.1077 -0.6562 -0.8846
 1096TIP3   OH224702   3.476   0.735  12.576 -0.1618 -0.0868  0.2178
 1096TIP3    H124703   3.460   0.699  12.489 -0.8825 -0.7462  0.6103
 1096TIP3    H224704   3.514   0.821  12.560  1.2175 -0.8460 -0.7363
 1097TIP3   OH224705   2.155   1.940  16.392 -0.4082  0.4690  0.4304
 1097TIP3    H124706   2.197   2.001  16.331  0.4872 -1.2320 -0.7576
 1097TIP3    H224707   2.094   1.890  16.338  2.0884 -2.6951  0.2241
 1098TIP3   OH224708   0.142   6.429   1.432 -0.0709 -0.2882 -0.0245
 1098TIP3    H124709   0.108   6.450   1.519  1.4225  0.3895  0.4206
 1098TIP3    H224710   0.146   6.334   1.431  0.5643 -0.2863  0.9240
 1099TIP3   OH224711   3.470   5.723   0.933 -0.4715  0.1614  0.0257
 1099TIP3    H124712   3.521   5.776   0.994 -1.3671  1.1282 -0.0388
 1099TIP3    H224713   3.439   5.786   0.867 -0.0916 -0.7404 -1.0529
 1100TIP3   OH224714   2.555   1.647   5.817 -0.4780 -0.7137  0.1538
 1100TIP3    H124715   2.641   1.640   5.775 -0.6377 -2.2773  0.0236
 1100TIP3    H224716   2.574   1.655   5.910 -0.1806 -2.6172  0.2900
 1101TIP3   OH224717   1.315   4.382   1.711 -0.6527 -0.0462  0.4025
 1101TIP3    H124718   1.256   4.313   1.682 -1.4831  0.2316  1.3856
 1101TIP3    H224719   1.401   4.355   1.679 -1.1452 -0.9655 -0.1808
 1102TIP3   OH224720   4.085   3.833  11.065 -0.5378 -0.3112  0.1068
 1102TIP3    H124721   4.022   3.893  11.023 -0.0493  1.7269  2.0444
 1102TIP3    H224722   4.034   3.789  11.133 -0.3152 -0.1412  0.3849
 1103TIP3   OH224723   4.751   4.806   3.668 -0.3929 -0.3309 -0.3431
 1103TIP3    H124724   4.836   4.805   3.711 -0.7349 -0.4302  0.3446
 1103TIP3    H224725   4.741   4.896   3.636  0.0077 -0.3444 -0.5196
 1104TIP3   OH224726   4.646   3.704   0.404  0.2213 -0.5212 -0.6081
 1104TIP3    H124727   4.641   3.778   0.343  0.0740 -1.0688 -1.2738
 1104TIP3    H224728   4.557   3.669   0.405  0.6295 -1.6281 -1.4923
 1105TIP3   OH224729   4.794   1.584  14.171 -0.0626  0.3533  0.6310
 1105TIP3    H124730   4.757   1.630  14.095 -1.4188 -0.6369  0.6590
 1105TIP3    H224731   4.753   1.626  14.247  0.2599  0.4413  0.7593
 1106TIP3   OH224732   6.751   2.456  17.155 -0.0286 -0.0399 -0.6289
 1106TIP3    H124733   6.735   2.545  17.124 -0.4010  0.8372  1.8828
 1106TIP3    H224734   6.845   2.454  17.174 -0.3496  0.5306  1.2164
 1107TIP3   OH224735   1.453   2.920   0.448  0.3283 -0.3977 -0.2307
 1107TIP3    H124736   1.460   2.860   0.522  1.6563 -0.8569 -0.6948
 1107TIP3    H224737   1.368   2.900   0.408 -0.4313 -0.0857  1.1938
 1108TIP3   OH224738   6.311   0.081   1.875  0.4951 -0.4303 -0.4381
 1108TIP3    H124739   6.255   0.118   1.807  1.4673  1.0522 -0.4767
 1108TIP3    H224740   6.252   0.069   1.950 -0.4960 -1.7015 -1.3750
 1109TIP3   OH224741   2.989   4.642   5.133 -0.2680  0.4105 -0.1292
 1109TIP3    H124742   3.027   4.582   5.197 -0.4512  0.5529  0.1152
 1109TIP3    H224743   3.015   4.605   5.048 -1.3458 -0.6615 -0.0179
 1110TIP3   OH224744   0.509   4.457  15.698  0.1708  0.1959  0.4058
 1110TIP3    H124745   0.604   4.464  15.695  0.2050  0.1757  1.3145
 1110TIP3    H224746   0.480   4.496  15.615  0.9678  0.1111  0.0782
 1111TIP3   OH224747   2.062   2.897  12.445  0.4843 -1.1043  0.2211
 1111TIP3    H124748   2.126   2.953  12.488  0.0847 -1.2780  1.0475
 1111TIP3    H224749   1.979   2.943  12.455  0.5444 -0.5640 -1.3961
 1112TIP3   OH224750   6.563   3.967   1.710  0.8303 -0.1544  0.5683
 1112TIP3    H124751   6.516   3.928   1.636 -1.2233  0.4805  1.4655
 1112TIP3    H224752   6.602   4.046   1.674  2.4392 -1.3922 -0.5246
 1113TIP3   OH224753   5.768   6.732   3.413 -0.8942  0.1949 -0.0524
 1113TIP3    H124754   5.824   6.666   3.455  0.3210  0.6350 -0.9064
 1113TIP3    H224755   5.711   6.763   3.483  0.6393  0.4510  1.1286
 1114TIP3   OH224756   3.814   0.255  15.890  0.4013  0.2607 -0.3793
 1114TIP3    H124757   3.878   0.211  15.834  1.1073 -1.5658  1.7332
 1114TIP3    H224758   3.736   0.261  15.835  1.2690 -0.7832 -1.8157
 1115TIP3   OH224759   1.610   1.190  14.254  0.3821  0.1467  0.3033
 1115TIP3    H124760   1.654   1.210  14.337  0.2376  2.0837 -0.0285
 1115TIP3    H224761   1.520   1.166  14.279  0.7287 -0.6659  0.7806
 1116TIP3   OH224762   6.504   3.831  14.310  0.9486 -0.1255 -0.1937
 1116TIP3    H124763   6.563   3.786  14.371  0.0198 -1.2656 -0.0891
 1116TIP3    H224764   6.491   3.768  14.239 -0.8866 -0.3013  0.2544
 1117TIP3   OH224765   5.574   5.769  12.393  0.2451 -0.2535  0.1376
 1117TIP3    H124766   5.519   5.847  12.390  1.9084  0.9606 -1.2536
 1117TIP3    H224767   5.660   5.799  12.363  0.7666 -2.7971 -1.2112
 1118TIP3   OH224768   0.572   5.460   1.020  0.4316 -0.2281  0.2065
 1118TIP3    H124769   0.636   5.514   0.974  0.1338 -0.5182 -0.5795
 1118TIP3    H224770   0.525   5.521   1.077 -0.4159  0.5130 -1.2179
 1119TIP3   OH224771   2.466   0.465   4.296  0.3570 -0.0271  1.1122
 1119TIP3    H124772   2.455   0.505   4.383  1.0156 -1.8866  2.1119
 1119TIP3    H224773   2.547   0.502   4.263 -0.9110  2.2506  0.3284
 1120TIP3   OH224774   6.182   2.872   1.279  0.0810  0.4679 -0.0676
 1120TIP3    H124775   6.108   2.850   1.222 -0.0563  0.6716  0.0321
 1120TIP3    H224776   6.154   2.950   1.326  0.9358  1.4216 -1.0955
 1121TIP3   OH224777   1.399   4.067   2.851 -0.0885 -0.2235 -0.0236
 1121TIP3    H124778   1.428   4.077   2.941  0.7875 -2.9738  0.0952
 1121TIP3    H224779   1.480   4.060   2.800 -0.5704  0.5854 -0.9410
 1122TIP3   OH224780   0.730   3.715  12.390 -0.6813 -0.2566  0.5369
 1122TIP3    H124781   0.717   3.621  12.375 -0.4749 -0.2522  0.3318
 1122TIP3    H224782   0.736   3.723  12.485 -0.6687 -0.4550  0.5532
 1123TIP3   OH224783   1.985   1.017  16.089  0.1706 -0.0810  0.0285
 1123TIP3    H124784   1.895   1.049  16.100 -0.3090 -1.1933 -0.4600
 1123TIP3    H224785   1.988   0.986  15.998  0.7208 -1.0189  0.3506
 1124TIP3   OH224786   4.338   1.287   5.870 -0.5935 -0.1435 -0.3432
 1124TIP3    H124787   4.248   1.305   5.842 -1.0568 -0.7293  0.6997
 1124TIP3    H224788   4.369   1.370   5.906 -1.5408 -0.4936  1.3917
 1125TIP3   OH224789   1.886   5.755   3.978 -0.4095 -0.5454  0.6719
 1125TIP3    H124790   1.920   5.787   3.894 -0.3304 -0.1702  0.8492
 1125TIP3    H224791   1.793   5.777   3.976 -0.2883  0.0046  0.9378
 1126TIP3   OH224792   1.593   1.339   3.713  0.1874  0.2849 -0.6276
 1126TIP3    H124793   1.564   1.250   3.690  0.3931  0.0939 -0.1414
 1126TIP3    H224794   1.679   1.327   3.752  0.5178  0.7668 -1.1918
 1127TIP3   OH224795   1.494   3.239  11.476  0.0098 -0.1735  0.3376
 1127TIP3    H124796   1.503   3.159  11.528 -0.5197 -1.7871 -1.8828
 1127TIP3    H224797   1.404   3.268  11.491 -0.6233 -1.4753 -0.7266
 1128TIP3   OH224798   5.136   4.186   4.009 -0.2472 -0.1761  0.2250
 1128TIP3    H124799   5.148   4.092   4.022  1.4616  0.2029  1.8129
 1128TIP3    H224800   5.042   4.200   4.021 -0.3915 -1.5685  0.9185
 1129TIP3   OH224801   5.203   1.156  10.813  0.4329  0.0122  0.2218
 1129TIP3    H124802   5.230   1.065  10.796 -0.1364 -0.1177 -0.0286
 1129TIP3    H224803   5.240   1.206  10.740 -0.2277 -0.2090 -0.2747
 1130TIP3   OH224804   0.295   4.677  15.958  0.6024 -0.0143 -0.1934
 1130TIP3    H124805   0.378   4.717  15.935  1.2936 -1.0497  0.4138
 1130TIP3    H224806   0.305   4.651  16.050 -1.3588  2.2276  0.7651
 1131TIP3   OH224807   5.113   1.988  10.982  0.3905  0.6621 -0.2745
 1131TIP3    H124808   5.125   1.984  11.077  0.6494  0.4064 -0.3146
 1131TIP3    H224809   5.194   2.028  10.950  0.9231 -0.5381 -0.5003
 1132TIP3   OH224810   0.455   1.837  13.281 -0.8187 -0.3723  0.1864
 1132TIP3    H124811   0.393   1.860  13.212 -2.0257 -2.5618  0.4681
 1132TIP3    H224812   0.425   1.885  13.358  1.2030  3.0285 -0.8967
 1133TIP3   OH224813   3.480   2.140   2.092 -0.2410 -0.0541 -0.5550
 1133TIP3    H124814   3.385   2.143   2.105  0.0385 -0.1428  1.8438
 1133TIP3    H224815   3.516   2.201   2.156  1.4021 -1.2183 -0.2939
 1134TIP3   OH224816   3.304   2.309  14.561  0.0575  0.3546 -0.6119
 1134TIP3    H124817   3.393   2.328  14.532  0.7212 -2.1020 -0.4149
 1134TIP3    H224818   3.312   2.295  14.656 -0.1235 -1.6724 -0.8459
 1135TIP3   OH224819   1.341   2.353   3.130 -0.2258  0.4777  0.4080
 1135TIP3    H124820   1.429   2.383   3.108 -0.3669  1.3328  0.9849
 1135TIP3    H224821   1.354   2.297   3.207 -0.2072  0.7351  0.5919
 1136TIP3   OH224822   2.295   1.442  16.768 -0.4829 -0.0649  0.2950
 1136TIP3    H124823   2.375   1.480  16.805 -1.9772  3.5981  0.2533
 1136TIP3    H224824   2.318   1.419  16.678  0.5351  1.0046  0.2567
 1137TIP3   OH224825   0.990   6.731   4.801 -0.1123 -0.0229 -0.2920
 1137TIP3    H124826   0.907   6.685   4.796 -1.5254  2.1405  1.6785
 1137TIP3    H224827   0.984   6.800   4.735  0.9989 -1.0283 -1.5179
 1138TIP3   OH224828   0.966   3.294  15.740 -0.2166 -0.0043 -0.0859
 1138TIP3    H124829   0.939   3.381  15.769  1.0618 -0.4047  2.6440
 1138TIP3    H224830   1.033   3.310  15.675 -0.8520  1.0340 -0.5020
 1139TIP3   OH224831   1.750   5.065  11.114  0.8587  0.5694  0.8663
 1139TIP3    H124832   1.696   5.143  11.110  1.5564  1.0323  0.4606
 1139TIP3    H224833   1.815   5.076  11.045  1.2201 -0.1708  1.0759
 1140TIP3   OH224834   4.492   1.912   3.031  0.2808 -0.0557 -0.7894
 1140TIP3    H124835   4.571   1.905   3.084  0.4431  1.6957 -0.7463
 1140TIP3    H224836   4.432   1.847   3.069  0.0430  1.7144  2.2078
 1141TIP3   OH224837   6.602   6.772   1.507 -0.3807 -0.7104  0.5142
 1141TIP3    H124838   6.614   6.781   1.602 -2.1605 -2.6552  0.9844
 1141TIP3    H224839   6.637   6.685   1.486 -0.0171 -0.3094 -0.6375
 1142TIP3   OH224840   2.180   6.495  14.977 -0.1917  0.0728  0.1554
 1142TIP3    H124841   2.092   6.531  14.966 -0.9177 -1.7974 -0.7480
 1142TIP3    H224842   2.170   6.427  15.045  1.3160  2.0337  2.5079
 1143TIP3   OH224843   6.016   0.660   4.102  0.0296  0.7302 -0.0167
 1143TIP3    H124844   6.039   0.671   4.010  0.2529  0.3033 -0.0137
 1143TIP3    H224845   5.923   0.683   4.106  0.4406  2.5021 -0.0200
 1144TIP3   OH224846   5.524   3.285   5.905 -1.0410  0.1144 -0.5495
 1144TIP3    H124847   5.548   3.371   5.872 -0.0061 -0.4774 -1.4070
 1144TIP3    H224848   5.538   3.226   5.830  1.3350 -1.2641  0.8598
 1145TIP3   OH224849   1.987   4.502  13.098 -0.1513 -0.0327 -0.4554
 1145TIP3    H124850   1.919   4.471  13.038  0.1902 -0.5076 -0.5985
 1145TIP3    H224851   1.942   4.566  13.153 -0.1161  1.6034 -2.2074
 1146TIP3   OH224852   1.886   0.485  13.691  0.1745  0.3150 -0.0114
 1146TIP3    H124853   1.852   0.571  13.716  0.1129 -0.2358  2.0087
 1146TIP3    H224854   1.973   0.502  13.656 -0.6453  1.3740 -1.6210
 1147TIP3   OH224855   4.558   4.670  10.719 -0.0198 -0.2595  0.0269
 1147TIP3    H124856   4.631   4.622  10.759 -1.0549  0.5218  3.1697
 1147TIP3    H224857   4.508   4.703  10.793 -2.7785  0.5056 -2.0103
 1148TIP3   OH224858   6.689   2.093  12.607  0.4381  0.1729  0.4333
 1148TIP3    H124859   6.691   2.155  12.534 -0.1871 -0.4156 -0.1015
 1148TIP3    H224860   6.752   2.025  12.583  0.1431 -0.0839  0.3709
 1149TIP3   OH224861   3.731   4.631  14.088  0.2336 -0.1767  0.3604
 1149TIP3    H124862   3.769   4.638  14.176 -2.2471  2.7484  1.3639
 1149TIP3    H224863   3.637   4.619  14.103 -0.1387 -0.6525 -1.9503
 1150TIP3   OH224864   0.808   2.143   4.844 -0.4204  0.3713 -0.7011
 1150TIP3    H124865   0.767   2.061   4.872  1.1340 -0.2874 -0.2142
 1150TIP3    H224866   0.868   2.165   4.916 -1.8170  2.7415 -0.1238
 1151TIP3   OH224867   1.964   5.917   0.540  0.7234 -0.0641  0.1035
 1151TIP3    H124868   1.999   5.954   0.459  1.0182  0.1446  0.3260
 1151TIP3    H224869   1.918   5.837   0.512  2.2237 -0.8976 -0.0736
 1152TIP3   OH224870   5.138   2.879  14.455 -0.1611 -0.0556 -0.7751
 1152TIP3    H124871   5.130   2.805  14.395 -0.3910 -0.2135 -0.5495
 1152TIP3    H224872   5.067   2.938  14.430 -0.6558 -0.4190 -0.2395
 1153TIP3   OH224873   1.490   2.792  11.338  0.1279 -0.5217  0.4488
 1153TIP3    H124874   1.395   2.803  11.330 -0.1554 -1.1310  2.4321
 1153TIP3    H224875   1.505   2.784  11.432  2.2235  0.0647  0.2138
 1154TIP3   OH224876   3.660   1.931  14.048  0.8243  0.0820 -0.1931
 1154TIP3    H124877   3.725   1.996  14.021  1.7651 -1.2083 -1.1560
 1154TIP3    H224878   3.694   1.848  14.015 -1.8878 -0.4990 -1.8122
 1155TIP3   OH224879   3.805   0.906  12.372  0.0284  0.2646  0.1592
 1155TIP3    H124880   3.720   0.950  12.374 -0.4942 -0.7321  1.5523
 1155TIP3    H224881   3.825   0.887  12.464  1.9192  0.7569 -0.1106
 1156TIP3   OH224882   3.586   2.986   2.779 -0.5182  0.7972  0.2222
 1156TIP3    H124883   3.598   3.077   2.806  1.0174  0.7337 -0.1739
 1156TIP3    H224884   3.586   2.989   2.683 -1.2578  0.4558  0.2002
 1157TIP3   OH224885   6.003   6.290   4.803  0.1300 -0.5147 -0.2548
 1157TIP3    H124886   6.038   6.296   4.714  0.9758  0.1686  0.1236
 1157TIP3    H224887   5.941   6.363   4.809  1.5187  0.6698  0.3409
 1158TIP3   OH224888   2.527   5.946   3.019 -0.3427 -0.1220 -0.1166
 1158TIP3    H124889   2.508   5.936   3.112  0.0071 -0.4832 -0.0764
 1158TIP3    H224890   2.556   5.859   2.991 -0.8390 -0.1224 -0.6608
 1159TIP3   OH224891   4.358   0.942   6.114  0.0942  0.7386  0.0219
 1159TIP3    H124892   4.319   1.020   6.153 -0.8167 -0.2122  1.0510
 1159TIP3    H224893   4.355   0.959   6.019 -2.1058  1.0575  0.0976
 1160TIP3   OH224894   4.975   3.168   5.791 -0.5510 -0.0657 -0.0852
 1160TIP3    H124895   4.977   3.076   5.763  0.8230 -0.1263  0.1356
 1160TIP3    H224896   5.053   3.177   5.846 -0.1798  1.4586 -0.8252
 1161TIP3   OH224897   2.926   0.494   1.925  0.4280 -0.1710 -0.0896
 1161TIP3    H124898   3.010   0.477   1.881  1.5093  1.7544  1.1118
 1161TIP3    H224899   2.939   0.461   2.014 -0.0316  0.3166  0.1596
 1162TIP3   OH224900   4.767   6.297   5.493 -0.2173 -0.1168 -0.3504
 1162TIP3    H124901   4.722   6.355   5.432 -2.1214  0.7585  1.7258
 1162TIP3    H224902   4.704   6.229   5.512  0.1627 -0.1327  0.9397
 1163TIP3   OH224903   0.877   0.373   2.157 -0.5588  0.4700 -0.6628
 1163TIP3    H124904   0.913   0.291   2.123 -0.7365 -0.6066  1.6018
 1163TIP3    H224905   0.865   0.427   2.079  0.2798 -1.3526 -2.1446
 1164TIP3   OH224906   2.127   4.997   1.732 -0.5753  0.6260 -0.4459
 1164TIP3    H124907   2.134   5.071   1.793  0.6159  0.1982 -0.0373
 1164TIP3    H224908   2.046   5.014   1.683 -1.1343  1.3996  0.6951
 1165TIP3   OH224909   5.082   5.792  13.643 -0.0082 -0.1722  0.2400
 1165TIP3    H124910   5.083   5.697  13.637  0.3791 -0.2232  1.0419
 1165TIP3    H224911   5.022   5.812  13.714 -0.6553  0.2194 -0.4065
 1166TIP3   OH224912   0.548   4.962  13.357  0.4151 -0.9664 -0.1679
 1166TIP3    H124913   0.626   4.943  13.306 -0.0901 -1.0025 -0.9514
 1166TIP3    H224914   0.551   4.900  13.429  1.4100 -0.5684  0.1446
 1167TIP3   OH224915   0.714   0.212  15.099 -0.1912 -0.2466 -0.1174
 1167TIP3    H124916   0.629   0.167  15.101 -0.8946  0.8211 -2.2609
 1167TIP3    H224917   0.692   0.305  15.101  0.7866  0.0798 -2.1276
 1168TIP3   OH224918   3.193   3.001  12.920 -0.1393 -0.2542 -0.2781
 1168TIP3    H124919   3.255   3.074  12.924  0.8165 -1.0238 -0.6023
 1168TIP3    H224920   3.150   3.001  13.005  0.0543  0.5084 -0.1749
 1169TIP3   OH224921   4.708   0.924   1.486  0.4667 -0.7169  0.1092
 1169TIP3    H124922   4.686   1.013   1.515  1.8877 -0.5455  0.7837
 1169TIP3    H224923   4.803   0.927   1.471  0.4194 -1.9386 -0.5563
 1170TIP3   OH224924   3.115   4.973  10.366 -0.0687 -0.5022 -0.4011
 1170TIP3    H124925   3.119   4.883  10.396 -0.0602 -1.2238 -2.3886
 1170TIP3    H224926   3.174   5.021  10.424  0.7488 -1.9654  0.0332
 1171TIP3   OH224927   0.626   3.315   5.779  0.0576 -0.3593 -0.3932
 1171TIP3    H124928   0.576   3.237   5.802 -0.2417  0.1013  0.5777
 1171TIP3    H224929   0.634   3.311   5.684 -0.0660 -1.4946 -0.3775
 1172TIP3   OH224930   3.441   6.625   2.693 -0.2850 -0.2115 -0.5688
 1172TIP3    H124931   3.419   6.712   2.727  1.7593  1.0173 -2.0847
 1172TIP3    H224932   3.454   6.571   2.771 -0.7748  1.0826  0.4444
 1173TIP3   OH224933   1.317   3.799  14.257 -0.3223  0.2000 -0.0276
 1173TIP3    H124934   1.351   3.811  14.346 -1.2132  1.1443  0.2052
 1173TIP3    H224935   1.227   3.829  14.262 -0.8567 -1.1447 -0.9093
 1174TIP3   OH224936   1.914   3.856   1.287 -0.0395 -0.5091 -0.2189
 1174TIP3    H124937   1.858   3.905   1.347 -0.2539 -0.0279 -0.8051
 1174TIP3    H224938   1.984   3.916   1.264  1.9566 -1.7510  2.1283
 1175TIP3   OH224939   3.231   1.218  11.094 -0.7871 -0.0369 -0.0714
 1175TIP3    H124940   3.249   1.312  11.094  0.7656 -0.2768 -1.6423
 1175TIP3    H224941   3.301   1.180  11.147  0.4589 -0.5103 -1.9215
 1176TIP3   OH224942   3.944   3.035  14.688  0.0201 -0.0805  0.2859
 1176TIP3    H124943   3.852   3.046  14.711 -0.0605  1.7992 -0.7373
 1176TIP3    H224944   3.992   3.075  14.761  0.0305 -0.7527  0.6545
 1177TIP3   OH224945   4.095   1.427   4.045 -0.3263 -0.2946 -0.5088
 1177TIP3    H124946   4.141   1.423   4.128  1.2167  1.9311 -1.1435
 1177TIP3    H224947   4.113   1.516   4.012 -0.1429 -1.3425 -3.5892
 1178TIP3   OH224948   6.663   4.372   4.796  0.6335  0.2774  0.3075
 1178TIP3    H124949   6.735   4.409   4.745  0.2336  0.6127 -0.0176
 1178TIP3    H224950   6.697   4.367   4.885  0.7327  1.3084  0.3330
 1179TIP3   OH224951   4.088   2.386  12.266  0.1695  0.3475  0.2397
 1179TIP3    H124952   4.036   2.349  12.195  0.0506  1.7891 -0.4552
 1179TIP3    H224953   4.179   2.372  12.238  0.1309  1.9277 -0.7897
 1180TIP3   OH224954   4.113   1.514   4.938  0.4056 -0.1577 -0.2131
 1180TIP3    H124955   4.203   1.509   4.906  0.0916 -3.1022 -0.9180
 1180TIP3    H224956   4.068   1.441   4.896 -1.6321 -0.4839  2.2573
 1181TIP3   OH224957   2.679   1.693  11.162 -0.4358 -0.3571 -0.3907
 1181TIP3    H124958   2.739   1.677  11.090  0.0696  0.3306 -0.1294
 1181TIP3    H224959   2.680   1.788  11.173 -2.7155 -0.1549 -1.3611
 1182TIP3   OH224960   4.114   5.045  12.912  0.1211  0.1986 -0.1396
 1182TIP3    H124961   4.158   5.124  12.882  0.7490  0.4370  1.3099
 1182TIP3    H224962   4.173   5.009  12.979  0.6058 -2.3222 -1.7701
 1183TIP3   OH224963   2.136   4.076  16.925 -0.7193 -0.8739  0.1851
 1183TIP3    H124964   2.187   4.155  16.938 -0.6310 -0.9509  0.3060
 1183TIP3    H224965   2.197   4.004  16.942 -1.3289 -0.9742  2.1262
 1184TIP3   OH224966   2.126   5.028  13.947  0.0790 -0.3927  0.2725
 1184TIP3    H124967   2.147   4.973  14.022 -1.6787  0.5738  1.5515
 1184TIP3    H224968   2.187   5.102  13.954  1.2357 -1.2485 -0.4222
 1185TIP3   OH224969   5.520   2.672   5.615 -0.2489  0.3326  0.2154
 1185TIP3    H124970   5.442   2.719   5.583 -0.1179  0.2568 -0.2267
 1185TIP3    H224971   5.486   2.610   5.679 -0.5533  0.2995  0.0244
 1186TIP3   OH224972   1.882   0.333   6.408  0.3332  0.4316 -0.0061
 1186TIP3    H124973   1.803   0.363   6.364 -0.6172  0.0192  1.3813
 1186TIP3    H224974   1.883   0.238   6.395  0.4570  0.4042  0.1915
 1187TIP3   OH224975   0.145   6.101  12.591  0.2395 -1.0123 -0.1837
 1187TIP3    H124976   0.157   6.144  12.676 -0.1218 -1.1875 -0.0387
 1187TIP3    H224977   0.062   6.136  12.558 -0.1855 -1.7840  0.0550
 1188TIP3   OH224978   5.031   2.599  14.357  0.1754 -0.1797 -0.5346
 1188TIP3    H124979   4.992   2.513  14.346  0.4348 -0.7652  2.3881
 1188TIP3    H224980   4.959   2.655  14.386  0.5066 -0.0350  0.0195
 1189TIP3   OH224981   5.975   1.772  12.710  0.2033 -0.0376 -0.0326
 1189TIP3    H124982   5.982   1.739  12.621  0.9631  2.0803 -0.8200
 1189TIP3    H224983   5.889   1.814  12.714 -0.4240 -1.3309  0.7075
 1190TIP3   OH224984   4.426   2.348  12.460 -0.1955  0.0786 -0.0282
 1190TIP3    H124985   4.439   2.253  12.457  1.3800  0.1742  1.8089
 1190TIP3    H224986   4.348   2.360  12.513 -0.0506 -0.1967  0.2540
 1191TIP3   OH224987   3.902   1.323  15.020  0.4050  0.1249 -0.2344
 1191TIP3    H124988   3.852   1.243  15.002  0.4637  0.1907 -0.6911
 1191TIP3    H224989   3.835   1.389  15.037  0.3181  0.3499 -1.4154
 1192TIP3   OH224990   5.602   0.546   0.857 -0.1543 -0.2986  0.1003
 1192TIP3    H124991   5.668   0.483   0.888  0.8859  0.4348 -0.5670
 1192TIP3    H224992   5.526   0.492   0.836 -0.1357 -1.0557  1.8235
 1193TIP3   OH224993   2.083   4.955   5.838 -0.0395  0.3505  0.4511
 1193TIP3    H124994   2.044   4.976   5.923 -2.4976  0.2958 -0.5625
 1193TIP3    H224995   2.033   4.880   5.807  0.1890  0.9110 -1.4081
 1194TIP3   OH224996   3.150   3.955   4.346  0.4557  0.1581 -0.0490
 1194TIP3    H124997   3.163   4.048   4.326  0.0081  0.1010 -0.6327
 1194TIP3    H224998   3.215   3.910   4.292  0.3508  0.1039 -0.1307
 1195TIP3   OH224999   2.148   5.743  11.536 -0.8024 -0.1751  0.4752
 1195TIP3    H125000   2.227   5.701  11.502 -0.0534 -0.2500  2.2158
 1195TIP3    H225001   2.156   5.736  11.631 -1.6100  2.1969  0.7760
 1196TIP3   OH225002   4.866   2.286  14.011 -0.1799 -0.2741  0.1076
 1196TIP3    H125003   4.870   2.337  13.930 -0.7640 -0.5402 -0.0907
 1196TIP3    H225004   4.952   2.242  14.016  0.3113  0.6822  0.2607
 1197TIP3   OH225005   4.693   5.714  10.992 -0.1455 -0.1526 -0.6220
 1197TIP3    H125006   4.705   5.655  11.066  1.1548 -2.0825 -2.3034
 1197TIP3    H225007   4.778   5.716  10.948 -0.5771  1.8244 -1.4935
 1198TIP3   OH225008   4.377   2.440  15.124 -0.0419  0.8357  0.7138
 1198TIP3    H125009   4.342   2.375  15.185  3.0881  0.1342  1.9152
 1198TIP3    H225010   4.360   2.403  15.038 -0.4891 -0.3924  1.2985
 1199TIP3   OH225011   4.399   2.793  14.611  0.0535  1.1509  0.0964
 1199TIP3    H125012   4.366   2.818  14.697 -0.9525  0.1156  0.0342
 1199TIP3    H225013   4.320   2.783  14.557  0.2122 -2.7499  0.3017
 1200TIP3   OH225014   6.279   5.907   5.257  0.2078 -0.1696 -0.3713
 1200TIP3    H125015   6.210   5.851   5.290 -0.1651 -0.0629 -0.9620
 1200TIP3    H225016   6.236   5.967   5.196  0.6068  0.7093  0.1766
 1201TIP3   OH225017   0.349   5.672  11.204  0.7841 -0.0968 -0.3194
 1201TIP3    H125018   0.378   5.592  11.248  0.0995  0.3491  0.9925
 1201TIP3    H225019   0.339   5.646  11.112 -1.7081 -2.2115  0.4153
 1202TIP3   OH225020   4.438   3.340  12.269 -0.2896  0.1027 -0.0141
 1202TIP3    H125021   4.350   3.339  12.231 -0.5715  0.2930  0.6084
 1202TIP3    H225022   4.465   3.248  12.270 -0.8119 -0.0506  0.5193
 1203TIP3   OH225023   3.160   5.771  11.433 -0.3899  0.2340  0.0185
 1203TIP3    H125024   3.247   5.796  11.465  0.0077 -0.7686 -0.2530
 1203TIP3    H225025   3.119   5.728  11.508 -0.9022  1.2419  0.3407
 1204TIP3   OH225026   2.949   6.516  15.942  0.4198  0.0017  0.5362
 1204TIP3    H125027   2.886   6.583  15.968 -1.5207 -0.8878 -1.5586
 1204TIP3    H225028   3.002   6.559  15.874 -0.3225 -0.3040 -0.2579
 1205TIP3   OH225029   1.117   3.926   1.370 -0.6135 -0.0627  0.3218
 1205TIP3    H125030   1.082   3.893   1.287 -0.5490 -1.2936  0.7647
 1205TIP3    H225031   1.043   3.972   1.410 -1.3030 -1.2907  0.5291
 1206TIP3   OH225032   4.138   4.789   0.542 -0.3249 -0.6302 -0.4047
 1206TIP3    H125033   4.107   4.703   0.568  0.2457 -0.3960  1.1714
 1206TIP3    H225034   4.227   4.773   0.508 -1.1075 -0.9495 -2.4313
 1207TIP3   OH225035   6.080   5.288  15.368  0.3594  0.6076  0.3074
 1207TIP3    H125036   6.026   5.348  15.419 -0.8262  0.6716 -0.9650
 1207TIP3    H225037   6.017   5.235  15.318  1.4293 -0.4715  0.0582
 1208TIP3   OH225038   5.133   4.517   1.204  0.5319  0.2049 -0.8202
 1208TIP3    H125039   5.207   4.556   1.158  1.9796 -0.4628  0.8469
 1208TIP3    H225040   5.061   4.578   1.188  1.3429  0.7615 -2.6599
 1209TIP3   OH225041   6.340   5.981   1.570  0.1809  0.1724 -0.6390
 1209TIP3    H125042   6.252   5.980   1.606 -0.7975  1.3181 -2.8255
 1209TIP3    H225043   6.387   6.047   1.620 -0.7715  0.8671 -0.6536
 1210TIP3   OH225044   4.148   3.459  11.698  0.2247 -0.1627 -0.1664
 1210TIP3    H125045   4.137   3.521  11.626  1.2094 -2.0447 -2.0766
 1210TIP3    H225046   4.236   3.477  11.732  0.9613 -1.1803 -1.4625
 1211TIP3   OH225047   5.739   1.213  16.681  0.0661  0.2296 -0.1255
 1211TIP3    H125048   5.698   1.244  16.762 -2.0412 -1.1612 -0.5969
 1211TIP3    H225049   5.669   1.215  16.616  1.0171 -1.1732 -1.2582
 1212TIP3   OH225050   1.452   2.314  13.571 -0.0327 -0.0591  0.1455
 1212TIP3    H125051   1.538   2.339  13.537 -0.0520 -2.4158 -1.8836
 1212TIP3    H225052   1.390   2.371  13.524  0.2468 -0.3281 -0.5609
 1213TIP3   OH225053   3.255   0.584   4.567  0.7476  0.7311 -0.2042
 1213TIP3    H125054   3.272   0.509   4.510  0.3076 -0.1983  0.8402
 1213TIP3    H225055   3.280   0.660   4.516  0.5683 -0.0892 -1.5475
 1214TIP3   OH225056   5.217   1.555  12.531 -0.0431  0.0869 -0.3605
 1214TIP3    H125057   5.220   1.566  12.436  1.5758 -0.6850 -0.4291
 1214TIP3    H225058   5.133   1.593  12.557  0.0620  1.4738 -1.9293
 1215TIP3   OH225059   1.935   4.216  11.989 -0.1499  0.0212  0.3289
 1215TIP3    H125060   1.985   4.294  12.012 -1.9436  1.0901  0.8386
 1215TIP3    H225061   1.946   4.206  11.895 -0.1919  1.1321  0.2013
 1216TIP3   OH225062   6.206   1.569   4.365  0.1750 -0.2720 -0.7818
 1216TIP3    H125063   6.119   1.529   4.370  0.5419 -0.9445  1.3006
 1216TIP3    H225064   6.263   1.499   4.335  0.6209 -1.0554  1.7279
 1217TIP3   OH225065   5.493   3.086   3.591  0.4543  0.4100 -0.8981
 1217TIP3    H125066   5.559   3.146   3.626 -0.0626  1.7045 -2.0712
 1217TIP3    H225067   5.455   3.132   3.516 -0.4279 -1.1181 -1.4403
 1218TIP3   OH225068   1.046   1.793   4.490  0.0705 -0.1568 -0.0975
 1218TIP3    H125069   1.042   1.820   4.398  0.7786  0.1594 -0.0461
 1218TIP3    H225070   0.956   1.770   4.513  0.0494 -1.1787 -1.1518
 1219TIP3   OH225071   5.934   1.701   4.239 -0.4608 -0.3028  0.2134
 1219TIP3    H125072   6.028   1.705   4.223 -0.2819  1.2246  1.3754
 1219TIP3    H225073   5.920   1.616   4.281  0.3140 -0.7378 -0.3856
 1220TIP3   OH225074   2.058   1.171  14.225 -0.3093  0.4549 -0.2174
 1220TIP3    H125075   2.127   1.217  14.178  0.5514 -2.6904 -2.2846
 1220TIP3    H225076   1.986   1.164  14.162 -1.1060  0.4828  0.6594
 1221TIP3   OH225077   2.780   3.170   4.456  0.2078 -0.2346  0.2463
 1221TIP3    H125078   2.686   3.189   4.447  0.1041 -1.4446 -1.7382
 1221TIP3    H225079   2.796   3.174   4.551 -1.9649 -0.5061  0.6776
 1222TIP3   OH225080   6.191   6.200   1.258  0.2233  0.9713 -0.1186
 1222TIP3    H125081   6.125   6.200   1.189  0.5439  0.9802 -0.4274
 1222TIP3    H225082   6.162   6.269   1.318 -0.0748  0.9400 -0.2233
 1223TIP3   OH225083   2.660   6.389   1.544 -0.4223 -0.3887 -0.6206
 1223TIP3    H125084   2.572   6.358   1.564 -0.1109 -1.8912 -1.4251
 1223TIP3    H225085   2.685   6.441   1.621 -0.5677 -3.1148  1.4527
 1224TIP3   OH225086   4.498   5.930   4.454  0.1969 -0.0137  0.2940
 1224TIP3    H125087   4.552   5.928   4.533 -0.0103  0.6746  0.4601
 1224TIP3    H225088   4.418   5.974   4.481 -0.8132 -1.7395  0.2632
 1225TIP3   OH225089   3.065   4.852  13.385  0.0808 -0.3319  0.1199
 1225TIP3    H125090   3.084   4.867  13.478 -2.0955  1.2606  0.4062
 1225TIP3    H225091   2.982   4.898  13.371  1.8972  2.3395 -3.3694
 1226TIP3   OH225092   2.137   1.723   1.325 -0.4001  0.3852  0.3541
 1226TIP3    H125093   2.061   1.698   1.378 -0.6758  1.2434  0.3902
 1226TIP3    H225094   2.151   1.650   1.266 -1.9095  0.6400 -0.3691
 1227TIP3   OH225095   2.874   6.689   1.379 -0.4553 -0.2117 -0.1731
 1227TIP3    H125096   2.843   6.742   1.452 -1.8928 -4.7639  2.9681
 1227TIP3    H225097   2.969   6.690   1.387 -0.5715 -0.9164  2.2188
 1228TIP3   OH225098   0.095   1.293   5.938  0.1546 -0.2240 -0.4395
 1228TIP3    H125099   0.118   1.361   6.002  0.3625 -0.3634 -0.3649
 1228TIP3    H225100   0.100   1.211   5.987 -0.4085 -0.2661 -0.4525
 1229TIP3   OH225101   3.444   3.529   1.285 -0.4290  0.6146 -0.6942
 1229TIP3    H125102   3.538   3.510   1.281 -0.7511 -1.5133  0.2439
 1229TIP3    H225103   3.403   3.465   1.226 -1.4041  0.2057  0.3745
 1230TIP3   OH225104   0.562   2.219  14.749  0.3112 -0.4020  0.2127
 1230TIP3    H125105   0.547   2.156  14.820 -0.0819 -1.0951 -0.4687
 1230TIP3    H225106   0.477   2.260  14.735  0.5767  0.3441  0.6899
 1231TIP3   OH225107   6.608   0.813  16.386  0.1911  0.3428  0.2341
 1231TIP3    H125108   6.623   0.835  16.294 -0.5047 -0.5410 -0.1056
 1231TIP3    H225109   6.634   0.721  16.393  0.0165  0.3394  0.8686
 1232TIP3   OH225110   0.335   0.358  11.980  0.0376 -0.4104 -0.1578
 1232TIP3    H125111   0.392   0.284  11.956  0.0777 -0.1960 -0.7355
 1232TIP3    H225112   0.258   0.316  12.020 -0.5849 -0.8664 -1.7585
 1233TIP3   OH225113   6.556   3.843  14.621 -0.6591  0.0339 -0.0460
 1233TIP3    H125114   6.517   3.927  14.596 -1.7035 -0.0226  1.2921
 1233TIP3    H225115   6.481   3.789  14.647 -0.1000 -1.6452 -1.7361
 1234TIP3   OH225116   6.143   2.380  12.367  0.2919 -0.2322 -0.1482
 1234TIP3    H125117   6.093   2.304  12.339 -0.3515  0.5930 -1.3438
 1234TIP3    H225118   6.078   2.450  12.376  0.5696 -0.1927  2.7066
 1235TIP3   OH225119   4.191   2.990   2.518 -0.1109  0.3546  0.1555
 1235TIP3    H125120   4.276   3.020   2.484 -0.6512  1.0376 -0.6181
 1235TIP3    H225121   4.143   2.961   2.441 -0.0954 -1.3335  0.7433
 1236TIP3   OH225122   0.501   0.014   5.118 -0.1147 -0.9758 -0.0141
 1236TIP3    H125123   0.538   0.078   5.179 -0.2324 -1.0603  0.1494
 1236TIP3    H225124   0.534   0.040   5.032  1.0150 -1.5562  0.2301
 1237TIP3   OH225125   1.965   3.124   0.772 -0.8587  0.6506 -0.0928
 1237TIP3    H125126   1.992   3.043   0.729 -1.8361  0.2360  0.0557
 1237TIP3    H225127   2.047   3.161   0.805 -0.4196 -0.3924  0.0388
 1238TIP3   OH225128   6.434   6.714  13.082  0.3589  0.4091 -0.1116
 1238TIP3    H125129   6.429   6.808  13.064  3.3701  0.3943 -1.9445
 1238TIP3    H225130   6.474   6.677  13.002  1.4041 -2.0465  1.4128
 1239TIP3   OH225131   5.071   0.711  11.446  0.6288  0.2785  0.3482
 1239TIP3    H125132   5.124   0.728  11.368 -1.6642 -0.3242 -1.4549
 1239TIP3    H225133   5.072   0.616  11.456  0.4359  0.3129  0.7074
 1240TIP3   OH225134   0.530   1.803   3.914 -0.1389 -0.3531  0.0808
 1240TIP3    H125135   0.595   1.786   3.982  0.0975  0.0226 -0.0506
 1240TIP3    H225136   0.535   1.727   3.857  2.7186  1.1725 -1.9491
 1241TIP3   OH225137   5.179   5.232  15.389 -0.4877  0.5863 -0.2690
 1241TIP3    H125138   5.104   5.207  15.444 -0.3191  0.9558  0.1327
 1241TIP3    H225139   5.223   5.149  15.370  0.2812  0.5851  1.3670
 1242TIP3   OH225140   2.129   1.141   3.206  0.3565  0.3561  0.1524
 1242TIP3    H125141   2.176   1.059   3.223  0.2304  0.5141  1.2804
 1242TIP3    H225142   2.047   1.133   3.254 -0.4949  0.3931 -1.2232
 1243TIP3   OH225143   4.048   6.030   2.953  0.0651 -0.0257 -0.3577
 1243TIP3    H125144   4.000   5.974   2.893  0.3657 -0.1341 -0.5014
 1243TIP3    H225145   4.049   6.116   2.911 -1.9358  0.5732  0.6772
 1244TIP3   OH225146   5.019   3.947   4.589  0.6431  0.0900 -0.4037
 1244TIP3    H125147   4.961   3.872   4.576  1.1226 -0.2827 -0.4606
 1244TIP3    H225148   4.963   4.023   4.576 -0.1456 -0.2361  0.9380
 1245TIP3   OH225149   3.465   4.966  15.945 -0.0264 -0.5136  0.3208
 1245TIP3    H125150   3.495   4.875  15.942 -0.4079 -0.7731  2.5460
 1245TIP3    H225151   3.405   4.973  15.871  0.2811 -1.9717 -0.1095
 1246TIP3   OH225152   3.399   2.039  11.963 -0.1323  0.2408  0.1144
 1246TIP3    H125153   3.351   2.054  11.882  1.1093  1.3199 -0.4606
 1246TIP3    H225154   3.356   2.096  12.027 -0.1529  0.5667 -0.1869
 1247TIP3   OH225155   0.151   5.351  10.606  0.5081  0.0558 -0.2134
 1247TIP3    H125156   0.158   5.263  10.569  0.0207 -0.1518  0.1704
 1247TIP3    H225157   0.203   5.348  10.686 -0.0446 -0.0893  0.1502
 1248TIP3   OH225158   5.082   2.037   0.096  0.3338 -0.0559  0.0177
 1248TIP3    H125159   5.122   2.123   0.089 -0.3831  0.2310 -0.8321
 1248TIP3    H225160   4.999   2.052   0.142  0.3718 -0.3457  0.1847
 1249TIP3   OH225161   2.054   1.732  15.798 -0.2011  0.0347  0.0915
 1249TIP3    H125162   2.019   1.660  15.747  0.1205  0.1317 -0.2738
 1249TIP3    H225163   2.136   1.754  15.755 -0.3270  0.6590  0.1601
 1250TIP3   OH225164   5.752   5.057   3.130 -0.5543  0.4539 -0.4068
 1250TIP3    H125165   5.699   5.083   3.205  0.3449 -0.6124  0.6471
 1250TIP3    H225166   5.740   4.962   3.124  2.1627 -0.0378  0.6817
 1251TIP3   OH225167   3.838   6.412  14.667 -0.3543  0.0326  0.1569
 1251TIP3    H125168   3.847   6.434  14.760 -1.1389  1.8560 -0.1447
 1251TIP3    H225169   3.790   6.329  14.667  0.3723 -0.4142  1.3864
 1252TIP3   OH225170   0.012   4.471  16.055 -0.1487 -0.4278  0.0981
 1252TIP3    H125171   0.076   4.400  16.050  0.7616  0.2723  1.2181
 1252TIP3    H225172   0.036   4.520  16.134 -1.8956  0.0449  0.3792
 1253TIP3   OH225173   4.583   5.554   4.548  0.1291 -0.1714  0.1324
 1253TIP3    H125174   4.629   5.542   4.631  0.6959  0.3600 -0.0886
 1253TIP3    H225175   4.629   5.497   4.486  1.0525  0.9654 -0.2786
 1254TIP3   OH225176   3.862   3.220  11.629  0.2677  0.1268  0.3090
 1254TIP3    H125177   3.822   3.278  11.693 -1.9604 -0.0150 -0.8507
 1254TIP3    H225178   3.952   3.211  11.658 -0.2420  1.3220  2.5058
 1255TIP3   OH225179   0.407   1.292   5.058  0.4373  0.6531 -0.1326
 1255TIP3    H125180   0.405   1.381   5.022  1.4644  0.7386 -0.0242
 1255TIP3    H225181   0.378   1.236   4.986 -1.5241  1.1779  0.2058
 1256TIP3   OH225182   1.789   2.530   0.708  0.3923 -0.6041  0.2399
 1256TIP3    H125183   1.719   2.485   0.755  0.1187 -0.5762 -0.1377
 1256TIP3    H225184   1.769   2.516   0.616  0.2532  0.3491  0.1095
 1257TIP3   OH225185   4.428   3.566  14.525 -0.2655 -0.2214 -0.4449
 1257TIP3    H125186   4.506   3.564  14.581 -0.0741  0.1920 -0.6882
 1257TIP3    H225187   4.364   3.512  14.571 -0.4225  0.8654  0.6585
 1258TIP3   OH225188   0.901   1.825   1.307 -0.7522  1.0052 -0.2567
 1258TIP3    H125189   0.839   1.790   1.243 -1.8204 -1.4601  1.9621
 1258TIP3    H225190   0.853   1.827   1.389  1.1567  2.1288  0.9142
 1259TIP3   OH225191   2.924   0.753   1.743  0.7768  0.1027  0.2736
 1259TIP3    H125192   3.011   0.744   1.704 -0.2709 -0.4253 -2.1092
 1259TIP3    H225193   2.937   0.728   1.834  3.3502  1.2989  0.3410
 1260TIP3   OH225194   4.552   5.189  13.853  0.6170 -0.1243 -0.4046
 1260TIP3    H125195   4.602   5.166  13.931 -0.1538  1.2440  0.5275
 1260TIP3    H225196   4.518   5.105  13.821 -0.4421 -0.5823  1.7191
 1261TIP3   OH225197   0.365   5.521  15.578  0.1462  0.6168  0.3480
 1261TIP3    H125198   0.287   5.466  15.565 -0.5778  1.3460  1.4028
 1261TIP3    H225199   0.438   5.460  15.575 -0.6404 -0.4498  1.5681
 1262TIP3   OH225200   6.523   2.134   5.572 -0.0578  0.5617  0.3001
 1262TIP3    H125201   6.579   2.120   5.495 -0.1260  2.5195 -0.1386
 1262TIP3    H225202   6.567   2.204   5.620 -0.6755  0.1897  1.4286
 1263TIP3   OH225203   4.386   2.737   2.007 -0.1489  0.2849 -1.0828
 1263TIP3    H125204   4.369   2.643   2.018 -0.2817  0.0750 -2.8605
 1263TIP3    H225205   4.481   2.742   1.996 -0.2061  0.2892 -1.5805
 1264TIP3   OH225206   2.711   5.468  13.953  0.3123  0.6002  0.5028
 1264TIP3    H125207   2.642   5.452  14.018  0.3139  0.8852  0.5765
 1264TIP3    H225208   2.713   5.563  13.944  0.7552  0.5972  0.5635
 1265TIP3   OH225209   2.477   5.687  14.335  0.0329  0.1205  0.6983
 1265TIP3    H125210   2.458   5.775  14.370 -1.2425 -0.0488  0.4622
 1265TIP3    H225211   2.393   5.642  14.337  0.4728 -0.7568 -0.1818
 1266TIP3   OH225212   3.551   4.207  16.184  0.1064  0.0950  0.2484
 1266TIP3    H125213   3.513   4.148  16.120 -0.2975  2.2793 -1.6375
 1266TIP3    H225214   3.645   4.204  16.167 -0.1052  1.7966 -1.5994
 1267TIP3   OH225215   5.892   5.158  16.409  0.1910 -0.0041  0.2840
 1267TIP3    H125216   5.820   5.118  16.359 -0.6014  0.7332  0.8087
 1267TIP3    H225217   5.963   5.166  16.345  0.1354 -1.5841 -0.0093
 1268TIP3   OH225218   4.805   5.160  17.216 -0.9064  0.6854  0.1706
 1268TIP3    H125219   4.757   5.113  17.149  1.6625 -1.5969 -0.2526
 1268TIP3    H225220   4.848   5.231  17.170 -1.1657  0.6666 -0.1010
 1269TIP3   OH225221   3.717   4.947  16.276  0.4529 -0.1426  0.3386
 1269TIP3    H125222   3.694   5.003  16.202 -2.6634 -2.2640 -0.5015
 1269TIP3    H225223   3.742   5.008  16.345 -0.2372  2.1116 -1.2679
 1270TIP3   OH225224   5.099   3.369  13.903 -0.5475  0.6444  0.0103
 1270TIP3    H125225   5.026   3.423  13.874  0.9808  2.2156 -1.0912
 1270TIP3    H225226   5.127   3.322  13.825  0.2599  0.8386  0.1764
 1271TIP3   OH225227   0.830   5.079   1.268  0.2269 -0.0537 -0.3001
 1271TIP3    H125228   0.923   5.080   1.247  0.1786 -1.2182 -0.6070
 1271TIP3    H225229   0.799   5.166   1.242  1.0392  0.0287 -1.0260
 1272TIP3   OH225230   2.067   2.719   3.662 -0.2787 -0.5253  0.1597
 1272TIP3    H125231   2.104   2.793   3.614 -1.5251 -0.3369 -0.5468
 1272TIP3    H225232   2.089   2.643   3.608 -2.2604 -0.2458 -1.1347
 1273TIP3   OH225233   2.853   5.514  15.475  0.1178 -0.3774  0.8827
 1273TIP3    H125234   2.858   5.586  15.537 -0.6318 -0.6780  1.3150
 1273TIP3    H225235   2.778   5.462  15.505 -0.5772 -0.2682 -0.5565
 1274TIP3   OH225236   6.332   5.363  14.435 -0.2315  0.0587  0.3545
 1274TIP3    H125237   6.339   5.280  14.482 -1.7943 -1.4898 -1.9427
 1274TIP3    H225238   6.301   5.425  14.501  1.7114 -0.9062  2.3229
 1275TIP3   OH225239   5.211   3.989  15.763 -0.4569  0.5702 -0.1990
 1275TIP3    H125240   5.191   4.022  15.675 -1.0118  0.0125 -0.2842
 1275TIP3    H225241   5.302   3.959  15.756 -1.2957 -1.9357 -1.3578
 1276TIP3   OH225242   2.730   1.254  15.121 -0.1717  0.2043 -0.0398
 1276TIP3    H125243   2.738   1.334  15.173  0.7196 -0.1593  0.4115
 1276TIP3    H225244   2.676   1.196  15.174  0.5401 -0.0804  0.3791
 1277TIP3   OH225245   5.360   4.170  15.214  0.2166  0.7713  0.0345
 1277TIP3    H125246   5.324   4.179  15.126 -0.5212  0.7716  0.3316
 1277TIP3    H225247   5.400   4.255  15.232 -0.8412  1.2423  0.2254
 1278TIP3   OH225248   0.473   4.194   5.527  0.5742 -0.2986 -0.0939
 1278TIP3    H125249   0.472   4.113   5.577  0.1840  0.1847  0.6991
 1278TIP3    H225250   0.381   4.215   5.512  0.5839  0.9799  1.3707
 1279TIP3   OH225251   4.992   5.306  15.926 -0.4579 -0.0856  0.1639
 1279TIP3    H125252   4.949   5.330  15.844 -1.6579 -0.5793  0.6171
 1279TIP3    H225253   4.959   5.371  15.989  1.8587  1.4299 -0.0847
 1280TIP3   OH225254   0.254   4.449   3.771  0.0001 -0.2523 -0.3262
 1280TIP3    H125255   0.290   4.519   3.825  0.4281 -0.0545 -0.8612
 1280TIP3    H225256   0.199   4.399   3.831 -1.6912  1.5198 -0.3024
 1281TIP3   OH225257   2.807   2.189  17.076 -0.0848 -0.3666 -0.6238
 1281TIP3    H125258   2.747   2.144  17.135  0.5941  0.3878  0.7118
 1281TIP3    H225259   2.798   2.282  17.100  0.3112 -0.0588 -1.6235
 1282TIP3   OH225260   2.510   1.076  12.267 -0.0908 -0.2754  0.4661
 1282TIP3    H125261   2.568   1.036  12.332 -1.1601 -0.8233  1.1188
 1282TIP3    H225262   2.496   1.008  12.202 -1.7393 -0.9560  1.4664
 1283TIP3   OH225263   0.511   5.209  13.000 -0.6248  0.1731 -0.5495
 1283TIP3    H125264   0.432   5.157  13.016 -1.1309  1.1990  0.3370
 1283TIP3    H225265   0.570   5.148  12.955 -1.8854 -0.6306 -1.1866
 1284TIP3   OH225266   4.775   2.860   3.466 -0.2001 -0.2813 -0.0680
 1284TIP3    H125267   4.855   2.849   3.414  0.7370 -0.5960  1.3823
 1284TIP3    H225268   4.764   2.776   3.511 -0.6421  0.1740  0.6988
 1285TIP3   OH225269   5.564   1.516  16.267 -0.3482  0.3055  0.5740
 1285TIP3    H125270   5.592   1.590  16.214 -1.0842  1.2612  1.4985
 1285TIP3    H225271   5.546   1.553  16.354 -0.3077 -1.0205  1.1787
 1286TIP3   OH225272   0.212   2.922   3.784  0.1410  0.0902  0.0131
 1286TIP3    H125273   0.139   2.984   3.782  1.5890  1.9653  1.2231
 1286TIP3    H225274   0.185   2.855   3.847 -0.3104  1.1194  0.9673
 1287TIP3   OH225275   4.257   3.956  11.268  0.0710  0.1533 -0.0817
 1287TIP3    H125276   4.211   3.915  11.195 -2.1277 -0.7385  1.7082
 1287TIP3    H225277   4.327   4.007  11.226  0.1479 -1.8485 -2.6608
 1288TIP3   OH225278   0.548   1.694   4.478 -0.5638  0.0105 -0.5529
 1288TIP3    H125279   0.528   1.601   4.484 -0.0780 -0.2094 -1.9748
 1288TIP3    H225280   0.480   1.730   4.421  0.6691  0.0184 -2.0878
 1289TIP3   OH225281   0.013   2.472   4.878  0.0708  0.1675  0.1143
 1289TIP3    H125282   0.007   2.437   4.967 -0.8080 -0.0416 -0.0116
 1289TIP3    H225283   0.101   2.509   4.872 -0.1070  0.8602  1.3311
 1290TIP3   OH225284   5.129   6.433   1.095 -0.6522 -0.3959 -0.2303
 1290TIP3    H125285   5.044   6.426   1.050 -0.5348 -0.4821 -0.4403
 1290TIP3    H225286   5.123   6.368   1.166 -1.1623  0.3341  0.4080
 1291TIP3   OH225287   4.856   6.634   5.795 -0.1657 -0.1581  0.0390
 1291TIP3    H125288   4.809   6.630   5.711  0.5468 -2.0875 -0.3196
 1291TIP3    H225289   4.878   6.727   5.805 -1.6627  0.3751 -1.1079
 1292TIP3   OH225290   4.781   0.393   1.969 -0.2447  0.4791 -0.4647
 1292TIP3    H125291   4.800   0.344   1.889  1.2208 -2.3786  1.4612
 1292TIP3    H225292   4.686   0.387   1.980 -0.4540  0.8313 -1.8758
 1293TIP3   OH225293   2.470   3.371  11.640 -0.6579  0.7941 -0.0319
 1293TIP3    H125294   2.391   3.420  11.618 -1.3477 -0.1817  0.2026
 1293TIP3    H225295   2.505   3.341  11.556 -0.0278  1.9477 -0.2106
 1294TIP3   OH225296   6.772   6.195  15.465 -0.2210  0.3406 -0.1944
 1294TIP3    H125297   6.750   6.102  15.473 -0.3950  0.2914 -1.1716
 1294TIP3    H225298   6.863   6.200  15.496 -0.7777  0.1549  1.5737
 1295TIP3   OH225299   5.834   1.074   5.829  0.4285  0.1908 -0.0111
 1295TIP3    H125300   5.810   1.071   5.922  1.7214 -1.1177  0.3140
 1295TIP3    H225301   5.930   1.066   5.829  0.4230 -0.0688 -1.4771
 1296TIP3   OH225302   4.805   1.696   4.560 -0.2139  0.4218 -1.0124
 1296TIP3    H125303   4.870   1.704   4.490  0.0659  0.5002 -0.7445
 1296TIP3    H225304   4.721   1.708   4.515  0.0034  1.3570 -1.1980
 1297TIP3   OH225305   4.093   0.300   2.613 -0.0513  0.0324 -0.5604
 1297TIP3    H125306   4.039   0.326   2.538 -1.7648 -1.6569 -0.0074
 1297TIP3    H225307   4.070   0.362   2.682  2.1968  2.1637 -1.5735
 1298TIP3   OH225308   6.437   6.280  13.489  0.1513 -0.2306 -0.1401
 1298TIP3    H125309   6.497   6.219  13.447  1.1221 -1.3751  2.6818
 1298TIP3    H225310   6.493   6.352  13.518  0.4308 -1.5264  2.9345
 1299TIP3   OH225311   6.598   5.132  12.024  0.5231  0.1867 -0.4561
 1299TIP3    H125312   6.638   5.131  11.937  1.9232 -0.5586  0.1615
 1299TIP3    H225313   6.543   5.054  12.026  0.0991  0.4754 -0.8445
 1300TIP3   OH225314   1.528   5.897  13.946  0.3032 -0.4295 -0.1799
 1300TIP3    H125315   1.510   5.986  13.976  0.4989 -0.2036 -0.7371
 1300TIP3    H225316   1.529   5.902  13.851  1.1475 -0.8666 -0.2041
 1301TIP3   OH225317   0.287   4.841   2.640  0.1916  0.0444 -0.1219
 1301TIP3    H125318   0.346   4.766   2.638 -0.2476 -0.3066 -0.1686
 1301TIP3    H225319   0.205   4.808   2.602 -0.4194  0.1783  1.0283
 1302TIP3   OH225320   2.679   4.275   4.293 -0.5958 -0.4807 -0.1974
 1302TIP3    H125321   2.736   4.222   4.238 -1.1330 -0.6268 -0.6263
 1302TIP3    H225322   2.677   4.361   4.250 -1.2152 -0.6687 -0.5499
 1303TIP3   OH225323   2.554   2.534  13.803  0.0618  0.6892  0.3894
 1303TIP3    H125324   2.475   2.515  13.855 -1.1437  1.2223 -1.1701
 1303TIP3    H225325   2.625   2.494  13.853 -1.1642  0.3164  1.9365
 1304TIP3   OH225326   2.361   5.078  15.003  0.1952  0.3125  0.4223
 1304TIP3    H125327   2.266   5.074  14.988  0.4556  0.0964 -1.2840
 1304TIP3    H225328   2.382   4.994  15.043 -0.5863  1.0870  2.6291
 1305TIP3   OH225329   2.179   4.201   5.871  0.2467 -0.0550  0.0998
 1305TIP3    H125330   2.115   4.265   5.902  0.9434  0.4458  0.5459
 1305TIP3    H225331   2.128   4.138   5.822 -0.5270  0.5895  0.0520
 1306TIP3   OH225332   4.129   3.931  10.476  0.5333  0.0341 -0.0504
 1306TIP3    H125333   4.052   3.960  10.526  1.2015 -0.4503  1.3054
 1306TIP3    H225334   4.100   3.849  10.434  0.1397  0.1374  0.0165
 1307TIP3   OH225335   4.239   6.055  16.167 -0.3687 -0.0892  0.2382
 1307TIP3    H125336   4.303   5.990  16.197  0.3425 -0.9527 -2.8345
 1307TIP3    H225337   4.154   6.019  16.192  0.0904 -1.5527 -0.2433
 1308TIP3   OH225338   1.715   3.341   1.199  0.4158  0.6350  0.1002
 1308TIP3    H125339   1.619   3.344   1.197  0.3828 -0.3106 -0.4246
 1308TIP3    H225340   1.741   3.346   1.107  0.7944 -0.6102  0.1129
 1309TIP3   OH225341   5.642   0.670   2.583 -0.2858  0.2359 -0.0646
 1309TIP3    H125342   5.701   0.632   2.648 -0.1451  0.3944 -0.1013
 1309TIP3    H225343   5.686   0.750   2.554 -0.1331 -0.0675 -0.6865
 1310TIP3   OH225344   5.157   2.755   2.963  0.0537 -0.3627 -0.3442
 1310TIP3    H125345   5.146   2.840   3.005 -0.9442  0.4868 -2.2041
 1310TIP3    H225346   5.223   2.710   3.016  1.0284  1.7864  0.3571
 1311TIP3   OH225347   4.818   3.271  12.998  0.6356  1.0011 -0.0508
 1311TIP3    H125348   4.859   3.318  12.925  2.1561  1.5920  1.1218
 1311TIP3    H225349   4.782   3.192  12.959  2.1608  0.8898 -1.3163
 1312TIP3   OH225350   1.460   5.959   1.571  0.4555  0.1812  0.0607
 1312TIP3    H125351   1.552   5.958   1.547  0.0677  0.4738 -1.6158
 1312TIP3    H225352   1.419   5.895   1.512 -0.9191  2.6395 -1.8829
 1313TIP3   OH225353   6.772   6.149   4.259  0.2841  0.9009 -0.4825
 1313TIP3    H125354   6.707   6.078   4.266  2.9915 -1.9861 -2.2022
 1313TIP3    H225355   6.785   6.177   4.350 -0.1440 -1.5867  0.4406
 1314TIP3   OH225356   4.888   1.922  11.495 -0.2671 -0.1293  0.0625
 1314TIP3    H125357   4.968   1.872  11.512 -0.0536  0.9462  2.6335
 1314TIP3    H225358   4.889   1.993  11.559 -0.0711  3.9182 -3.9128
 1315TIP3   OH225359   4.950   3.524   0.566  0.1583  0.1996  0.0235
 1315TIP3    H125360   4.962   3.580   0.490  1.5578  0.6561  0.5438
 1315TIP3    H225361   5.038   3.515   0.603 -0.3181 -0.9250  0.9460
 1316TIP3   OH225362   5.830   2.209   6.411 -0.7565  0.0455 -0.1248
 1316TIP3    H125363   5.777   2.131   6.397 -0.9825  0.3597 -1.0808
 1316TIP3    H225364   5.883   2.188   6.488 -2.6482 -0.0543  1.1984
 1317TIP3   OH225365   6.152   4.875   4.008 -0.1304  0.0872 -0.0785
 1317TIP3    H125366   6.228   4.924   4.040 -0.5467  0.1379  0.8798
 1317TIP3    H225367   6.183   4.785   3.999  0.7329  0.5586 -2.1807
 1318TIP3   OH225368   5.891   2.639   5.871  0.0640  0.1353  0.3835
 1318TIP3    H125369   5.893   2.688   5.954  1.1091 -0.1384  0.5300
 1318TIP3    H225370   5.977   2.598   5.865 -0.2487 -0.4195 -0.5070
 1319TIP3   OH225371   5.621   0.675  11.265 -0.1625  0.3516  0.2352
 1319TIP3    H125372   5.710   0.642  11.283  0.6925  2.5783  0.3606
 1319TIP3    H225373   5.576   0.601  11.225  1.8035 -0.8030  0.0282
 1320TIP3   OH225374   1.407   2.649   5.418  0.3821  0.4334 -0.0953
 1320TIP3    H125375   1.339   2.710   5.392  0.0904  0.3043  0.3513
 1320TIP3    H225376   1.427   2.673   5.509 -1.0721 -1.3149  0.7463
 1321TIP3   OH225377   6.445   1.282   0.686 -0.0021 -0.3028 -0.6393
 1321TIP3    H125378   6.427   1.374   0.703 -0.2140 -0.4776  0.0953
 1321TIP3    H225379   6.538   1.272   0.707  0.4132  0.0627 -2.1492
 1322TIP3   OH225380   5.599   2.934  14.773  0.3438  0.0433 -0.0823
 1322TIP3    H125381   5.566   2.867  14.713 -2.3729  0.5506  0.7248
 1322TIP3    H225382   5.655   2.886  14.834 -1.9115 -1.6718  0.7774
 1323TIP3   OH225383   6.465   5.579  14.305  0.1031 -0.5318 -0.0762
 1323TIP3    H125384   6.408   5.513  14.345  0.6425  0.2717  2.1487
 1323TIP3    H225385   6.441   5.577  14.212 -3.0566 -0.7423  0.6112
 1324TIP3   OH225386   2.793   2.012   2.790  0.5102  0.4790 -0.2876
 1324TIP3    H125387   2.740   2.037   2.715  0.2888 -0.4243 -0.4443
 1324TIP3    H225388   2.884   2.024   2.761  0.4504 -0.6501 -1.0011
 1325TIP3   OH225389   2.974   4.111   5.287  0.1834 -0.3789 -0.4847
 1325TIP3    H125390   3.034   4.062   5.231 -0.1190  0.3950 -1.5142
 1325TIP3    H225391   2.934   4.175   5.228 -1.2127 -0.4893  0.3008
 1326TIP3   OH225392   3.528   2.311   1.580 -0.0666  0.8540 -0.1571
 1326TIP3    H125393   3.514   2.246   1.511  0.6175  0.7364 -0.1998
 1326TIP3    H225394   3.611   2.353   1.557  0.0722  0.9486  0.4894
 1327TIP3   OH225395   6.665   5.331   3.686  0.1034  0.9387 -0.0448
 1327TIP3    H125396   6.632   5.292   3.767  1.0346  2.4170  1.1114
 1327TIP3    H225397   6.758   5.307   3.684 -0.1181  0.0771 -1.2274
 1328TIP3   OH225398   5.483   4.075   2.225 -0.2999  0.2550 -0.1206
 1328TIP3    H125399   5.546   4.007   2.199  0.6932  0.6805  1.0604
 1328TIP3    H225400   5.407   4.027   2.257 -0.5795 -0.2695 -1.5085
 1329TIP3   OH225401   6.697   5.269  12.649 -0.3804 -0.1552 -0.4010
 1329TIP3    H125402   6.712   5.304  12.561 -0.4269  0.7924 -0.0334
 1329TIP3    H225403   6.665   5.343  12.700 -0.5025 -0.7342  0.3843
 1330TIP3   OH225404   6.704   3.191  15.703 -0.6195 -0.6317  0.4949
 1330TIP3    H125405   6.615   3.169  15.676 -1.0061  1.2428  0.1216
 1330TIP3    H225406   6.710   3.160  15.794 -1.8521 -0.2796  0.7073
 1331TIP3   OH225407   4.407   2.436  11.934 -0.4065  0.1539  0.7040
 1331TIP3    H125408   4.339   2.405  11.994  0.3183 -1.8538  0.5830
 1331TIP3    H225409   4.485   2.445  11.989  0.1986 -1.4572  0.1818
 1332TIP3   OH225410   0.376   4.337  12.510  0.3223  0.0869 -0.0445
 1332TIP3    H125411   0.294   4.288  12.510  0.3531  0.0352 -0.0788
 1332TIP3    H225412   0.406   4.334  12.419  0.2469  0.2993 -0.0770
 1333TIP3   OH225413   3.635   6.026  11.844  0.0705  0.1213 -0.1074
 1333TIP3    H125414   3.588   5.983  11.916  0.3044 -1.0661 -0.6511
 1333TIP3    H225415   3.727   6.009  11.862  0.1210 -0.3491 -0.7941
 1334TIP3   OH225416   6.562   5.509   2.268  0.2794 -0.2523  0.2878
 1334TIP3    H125417   6.524   5.446   2.330 -0.0421 -0.5294 -0.1857
 1334TIP3    H225418   6.647   5.472   2.247 -0.2890 -1.0438 -0.7217
 1335TIP3   OH225419   1.106   3.957  14.119 -0.1024 -0.6131  0.0613
 1335TIP3    H125420   1.031   3.900  14.105 -1.4278  0.8523  0.8959
 1335TIP3    H225421   1.147   3.965  14.033 -2.0719  0.1011 -0.8596
 1336TIP3   OH225422   4.722   1.976  16.075  0.4691 -0.7678  0.3091
 1336TIP3    H125423   4.734   2.068  16.098  0.8496 -1.0799  1.4007
 1336TIP3    H225424   4.798   1.955  16.020 -0.1350 -0.1807 -0.7864
 1337TIP3   OH225425   0.759   6.544   2.886  0.3231  0.2267  0.2599
 1337TIP3    H125426   0.701   6.577   2.817 -0.6574 -0.6126  0.6415
 1337TIP3    H225427   0.788   6.622   2.933 -1.3101  0.6296  0.6594
 1338TIP3   OH225428   2.902   1.362   2.394  0.4230 -0.3052 -0.2185
 1338TIP3    H125429   2.823   1.355   2.341  0.1686 -0.0014  0.1155
 1338TIP3    H225430   2.959   1.420   2.343  0.2871 -0.2292 -0.2861
 1339TIP3   OH225431   4.557   5.426   4.819  0.4694 -0.2951  0.0812
 1339TIP3    H125432   4.610   5.352   4.788 -0.3023 -0.9561  0.2887
 1339TIP3    H225433   4.620   5.493   4.843  1.2665 -1.3448  1.0350
 1340TIP3   OH225434   1.562   2.363   4.143 -0.0966 -0.0810 -0.0869
 1340TIP3    H125435   1.604   2.384   4.060 -1.4933  0.0850 -0.7741
 1340TIP3    H225436   1.471   2.391   4.132  0.0155  1.3688  2.0427
 1341TIP3   OH225437   2.621   6.659  16.891  0.4902  0.5597  0.2230
 1341TIP3    H125438   2.689   6.725  16.882 -0.2335  1.2863  0.0270
 1341TIP3    H225439   2.561   6.694  16.957  0.4541 -0.2091  0.6178
 1342TIP3   OH225440   4.543   1.221   4.471  0.4089 -0.5331  0.2582
 1342TIP3    H125441   4.625   1.258   4.437  0.8412 -1.8782 -0.2495
 1342TIP3    H225442   4.535   1.256   4.560  0.3340  1.4233 -0.4690
 1343TIP3   OH225443   5.752   3.015   0.573 -0.1097 -0.3152  0.4325
 1343TIP3    H125444   5.820   3.042   0.511 -2.0069  1.7969 -0.8672
 1343TIP3    H225445   5.670   3.037   0.530 -1.6846 -2.6795  1.9902
 1344TIP3   OH225446   4.349   4.357  16.985  0.6013  1.2178 -0.1624
 1344TIP3    H125447   4.308   4.282  17.028  0.0027  0.0333 -2.5834
 1344TIP3    H225448   4.276   4.404  16.944  1.2670  1.3556 -1.2355
 1345TIP3   OH225449   0.956   0.110  16.808  0.2836  0.0819  0.6035
 1345TIP3    H125450   0.979   0.017  16.811  0.1718  0.0396  0.1482
 1345TIP3    H225451   1.040   0.156  16.807  0.3414 -0.0264  0.5082
 1346TIP3   OH225452   3.724   6.324  16.721 -0.0861  0.5589 -0.5450
 1346TIP3    H125453   3.693   6.246  16.767 -0.9588  1.4323  0.4136
 1346TIP3    H225454   3.703   6.308  16.629 -0.1417 -0.3683 -0.3836
 1347TIP3   OH225455   3.950   0.382  12.724 -0.1878 -0.2117  0.0294
 1347TIP3    H125456   4.037   0.380  12.765 -1.0328 -0.0724  1.9644
 1347TIP3    H225457   3.934   0.292  12.697  0.4342 -0.3039 -0.0494
 1348TIP3   OH225458   5.390   5.321   3.637 -0.1143 -0.2193  0.1957
 1348TIP3    H125459   5.478   5.359   3.637  0.7851 -2.1120  2.0806
 1348TIP3    H225460   5.390   5.261   3.563  0.2644 -0.3938  0.3351
 1349TIP3   OH225461   4.192   4.643  14.385 -0.3502  0.0038  0.5251
 1349TIP3    H125462   4.204   4.738  14.388 -1.5667  0.1586  0.6924
 1349TIP3    H225463   4.098   4.630  14.383 -0.2043 -1.1675 -1.0150
 1350TIP3   OH225464   2.143   3.260  15.230  0.0782 -0.7763 -0.3426
 1350TIP3    H125465   2.052   3.275  15.257  0.8374 -0.7730  2.4850
 1350TIP3    H225466   2.148   3.297  15.142 -2.7225 -1.0482 -0.7030
 1351TIP3   OH225467   2.515   4.055  16.186 -0.6645 -0.5993 -0.2043
 1351TIP3    H125468   2.420   4.065  16.190 -0.5623 -0.0577  2.7863
 1351TIP3    H225469   2.528   3.960  16.193 -0.9680 -0.7481 -1.4227
 1352TIP3   OH225470   1.310   5.698   4.214  0.3626  0.1535  0.6898
 1352TIP3    H125471   1.296   5.629   4.149 -1.7570 -0.0462  1.2777
 1352TIP3    H225472   1.375   5.661   4.274 -1.4578 -1.8329  1.5616
 1353TIP3   OH225473   1.626   3.629  14.846  0.0451 -0.3445  0.6896
 1353TIP3    H125474   1.542   3.617  14.801 -0.1934  0.5459  0.8712
 1353TIP3    H225475   1.608   3.602  14.936 -0.0205 -0.2528  0.7047
 1354TIP3   OH225476   1.661   6.484  13.357 -0.2752 -0.1722  0.4870
 1354TIP3    H125477   1.644   6.417  13.423 -2.5922 -1.2032 -1.0208
 1354TIP3    H225478   1.738   6.451  13.310 -0.2417 -0.8062  0.9722
 1355TIP3   OH225479   2.297   4.082  13.885  0.4101 -0.0615 -0.3428
 1355TIP3    H125480   2.284   4.003  13.938  1.3510 -1.3432 -1.8935
 1355TIP3    H225481   2.389   4.104  13.898  0.2800  0.4843 -0.3285
 1356TIP3   OH225482   1.153   4.982  12.225 -0.1503  0.1040  0.2923
 1356TIP3    H125483   1.084   4.915  12.229 -0.1247  0.0006 -0.7034
 1356TIP3    H225484   1.223   4.947  12.280  0.3125 -1.2406 -1.0838
 1357TIP3   OH225485   3.648   0.583  16.526  0.4567  0.0724 -0.2628
 1357TIP3    H125486   3.658   0.647  16.455  3.8022 -0.9091 -0.8845
 1357TIP3    H225487   3.640   0.636  16.605  0.2254  1.2372 -1.0441
 1358TIP3   OH225488   4.722   6.528  17.175 -0.3004  0.2624  0.1593
 1358TIP3    H125489   4.790   6.495  17.233 -0.2126 -0.5009 -0.3605
 1358TIP3    H225490   4.640   6.495  17.212 -0.5474  2.1655  1.4665
 1359TIP3   OH225491   3.118   0.677   2.058 -0.3915  1.0162  0.0442
 1359TIP3    H125492   3.077   0.751   2.102 -2.5068 -0.5290  0.8391
 1359TIP3    H225493   3.052   0.645   1.997 -0.5985 -1.6678  1.4796
 1360TIP3   OH225494   0.183   3.543  11.465 -0.0287  0.2045  0.3044
 1360TIP3    H125495   0.133   3.489  11.526 -3.3437  2.4698 -0.1428
 1360TIP3    H225496   0.155   3.514  11.378  1.9034 -0.5563 -0.1207
 1361TIP3   OH225497   3.945   6.008  14.727 -0.3431 -0.2516 -0.0452
 1361TIP3    H125498   4.026   6.027  14.774  0.0275 -0.0043 -0.7731
 1361TIP3    H225499   3.917   5.922  14.761 -2.3949  1.6733  3.7731
 1362TIP3   OH225500   1.876   1.694   0.324  0.0676  0.5080  0.4204
 1362TIP3    H125501   1.969   1.677   0.338  0.5560  0.3475 -2.4716
 1362TIP3    H225502   1.871   1.738   0.239 -2.4917  0.6048  0.5186
 1363TIP3   OH225503   5.936   6.588  12.012 -0.6667  0.4682  0.2020
 1363TIP3    H125504   5.933   6.494  12.028  1.7414  0.2823 -0.0837
 1363TIP3    H225505   5.874   6.625  12.075 -1.0783 -1.2488  0.8506
 1364TIP3   OH225506   5.805   2.092   3.277  0.6613  0.1576  0.2624
 1364TIP3    H125507   5.717   2.099   3.313  1.5927  0.3262  2.7053
 1364TIP3    H225508   5.831   2.183   3.259 -0.2388  0.0044 -2.1529
 1365TIP3   OH225509   6.118   6.622  13.418  0.1867  0.9492 -0.0907
 1365TIP3    H125510   6.199   6.581  13.448  1.0864  2.3568 -0.4647
 1365TIP3    H225511   6.084   6.563  13.350  1.2610  0.6512 -0.3823
 1366TIP3   OH225512   6.382   3.773   5.781 -0.0430  0.6661 -0.4697
 1366TIP3    H125513   6.287   3.777   5.789 -0.1024 -0.9468 -0.1404
 1366TIP3    H225514   6.414   3.763   5.871  0.4061  0.5162 -0.6426
 1367TIP3   OH225515   2.356   4.741  11.609 -0.3757  0.1079 -0.2970
 1367TIP3    H125516   2.399   4.724  11.526 -1.2876 -1.5570 -0.4766
 1367TIP3    H225517   2.334   4.834  11.607  2.4141  0.8623 -0.5262
 1368TIP3   OH225518   3.249   4.855  16.589 -0.4680 -0.2265 -0.1558
 1368TIP3    H125519   3.309   4.914  16.635  1.4200 -2.3867  0.3462
 1368TIP3    H225520   3.176   4.842  16.651 -0.7615  1.2689 -0.1524
 1369TIP3   OH225521   2.848   3.676  14.324  0.8904  0.7375  0.0306
 1369TIP3    H125522   2.927   3.708  14.280  1.0535  1.0640  0.5428
 1369TIP3    H225523   2.788   3.652  14.254  1.0635  1.4525 -0.3671
 1370TIP3   OH225524   6.500   2.344   2.770  0.1082  0.3459 -0.5644
 1370TIP3    H125525   6.410   2.320   2.749  0.0202  0.4447 -0.2974
 1370TIP3    H225526   6.527   2.402   2.698  0.1802 -0.2089 -0.9895
 1371TIP3   OH225527   1.172   0.555  14.063 -0.2116  0.6061  0.6726
 1371TIP3    H125528   1.134   0.634  14.101 -0.3668  0.4958  0.7476
 1371TIP3    H225529   1.130   0.483  14.109  0.0801  0.4804  0.7447
 1372TIP3   OH225530   1.149   0.109  14.142  0.1077  0.2557  0.2837
 1372TIP3    H125531   1.124   0.022  14.111 -1.3645  0.8741 -0.3750
 1372TIP3    H225532   1.236   0.097  14.179  1.0946 -0.9868 -2.1960
 1373TIP3   OH225533   4.517   5.092   3.080 -0.2094 -0.4180  0.2598
 1373TIP3    H125534   4.442   5.117   3.135 -0.5850 -0.7057 -0.1200
 1373TIP3    H225535   4.534   5.001   3.103  0.9956  0.0748  1.4527
 1374TIP3   OH225536   0.021   4.271  15.457  0.2804 -0.0160  0.2904
 1374TIP3    H125537  -0.073   4.286  15.449  0.0936 -1.0068  0.4669
 1374TIP3    H225538   0.042   4.296  15.547 -0.0058 -0.6892  0.5531
 1375TIP3   OH225539   1.633   4.524  14.892  0.2783 -0.2293  0.0971
 1375TIP3    H125540   1.636   4.596  14.955  1.4879  1.2482 -1.5550
 1375TIP3    H225541   1.680   4.557  14.816 -0.1102 -2.3859 -1.1519
 1376TIP3   OH225542   2.153   5.178   4.302 -0.3673 -0.1038 -0.3457
 1376TIP3    H125543   2.224   5.131   4.259 -1.4310 -0.4444 -1.8179
 1376TIP3    H225544   2.110   5.226   4.232 -0.7610  1.1978  0.7433
 1377TIP3   OH225545   2.754   2.442  17.190 -0.6560 -0.1140 -0.8159
 1377TIP3    H125546   2.661   2.433  17.206  0.0899 -1.9062  4.0767
 1377TIP3    H225547   2.783   2.513  17.246  1.1359 -0.6755 -0.9334
 1378TIP3   OH225548   4.242   5.488   5.577  0.1284  0.3181 -0.0891
 1378TIP3    H125549   4.217   5.538   5.654  0.2198  0.5703 -0.2222
 1378TIP3    H225550   4.163   5.487   5.522  0.4902  1.3739 -0.6466
 1379TIP3   OH225551   3.878   4.005  14.066 -0.0345  0.1781 -0.1347
 1379TIP3    H125552   3.931   3.961  13.999  0.3704  0.9297 -0.3128
 1379TIP3    H225553   3.926   3.991  14.147 -0.7451 -1.1079  0.0950
 1380TIP3   OH225554   4.107   1.778  17.226 -0.2032  0.4965 -0.3940
 1380TIP3    H125555   4.066   1.856  17.188 -1.4127 -0.4369 -1.0744
 1380TIP3    H225556   4.098   1.711  17.158  1.8827  0.0509 -0.2986
 1381TIP3   OH225557   6.188   1.802   4.563 -0.3485 -0.2797  0.0012
 1381TIP3    H125558   6.166   1.727   4.508 -0.7547  0.1193 -0.3880
 1381TIP3    H225559   6.177   1.878   4.505  1.1977  0.0059  0.0368
 1382TIP3   OH225560   3.671   1.692   2.573  0.5869  0.1324 -0.1824
 1382TIP3    H125561   3.667   1.769   2.629  2.8363  0.3800 -0.2524
 1382TIP3    H225562   3.668   1.728   2.484 -0.7829 -0.0876 -0.2455
 1383TIP3   OH225563   5.338   0.512   4.858 -1.1563 -0.6420  0.2532
 1383TIP3    H125564   5.270   0.517   4.791 -0.6248  0.1847 -0.2426
 1383TIP3    H225565   5.313   0.577   4.923 -2.7693 -2.8020  1.9609
 1384TIP3   OH225566   6.676   6.760   3.801 -0.0268  0.1609  0.1613
 1384TIP3    H125567   6.596   6.813   3.792 -0.1638 -0.1097 -0.1999
 1384TIP3    H225568   6.657   6.679   3.755  0.0531 -0.3595  1.0238
 1385TIP3   OH225569   5.004   0.779  13.218 -0.1095  0.3137 -0.5023
 1385TIP3    H125570   5.085   0.817  13.184 -0.2294  1.0888  0.0345
 1385TIP3    H225571   4.964   0.850  13.269  0.9068 -1.1996  2.6823
 1386TIP3   OH225572   2.533   3.290  13.447  0.2420 -0.0254  0.0430
 1386TIP3    H125573   2.492   3.356  13.503 -1.0062  0.0722 -0.9330
 1386TIP3    H225574   2.534   3.210  13.501  1.0805  0.5913  0.9659
 1387TIP3   OH225575   2.758   2.735  14.095 -0.4553  0.4614  0.0617
 1387TIP3    H125576   2.664   2.750  14.089 -0.4136  0.6519 -0.1486
 1387TIP3    H225577   2.797   2.823  14.088 -0.1811  0.2382 -1.6464
 1388TIP3   OH225578   6.486   1.750   5.807 -0.4011 -0.0474 -0.2908
 1388TIP3    H125579   6.578   1.751   5.831 -0.6862 -1.2921  0.9669
 1388TIP3    H225580   6.469   1.661   5.778 -0.8749  0.5568 -2.0090
 1389TIP3   OH225581   1.944   4.790  14.517 -0.5443  0.3059  0.7112
 1389TIP3    H125582   1.968   4.745  14.436  0.1371  0.2681  0.9237
 1389TIP3    H225583   2.013   4.766  14.578 -1.2493  0.0344  1.4179
 1390TIP3   OH225584   4.585   4.787  11.495  0.4013  0.2368 -0.7276
 1390TIP3    H125585   4.567   4.744  11.412 -0.1138  0.7198 -0.8743
 1390TIP3    H225586   4.653   4.851  11.474 -0.2759  0.8951 -0.9534
 1391TIP3   OH225587   3.709   4.206   2.096 -0.1638  0.0818  0.1258
 1391TIP3    H125588   3.627   4.253   2.082 -0.4200 -0.5492 -0.5988
 1391TIP3    H225589   3.761   4.264   2.150 -0.8037  0.8164 -0.0228
 1392TIP3   OH225590   1.678   1.141   5.919 -0.4653 -0.6032 -0.3310
 1392TIP3    H125591   1.770   1.166   5.915 -0.7192  0.4744  0.1213
 1392TIP3    H225592   1.676   1.071   5.985 -0.0058 -0.4527 -0.1476
 1393TIP3   OH225593   4.784   0.298  11.154 -0.6730 -0.0710  0.1194
 1393TIP3    H125594   4.713   0.243  11.120 -0.7774  0.2481 -0.1803
 1393TIP3    H225595   4.851   0.296  11.085 -0.2906 -0.5573  0.4992
 1394TIP3   OH225596   6.437   5.823  14.598 -0.1147 -0.4537  0.2779
 1394TIP3    H125597   6.438   5.847  14.506  3.2991 -1.4947 -0.0848
 1394TIP3    H225598   6.346   5.835  14.625 -1.6741 -1.8379 -3.6556
 1395TIP3   OH225599   0.311   4.361   4.725 -0.0462  0.2311 -0.0445
 1395TIP3    H125600   0.327   4.323   4.811 -1.0394  1.0204  0.5007
 1395TIP3    H225601   0.380   4.425   4.713  0.9531 -0.8811 -0.4774
 1396TIP3   OH225602   2.160   5.270  14.839  0.3387 -0.1525 -0.2155
 1396TIP3    H125603   2.091   5.313  14.889  0.7960 -0.0488  0.3419
 1396TIP3    H225604   2.186   5.195  14.893  1.2482  0.3038 -0.0003
 1397TIP3   OH225605   5.789   5.328   4.564  0.3335  0.1917 -0.4666
 1397TIP3    H125606   5.776   5.394   4.496  0.2944  0.5770 -0.0843
 1397TIP3    H225607   5.838   5.258   4.520  1.1033  0.8412 -0.6527
 1398TIP3   OH225608   0.136   0.210  15.474 -0.3073  0.5143 -0.2905
 1398TIP3    H125609   0.059   0.193  15.421 -0.6548 -0.3865  0.4813
 1398TIP3    H225610   0.207   0.164  15.430 -0.2840  0.9918 -0.7664
 1399TIP3   OH225611   0.948   3.291  16.494 -0.3863 -0.4514 -0.0995
 1399TIP3    H125612   0.962   3.196  16.492  1.1705 -0.3301  1.7771
 1399TIP3    H225613   1.027   3.326  16.536 -0.6568  1.7474 -1.2814
 1400TIP3   OH225614   3.598   5.361  13.348  0.1177 -0.6212  0.3041
 1400TIP3    H125615   3.676   5.411  13.324 -0.0289 -0.1530  0.7708
 1400TIP3    H225616   3.581   5.305  13.273 -0.6964  1.2161 -0.9530
 1401TIP3   OH225617   6.610   6.402   5.355 -0.3114 -0.3564  0.2913
 1401TIP3    H125618   6.683   6.441   5.307 -0.5102  1.3748  1.3240
 1401TIP3    H225619   6.539   6.397   5.291  0.4738 -1.4735 -0.5516
 1402TIP3   OH225620   2.742   2.161  15.706  0.1499 -0.5346 -0.0173
 1402TIP3    H125621   2.820   2.144  15.652  1.8565  1.2461  1.7324
 1402TIP3    H225622   2.767   2.129  15.793 -0.9749  0.3589  0.6475
 1403TIP3   OH225623   0.853   5.222   5.552 -0.1248 -0.0244  0.1940
 1403TIP3    H125624   0.858   5.300   5.609  0.8350  0.0209  0.0730
 1403TIP3    H225625   0.784   5.168   5.591 -0.1497  0.4566  0.8344
 1404TIP3   OH225626   2.512   0.859   4.154 -0.0436  0.2318 -0.0643
 1404TIP3    H125627   2.452   0.904   4.095 -0.1100 -1.6302 -1.4656
 1404TIP3    H225628   2.484   0.768   4.154  2.4570 -0.6276 -0.4063
 1405TIP3   OH225629   1.538   0.602  11.485 -0.2207  0.1266  0.0439
 1405TIP3    H125630   1.630   0.628  11.484 -0.1610 -0.0249  1.1264
 1405TIP3    H225631   1.500   0.650  11.558 -0.9100 -0.1344 -0.1364
 1406TIP3   OH225632   5.566   3.387  10.803  0.0095 -0.0953  0.4245
 1406TIP3    H125633   5.506   3.405  10.875  0.2137 -0.4973  0.7031
 1406TIP3    H225634   5.527   3.431  10.727 -0.0860  0.5237  0.8270
 1407TIP3   OH225635   3.625   0.810  14.055 -0.3659  0.0302  0.7237
 1407TIP3    H125636   3.553   0.869  14.079 -0.5828 -0.1282  0.4659
 1407TIP3    H225637   3.622   0.741  14.122 -0.7618 -0.2346  0.4364
 1408TIP3   OH225638   5.779   0.913   5.627  0.5618 -0.1088  0.2792
 1408TIP3    H125639   5.789   0.969   5.704 -2.0288  1.3394 -0.3152
 1408TIP3    H225640   5.857   0.932   5.574  1.0531  0.9173  1.3183
 1409TIP3   OH225641   3.735   6.221   0.641 -0.2880  0.2409 -0.5853
 1409TIP3    H125642   3.778   6.187   0.719 -0.4441 -0.2316 -0.7016
 1409TIP3    H225643   3.701   6.144   0.596 -1.4321  0.6101 -0.3949
 1410TIP3   OH225644   3.508   6.531  11.310 -0.1253 -0.9988 -0.0326
 1410TIP3    H125645   3.549   6.555  11.226 -2.6386 -0.6512 -1.2585
 1410TIP3    H225646   3.512   6.435  11.311  1.3882 -0.9699  0.3060
 1411TIP3   OH225647   4.942   5.621  11.423 -0.0102 -0.1594  0.3037
 1411TIP3    H125648   4.884   5.688  11.387  0.8780  0.1009 -0.7184
 1411TIP3    H225649   4.965   5.566  11.348 -0.8831 -1.7583  1.1647
 1412TIP3   OH225650   2.298   4.275  12.161  0.6771 -0.0678  0.1511
 1412TIP3    H125651   2.256   4.311  12.083  0.6004  1.3761  0.8210
 1412TIP3    H225652   2.391   4.293  12.148  0.8059 -0.9425 -0.1627
 1413TIP3   OH225653   3.172   6.746  15.108 -0.1376  0.1065  0.4173
 1413TIP3    H125654   3.187   6.827  15.158 -0.4000 -0.0182  0.6971
 1413TIP3    H225655   3.255   6.698  15.115  0.8504  1.3655 -1.6547
 1414TIP3   OH225656   5.051   6.514  16.950 -0.1401 -0.2740  0.5284
 1414TIP3    H125657   5.061   6.584  17.014  1.5204 -0.6337  0.6977
 1414TIP3    H225658   5.026   6.559  16.869  1.7043  0.6308  0.4224
 1415TIP3   OH225659   6.171   3.617  14.881 -0.1076 -0.6034 -0.2487
 1415TIP3    H125660   6.197   3.565  14.957  0.9059  0.1925 -0.0284
 1415TIP3    H225661   6.143   3.552  14.816  0.2123 -1.3680  0.3604
 1416TIP3   OH225662   2.453   5.226   2.722  0.0779 -0.1844  0.3942
 1416TIP3    H125663   2.495   5.175   2.792  0.8232 -0.4238 -0.2175
 1416TIP3    H225664   2.472   5.178   2.642 -0.4557  0.2881 -0.0273
 1417TIP3   OH225665   1.615   6.350  12.541 -0.0398  0.0686 -0.3423
 1417TIP3    H125666   1.563   6.431  12.540 -0.3385 -0.1160  0.1429
 1417TIP3    H225667   1.694   6.373  12.590 -0.3951 -0.0953  0.3167
 1418TIP3   OH225668   2.340   5.099  12.059  0.3487  0.5025 -0.4556
 1418TIP3    H125669   2.283   5.069  12.129 -0.2489 -0.1122 -1.1824
 1418TIP3    H225670   2.428   5.075  12.088 -0.0095 -1.0687 -0.5304
 1419TIP3   OH225671   4.365   0.464   2.456  0.0521  0.3025  0.5991
 1419TIP3    H125672   4.279   0.485   2.421 -0.3877 -0.9226  0.9031
 1419TIP3    H225673   4.356   0.475   2.551 -0.5828 -2.3596  0.9274
 1420TIP3   OH225674   0.570   4.761  14.129  0.2107 -0.3903  0.1120
 1420TIP3    H125675   0.519   4.834  14.093  0.5537 -0.7057 -1.0567
 1420TIP3    H225676   0.607   4.795  14.211  1.0743  1.0371 -0.8323
 1421TIP3   OH225677   4.581   4.959   4.130 -0.3255  0.5908  0.9076
 1421TIP3    H125678   4.592   5.023   4.201 -0.8603  0.4021  1.1673
 1421TIP3    H225679   4.514   4.997   4.074 -0.9898  0.0485  1.3162
 1422TIP3   OH225680   4.149   1.051  11.993 -0.1730 -0.3615  0.4414
 1422TIP3    H125681   4.094   1.097  11.930 -0.6415 -1.9112 -0.3246
 1422TIP3    H225682   4.093   1.039  12.070 -0.4647 -0.7026  0.1827
 1423TIP3   OH225683   1.587   1.187  14.694  0.2914 -0.2650 -0.5303
 1423TIP3    H125684   1.506   1.196  14.645  1.3963 -1.2466 -2.6743
 1423TIP3    H225685   1.572   1.237  14.774 -1.6609  1.3411 -1.7916
 1424TIP3   OH225686   1.864   0.503   4.876  0.0533 -0.3952 -0.0096
 1424TIP3    H125687   1.850   0.452   4.956 -1.0540  0.9743  0.6931
 1424TIP3    H225688   1.938   0.561   4.897 -0.9749  0.7830  0.4593
 1425TIP3   OH225689   6.262   1.243   6.180 -0.5504 -0.5945 -0.5656
 1425TIP3    H125690   6.282   1.231   6.273  0.4961  1.5710 -0.4567
 1425TIP3    H225691   6.290   1.161   6.139 -0.0143 -1.1678  0.8692
 1426TIP3   OH225692   0.808   1.638   0.860  0.2752 -0.5446  0.3266
 1426TIP3    H125693   0.807   1.733   0.870 -0.4179 -0.3685 -1.2090
 1426TIP3    H225694   0.894   1.618   0.824  0.3365 -0.4840  0.4370
 1427TIP3   OH225695   1.169   4.584   0.059  0.2863  0.0204 -0.0118
 1427TIP3    H125696   1.120   4.655   0.018  0.6574 -0.3086 -1.0342
 1427TIP3    H225697   1.245   4.571   0.003 -0.3011 -1.8798 -0.4513
 1428TIP3   OH225698   4.971   4.829  12.305  0.3370 -0.4148 -0.0761
 1428TIP3    H125699   5.029   4.790  12.240  3.5174 -0.5122  2.5786
 1428TIP3    H225700   5.000   4.920  12.312 -1.5142  0.2493 -0.3579
 1429TIP3   OH225701   1.536   0.836  14.906 -0.3245 -0.1202  0.1804
 1429TIP3    H125702   1.576   0.909  14.953 -0.9179  0.3840 -0.0867
 1429TIP3    H225703   1.452   0.822  14.951  0.4168 -1.6315  1.1973
 1430TIP3   OH225704   5.384   4.220   5.915 -0.2032  0.3641 -1.0513
 1430TIP3    H125705   5.464   4.271   5.927  1.1622 -1.7914 -0.5042
 1430TIP3    H225706   5.361   4.191   6.003 -1.5509  0.8540 -1.2192
 1431TIP3   OH225707   5.713   0.879  11.112  0.2155 -0.1510 -0.6884
 1431TIP3    H125708   5.661   0.810  11.154  0.1795  0.2115 -0.1286
 1431TIP3    H225709   5.724   0.849  11.022 -0.4408 -0.5255 -0.6495
 1432TIP3   OH225710   3.277   3.143  11.764  0.9922  0.3311  0.2834
 1432TIP3    H125711   3.260   3.182  11.679  0.6068 -1.6011 -0.5723
 1432TIP3    H225712   3.338   3.203  11.807 -0.2088  2.2473 -0.6081
 1433TIP3   OH225713   3.530   2.450   2.006  0.4027  0.0474 -0.2403
 1433TIP3    H125714   3.450   2.408   1.976 -0.2661  0.6749  0.6098
 1433TIP3    H225715   3.562   2.499   1.931 -0.0585 -0.1293 -0.5556
 1434TIP3   OH225716   4.497   3.843  14.107  0.2814 -0.5582 -0.4153
 1434TIP3    H125717   4.428   3.841  14.174 -1.4810  0.6659 -2.1132
 1434TIP3    H225718   4.542   3.927  14.121  0.9661 -1.0098  0.1943
 1435TIP3   OH225719   5.762   3.690   1.118 -0.1303 -0.4101 -0.5932
 1435TIP3    H125720   5.722   3.609   1.151 -0.6727 -0.0443 -0.3439
 1435TIP3    H225721   5.727   3.700   1.030 -2.0094  0.8362  0.2409
 1436TIP3   OH225722   1.940   6.085  15.564  0.2191 -0.1007  0.1138
 1436TIP3    H125723   2.019   6.138  15.577  0.4276 -0.4922  0.4622
 1436TIP3    H225724   1.876   6.147  15.529  0.2790  0.5192  1.0520
 1437TIP3   OH225725   3.608   0.354   4.281 -0.2478  0.0433 -0.1314
 1437TIP3    H125726   3.642   0.439   4.254 -0.9274  0.5960  0.7138
 1437TIP3    H225727   3.686   0.298   4.289  0.4223  1.1445  1.2954
 1438TIP3   OH225728   4.387   0.699  16.466  0.0024  0.1976 -0.1953
 1438TIP3    H125729   4.367   0.730  16.378 -0.1386 -0.3419 -0.3627
 1438TIP3    H225730   4.472   0.737  16.487 -0.0312  0.4472 -0.5056
 1439TIP3   OH225731   2.812   2.884  15.354  0.5772  0.0342 -0.4598
 1439TIP3    H125732   2.808   2.971  15.393  0.4539 -0.6641  1.2137
 1439TIP3    H225733   2.840   2.898  15.264  1.7947  1.7120  0.1272
 1440TIP3   OH225734   5.732   5.160  11.453  0.4212 -0.4719 -0.2734
 1440TIP3    H125735   5.651   5.138  11.499  0.4089  2.0623  1.0713
 1440TIP3    H225736   5.723   5.118  11.367 -1.4309 -1.8390  0.5257
 1441TIP3   OH225737   3.449   2.615   6.166  0.5691 -0.1378  0.5807
 1441TIP3    H125738   3.468   2.671   6.091  0.5959  0.4936  1.0489
 1441TIP3    H225739   3.510   2.542   6.157 -0.6722 -1.0393 -1.0046
 1442TIP3   OH225740   4.016   0.679  12.735 -0.3258  0.0474 -0.2240
 1442TIP3    H125741   3.982   0.696  12.823  0.3879  0.9338 -0.0986
 1442TIP3    H225742   4.021   0.584  12.729 -0.2553 -0.0183  0.7489
 1443TIP3   OH225743   0.330   5.459   4.840  0.0457  0.5404 -0.0848
 1443TIP3    H125744   0.307   5.387   4.899  0.3939  0.8687  0.4641
 1443TIP3    H225745   0.395   5.510   4.889 -0.5596  1.5026 -0.2599
 1444TIP3   OH225746   3.284   3.096  16.505 -0.2566 -0.5905 -0.2950
 1444TIP3    H125747   3.272   3.019  16.449  1.3426 -1.9033  1.0525
 1444TIP3    H225748   3.379   3.109  16.506 -0.2316 -0.6194  2.0654
 1445TIP3   OH225749   5.897   2.431  11.802 -0.0341 -0.3506  0.0571
 1445TIP3    H125750   5.854   2.489  11.739  0.2373  0.0652  0.2515
 1445TIP3    H225751   5.990   2.452  11.794 -0.1095  0.6670  1.5426
 1446TIP3   OH225752   0.790   6.093  16.908 -0.1623  0.3424  0.7717
 1446TIP3    H125753   0.871   6.113  16.955  0.7174 -1.9150  0.3745
 1446TIP3    H225754   0.720   6.125  16.965  0.9478  0.1011  2.3291
 1447TIP3   OH225755   5.356   0.639  11.910 -1.0423 -0.4961 -0.5037
 1447TIP3    H125756   5.384   0.549  11.893  0.5103 -0.3930  1.2061
 1447TIP3    H225757   5.380   0.687  11.831  3.1099 -0.5853  0.4770
 1448TIP3   OH225758   2.797   1.899   2.184 -0.0372  0.1873  0.3811
 1448TIP3    H125759   2.878   1.850   2.168 -1.1917 -1.6785 -0.0900
 1448TIP3    H225760   2.738   1.836   2.224 -1.4646  1.3362  0.1818
 1449TIP3   OH225761   5.660   6.732   4.049 -0.1646  0.3625 -0.6231
 1449TIP3    H125762   5.663   6.649   4.001 -0.3519 -0.2908  0.4608
 1449TIP3    H225763   5.668   6.799   3.981 -0.8312 -0.5128 -1.6028
 1450TIP3   OH225764   2.779   5.256  16.937 -0.2051 -0.1438  0.1398
 1450TIP3    H125765   2.732   5.326  16.983  0.4652 -0.2590  1.0188
 1450TIP3    H225766   2.712   5.189  16.921 -0.7089  0.4111 -0.1393
 1451TIP3   OH225767   1.888   4.095  11.666  0.2776 -0.6667 -0.4022
 1451TIP3    H125768   1.893   4.029  11.735  0.4170  1.2090  1.4635
 1451TIP3    H225769   1.854   4.173  11.709 -0.2723  0.4168 -2.6248
 1452TIP3   OH225770   0.294   5.164   1.360 -0.0642  0.1725 -0.2109
 1452TIP3    H125771   0.379   5.121   1.346 -0.1940 -0.0244 -0.3935
 1452TIP3    H225772   0.302   5.248   1.314 -0.4246 -0.3959 -1.3319
 1453TIP3   OH225773   3.195   1.452  14.213 -0.0597  0.4302 -0.2830
 1453TIP3    H125774   3.245   1.533  14.212 -0.6947  0.8554  0.8927
 1453TIP3    H225775   3.215   1.412  14.298 -0.2106 -0.3581 -0.6059
 1454TIP3   OH225776   5.177   6.491  15.785 -0.0465  0.1276 -0.2813
 1454TIP3    H125777   5.112   6.529  15.727 -0.3518 -1.2824 -0.9115
 1454TIP3    H225778   5.258   6.488  15.733  0.4616  1.5458  0.3797
 1455TIP3   OH225779   5.668   1.101  12.380 -0.1771 -0.2017 -0.1587
 1455TIP3    H125780   5.665   1.113  12.475  0.5187  1.1569 -0.2932
 1455TIP3    H225781   5.586   1.057  12.359 -0.1369 -0.9433  1.1238
 1456TIP3   OH225782   5.292   4.910   3.933  0.4386 -0.1370  0.1755
 1456TIP3    H125783   5.332   4.826   3.956  2.1343  0.4653 -0.3691
 1456TIP3    H225784   5.288   4.909   3.837  1.0239  0.6011  0.1263
 1457TIP3   OH225785   0.272   5.140  11.049 -0.3266  0.4830 -0.3225
 1457TIP3    H125786   0.341   5.074  11.044  0.9164  1.1696  3.8476
 1457TIP3    H225787   0.227   5.122  11.132 -1.8339  3.1105 -0.4541
 1458TIP3   OH225788   5.098   6.642  11.103  0.4844  0.4634  0.4483
 1458TIP3    H125789   5.137   6.650  11.016 -1.4292  2.5003 -0.3360
 1458TIP3    H225790   5.103   6.549  11.124  1.7295  0.0548 -1.4780
 1459TIP3   OH225791   0.296   6.457  11.699 -0.1760 -0.0756  0.0695
 1459TIP3    H125792   0.331   6.469  11.611 -0.9525 -1.0598 -0.3820
 1459TIP3    H225793   0.347   6.385  11.736 -0.0852  0.1106  0.3159
 1460TIP3   OH225794   2.904   3.140   3.093  0.5927 -0.0771 -0.7030
 1460TIP3    H125795   2.925   3.234   3.094  1.8303 -0.3054 -1.9850
 1460TIP3    H225796   2.939   3.107   3.176  2.7938  0.1079 -1.4987
 1461TIP3   OH225797   2.445   6.479   3.087  0.3932 -0.1812 -0.3839
 1461TIP3    H125798   2.472   6.410   3.148 -0.9452  1.9374  2.8795
 1461TIP3    H225799   2.523   6.531   3.072  0.7512 -0.7753 -0.6183
 1462TIP3   OH225800   4.047   5.403   6.638 -0.3062 -0.1706  0.7717
 1462TIP3    H125801   4.021   5.492   6.659 -1.0471 -0.3466  0.6200
 1462TIP3    H225802   3.978   5.348   6.674  1.0164 -0.8321  2.4838
 1463TIP3   OH225803   0.086   1.137  16.928  0.2013  0.2785  0.7635
 1463TIP3    H125804   0.062   1.229  16.941 -0.6562  0.3699 -1.0872
 1463TIP3    H225805   0.005   1.094  16.900  0.7187 -0.9290  1.0559
 1464TIP3   OH225806   2.235   6.290  13.427  0.1900 -0.2156 -0.3630
 1464TIP3    H125807   2.203   6.379  13.441  0.3127 -0.3165  0.6983
 1464TIP3    H225808   2.328   6.301  13.405  0.5990 -0.1134  1.2335
 1465TIP3   OH225809   2.681   3.606  12.275 -0.0213 -0.1658 -0.2131
 1465TIP3    H125810   2.764   3.559  12.277 -0.6354 -1.3672 -1.2764
 1465TIP3    H225811   2.684   3.664  12.351  1.6399 -0.4177 -0.0473
 1466TIP3   OH225812   2.173   3.417   1.927  0.8546  0.4247 -0.6797
 1466TIP3    H125813   2.085   3.444   1.902  0.5088 -1.3360 -1.5940
 1466TIP3    H225814   2.228   3.493   1.909 -0.1320  0.7946 -2.4281
 1467TIP3   OH225815   6.352   0.015   5.943 -0.0670  0.1037 -0.0143
 1467TIP3    H125816   6.335  -0.013   6.033 -0.4381  1.7699  0.4783
 1467TIP3    H225817   6.313   0.102   5.938  1.2294  0.6502 -1.3413
 1468TIP3   OH225818   5.478   6.403   6.444 -0.7066  0.1248  0.3330
 1468TIP3    H125819   5.523   6.417   6.361 -2.0194  0.0877 -0.4082
 1468TIP3    H225820   5.513   6.470   6.502  1.4246 -0.8595  0.2802
 1469TIP3   OH225821   5.238   0.708  10.567  0.1219  0.3052 -0.4815
 1469TIP3    H125822   5.323   0.699  10.609  0.1553 -1.6159 -0.8700
 1469TIP3    H225823   5.201   0.788  10.604  1.8232  0.8398  0.1470
 1470TIP3   OH225824   2.486   4.740   4.063 -0.0854  0.4619  0.2390
 1470TIP3    H125825   2.408   4.710   4.111  1.3479 -1.5639  1.5210
 1470TIP3    H225826   2.460   4.738   3.971 -1.6022 -0.0309  0.6414
 1471TIP3   OH225827   0.354   0.488  17.194 -0.7657 -0.0822 -0.1301
 1471TIP3    H125828   0.381   0.534  17.114  1.0547 -0.4682  0.2128
 1471TIP3    H225829   0.399   0.535  17.265 -1.6726 -0.2706  0.5826
 1472TIP3   OH225830   2.013   6.508  13.642 -0.1366  0.3983 -0.4731
 1472TIP3    H125831   1.958   6.569  13.594  0.4778  2.4167  1.2613
 1472TIP3    H225832   2.093   6.502  13.590 -0.4188  0.5935 -0.9408
 1473TIP3   OH225833   4.129   5.858   3.144 -0.1579 -0.5664  0.3744
 1473TIP3    H125834   4.076   5.923   3.098  0.8597  0.4500  0.5977
 1473TIP3    H225835   4.065   5.805   3.192 -1.0663 -0.3090 -0.5203
 1474TIP3   OH225836   5.727   3.454   1.785  0.1986 -0.4806 -0.1715
 1474TIP3    H125837   5.767   3.531   1.745  0.3107  0.0657  0.9663
 1474TIP3    H225838   5.634   3.477   1.795  0.1071 -0.7381 -0.4092
 1475TIP3   OH225839   1.994   1.216   4.055 -0.8027  0.4014 -0.1012
 1475TIP3    H125840   2.077   1.247   4.018 -0.0542  0.1191  1.2571
 1475TIP3    H225841   2.020   1.168   4.133 -2.0962 -1.8151 -0.9561
 1476TIP3   OH225842   5.446   5.889  11.972 -0.1493 -0.0260 -0.2022
 1476TIP3    H125843   5.378   5.872  12.038 -0.8061 -0.0267 -0.8620
 1476TIP3    H225844   5.451   5.808  11.921  0.5029 -0.1001 -0.0311
 1477TIP3   OH225845   5.081   4.111  17.062 -0.0670 -0.3912 -0.3018
 1477TIP3    H125846   5.009   4.160  17.023  0.4427 -1.1144 -2.2713
 1477TIP3    H225847   5.038   4.041  17.111 -0.7490 -1.2795 -2.0814
 1478TIP3   OH225848   6.631   6.265  17.115  0.4534  0.1728  0.5498
 1478TIP3    H125849   6.666   6.275  17.203  2.7252  1.5834 -0.4087
 1478TIP3    H225850   6.536   6.276  17.125  0.4203 -1.6530  3.0188
 1479TIP3   OH225851   4.650   0.711  11.549 -0.8302  0.0157 -0.0173
 1479TIP3    H125852   4.745   0.701  11.539 -0.7814 -0.6250  0.9023
 1479TIP3    H225853   4.634   0.804  11.538 -0.6617 -0.2854 -4.3015
 1480TIP3   OH225854   1.432   5.787  14.585  0.4106  0.7380  0.2388
 1480TIP3    H125855   1.511   5.814  14.537  0.2828 -0.1226 -0.4735
 1480TIP3    H225856   1.465   5.763  14.672  1.0463 -0.1931 -0.2349
 1481TIP3   OH225857   1.647   1.540   3.123  0.1016  0.0197  0.1833
 1481TIP3    H125858   1.590   1.569   3.052  1.4134  1.4300 -0.3703
 1481TIP3    H225859   1.673   1.451   3.099  1.4823  0.8803 -1.8186
 1482TIP3   OH225860   3.687   3.023  14.751 -0.6985 -0.0888  0.2355
 1482TIP3    H125861   3.717   2.951  14.806  0.2573 -0.0822 -0.2438
 1482TIP3    H225862   3.645   2.981  14.676 -1.6372 -0.1056  0.7640
 1483TIP3   OH225863   1.084   4.775  13.043 -0.0049 -0.2463  0.4132
 1483TIP3    H125864   1.030   4.853  13.044  0.1737 -0.1065 -0.3137
 1483TIP3    H225865   1.174   4.807  13.033  0.1365 -0.5109  0.7983
 1484TIP3   OH225866   3.596   5.092  11.536  0.3018  0.5420 -0.5308
 1484TIP3    H125867   3.672   5.078  11.479 -0.4751 -1.2813 -1.1932
 1484TIP3    H225868   3.616   5.043  11.616 -0.8489 -1.4832 -1.3960
 1485TIP3   OH225869   5.122   3.165   6.452 -0.0640 -0.0599  0.4340
 1485TIP3    H125870   5.156   3.246   6.415 -0.4926  0.4410  1.1087
 1485TIP3    H225871   5.030   3.162   6.424 -0.2075 -0.0134  0.8904
 1486TIP3   OH225872   6.173   2.233   3.324  0.3888 -0.4499 -0.2750
 1486TIP3    H125873   6.113   2.178   3.273 -0.8590  2.1715 -1.8164
 1486TIP3    H225874   6.228   2.275   3.258  2.0183 -0.5761  0.9382
 1487TIP3   OH225875   5.345   1.773  12.991 -0.1934  0.5776 -0.1057
 1487TIP3    H125876   5.322   1.745  13.080 -1.0784  0.3025 -0.4053
 1487TIP3    H225877   5.437   1.749  12.982 -1.0597 -3.2999 -0.6641
 1488TIP3   OH225878   3.748   3.941   4.525  0.1092  0.3495  0.0287
 1488TIP3    H125879   3.829   3.890   4.517 -0.0967  0.0337 -0.0878
 1488TIP3    H225880   3.681   3.875   4.540 -0.2172  0.5619 -0.4709
 1489TIP3   OH225881   5.817   3.791   4.712 -0.5530  0.0393 -0.2836
 1489TIP3    H125882   5.832   3.733   4.637  0.2911  0.4935 -0.4759
 1489TIP3    H225883   5.732   3.832   4.695 -0.6534 -0.3332 -0.6752
 1490TIP3   OH225884   1.592   4.193   4.663 -0.3121  0.1523  0.0564
 1490TIP3    H125885   1.522   4.214   4.725 -0.1391  0.2514  0.2205
 1490TIP3    H225886   1.562   4.231   4.581 -1.1497 -1.1114 -0.2471
 1491TIP3   OH225887   6.052   6.206  11.885 -0.1876  0.9305  0.3493
 1491TIP3    H125888   6.115   6.278  11.892  0.3432  0.3428  2.1869
 1491TIP3    H225889   6.106   6.129  11.869 -0.6541  0.7339 -0.3407
 1492TIP3   OH225890   3.296   6.678   5.954 -0.0989  0.0829 -0.3056
 1492TIP3    H125891   3.268   6.655   5.865 -2.3324  0.7957  0.1372
 1492TIP3    H225892   3.238   6.750   5.979  0.2581 -0.3141  1.8503
 1493TIP3   OH225893   3.012   5.436   0.631 -0.4680  0.3782 -0.5484
 1493TIP3    H125894   2.960   5.355   0.627 -2.0998  1.3555 -0.1272
 1493TIP3    H225895   3.081   5.423   0.566 -0.5739 -1.4250 -0.3586
 1494TIP3   OH225896   1.188   2.012   0.160 -0.1218  0.2182 -0.6288
 1494TIP3    H125897   1.129   1.981   0.091 -1.0263  0.2823  0.0929
 1494TIP3    H225898   1.175   2.107   0.162 -1.2236  0.0685  0.6050
 1495TIP3   OH225899   2.806   1.259   0.803  0.3929 -0.4496 -0.3665
 1495TIP3    H125900   2.807   1.353   0.788 -0.2411 -0.5222 -0.9360
 1495TIP3    H225901   2.780   1.249   0.895 -0.0127 -0.0750 -0.4374
 1496TIP3   OH225902   4.676   3.070  12.898  0.0155 -0.3116  0.2724
 1496TIP3    H125903   4.680   3.035  12.987 -0.3681 -0.3895  0.2575
 1496TIP3    H225904   4.688   2.994  12.841  2.0621 -0.0445  0.2585
 1497TIP3   OH225905   3.961   6.735   3.280 -0.6837 -0.1215  0.4468
 1497TIP3    H125906   4.047   6.702   3.254 -0.9571 -0.0372 -0.6060
 1497TIP3    H225907   3.899   6.670   3.245 -1.3274  2.0113 -2.7553
 1498TIP3   OH225908   6.469   5.639   1.898  0.9181 -0.7722 -0.0658
 1498TIP3    H125909   6.417   5.717   1.878 -0.4693 -1.2849  1.3106
 1498TIP3    H225910   6.560   5.669   1.891  0.4441  1.3907  1.7206
 1499TIP3   OH225911   3.874   5.998   3.642  0.4633  0.2092  0.0933
 1499TIP3    H125912   3.812   6.069   3.626 -1.3160 -1.4827 -0.8135
 1499TIP3    H225913   3.841   5.955   3.721 -0.2202 -1.3777 -1.0144
 1500TIP3   OH225914   2.316   1.301   6.007  0.6095 -0.0732 -0.1258
 1500TIP3    H125915   2.392   1.357   6.022  0.0142  0.5337  0.6869
 1500TIP3    H225916   2.267   1.343   5.936 -0.9396  1.6516  1.8476
 1501TIP3   OH225917   2.994   1.780  16.323  0.5733 -0.1128 -0.1534
 1501TIP3    H125918   3.090   1.783  16.322  0.5735 -0.0319 -0.9926
 1501TIP3    H225919   2.969   1.838  16.395  1.1123  1.6762 -1.3234
 1502TIP3   OH225920   2.629   4.339  13.664 -0.5973  0.4116  0.1969
 1502TIP3    H125921   2.670   4.418  13.701  2.3515 -1.2233  0.7591
 1502TIP3    H225922   2.625   4.278  13.737 -2.4702 -0.1516 -0.3278
 1503TIP3   OH225923   5.330   5.236  13.900 -0.0353  0.4988 -0.5268
 1503TIP3    H125924   5.315   5.183  13.822 -1.2853 -1.0341  0.7002
 1503TIP3    H225925   5.242   5.260  13.929  0.4333  1.3022  0.2637
 1504TIP3   OH225926   5.156   4.207   3.145 -0.0766  0.4771  0.3166
 1504TIP3    H125927   5.250   4.225   3.137 -0.1427  0.0925 -1.9993
 1504TIP3    H225928   5.143   4.128   3.093 -1.6087  0.2048  1.0838
 1505TIP3   OH225929   4.392   6.556   5.867 -0.1582 -0.3772 -0.4298
 1505TIP3    H125930   4.356   6.551   5.956  1.0062  2.2460  0.3028
 1505TIP3    H225931   4.485   6.538   5.878 -0.1149 -0.6816 -1.2507
 1506TIP3   OH225932   5.253   4.904   3.671 -0.4371  0.2002 -0.2762
 1506TIP3    H125933   5.239   4.829   3.613 -0.8038 -0.2984  0.4421
 1506TIP3    H225934   5.276   4.976   3.612  0.0267 -0.4957 -0.9711
 1507TIP3   OH225935   0.018   3.841  14.749 -0.0202 -0.5854 -0.1102
 1507TIP3    H125936  -0.048   3.804  14.689 -0.3833 -2.0674  1.1368
 1507TIP3    H225937   0.065   3.905  14.696 -1.8879 -0.1001 -1.2951
 1508TIP3   OH225938   5.691   4.953   4.634 -0.0634  0.0341  0.0958
 1508TIP3    H125939   5.664   4.901   4.558 -1.1927  1.1924 -0.3243
 1508TIP3    H225940   5.758   4.899   4.678 -0.5464 -1.3486 -0.8222
 1509TIP3   OH225941   2.793   2.551  13.070  0.0925  0.3117  0.5802
 1509TIP3    H125942   2.773   2.480  13.131  1.4918  0.0240  0.7402
 1509TIP3    H225943   2.718   2.610  13.077 -0.6746 -0.6918  1.1125
 1510TIP3   OH225944   0.738   4.976   4.125  0.5075 -0.2887  0.2768
 1510TIP3    H125945   0.794   5.018   4.059 -0.0064 -0.4174 -0.2542
 1510TIP3    H225946   0.796   4.958   4.198  0.6431  1.8589  0.7635
 1511TIP3   OH225947   3.581   2.356   2.999 -0.1134 -0.0798 -0.2428
 1511TIP3    H125948   3.529   2.423   2.955 -1.3079 -0.7928  0.0426
 1511TIP3    H225949   3.652   2.404   3.041 -0.0048  0.8121 -1.4082
 1512TIP3   OH225950   1.251   6.498  11.039 -0.8316 -0.4772 -0.4178
 1512TIP3    H125951   1.275   6.414  11.079 -1.3413 -0.2773  0.3275
 1512TIP3    H225952   1.284   6.492  10.949  1.6725 -0.3397  0.4265
 1513TIP3   OH225953   6.525   4.631   5.030 -0.5692  0.4786  0.6690
 1513TIP3    H125954   6.553   4.590   5.111 -0.4099 -1.1037 -0.1395
 1513TIP3    H225955   6.591   4.697   5.012 -0.1322  0.2474  1.3858
 1514TIP3   OH225956   2.014   1.760  16.086 -0.3958 -0.5969 -0.4125
 1514TIP3    H125957   2.018   1.761  15.991 -0.3340 -1.8245 -0.4350
 1514TIP3    H225958   2.081   1.698  16.113 -0.1427  0.0254  0.4595
 1515TIP3   OH225959   3.588   0.624   2.169  0.7739  0.0674 -0.3560
 1515TIP3    H125960   3.522   0.658   2.109 -0.0345 -0.5520  0.1665
 1515TIP3    H225961   3.578   0.676   2.248 -0.9944 -1.8015  0.7334
 1516TIP3   OH225962   0.213   5.604  13.189  0.2639 -0.4117 -0.4685
 1516TIP3    H125963   0.252   5.552  13.260  2.1701 -0.4579 -1.4608
 1516TIP3    H225964   0.239   5.694  13.209 -1.3708 -0.0543  0.2032
 1517TIP3   OH225965   5.665   1.815   1.637 -0.1813  0.5223 -0.1496
 1517TIP3    H125966   5.650   1.887   1.699  0.8255  0.3093  0.3667
 1517TIP3    H225967   5.615   1.742   1.673  1.8679 -0.1659  1.5185
 1518TIP3   OH225968   6.156   3.483   5.709  0.6879  0.1459 -0.6017
 1518TIP3    H125969   6.126   3.399   5.675  1.1231  0.8032 -2.7476
 1518TIP3    H225970   6.095   3.503   5.781 -0.0622 -1.4808 -0.7420
 1519TIP3   OH225971   4.903   6.214  12.240 -0.0168  0.0699 -0.0714
 1519TIP3    H125972   4.870   6.243  12.325 -0.1550  1.3401 -0.5429
 1519TIP3    H225973   4.985   6.262  12.228  1.1625 -1.7397  0.2916
 1520TIP3   OH225974   4.694   2.420   4.463  0.3380  0.1854  0.2332
 1520TIP3    H125975   4.663   2.399   4.551  0.2224 -0.8232 -0.0370
 1520TIP3    H225976   4.643   2.363   4.406  0.5184  0.7261 -0.4816
 1521TIP3   OH225977   4.532   4.088  12.497 -0.5286 -0.4323 -0.1873
 1521TIP3    H125978   4.544   4.177  12.531 -0.6894 -0.8095  0.9024
 1521TIP3    H225979   4.445   4.089  12.457 -0.1392  0.1522 -1.0538
 1522TIP3   OH225980   2.647   1.416  15.687  0.8382 -0.4616  0.2076
 1522TIP3    H125981   2.581   1.473  15.648  1.0282 -2.0094 -2.6598
 1522TIP3    H225982   2.598   1.362  15.749 -0.2101 -0.2518 -0.4159
 1523TIP3   OH225983   1.653   2.125  15.849 -0.4197 -0.4553 -0.1166
 1523TIP3    H125984   1.651   2.111  15.943 -0.0143 -1.0481 -0.1891
 1523TIP3    H225985   1.647   2.220  15.839  2.6234 -0.0728  0.6658
 1524TIP3   OH225986   5.878   1.499   3.627  0.1937 -0.2149  0.2524
 1524TIP3    H125987   5.857   1.534   3.714  0.0732  0.7301 -0.1403
 1524TIP3    H225988   5.947   1.434   3.644  1.4967  1.2497  0.8997
 1525TIP3   OH225989   1.360   5.215  13.737  0.2116 -0.2804 -0.2016
 1525TIP3    H125990   1.279   5.173  13.767  0.3500 -1.1497 -1.0111
 1525TIP3    H225991   1.429   5.153  13.763  0.5273 -0.0119 -0.4029
 1526TIP3   OH225992   4.505   6.712  13.284 -0.7020 -0.4319 -0.0746
 1526TIP3    H125993   4.517   6.761  13.365 -0.5595  2.4395 -1.6874
 1526TIP3    H225994   4.594   6.704  13.248 -0.8311 -1.1937 -0.2450
 1527TIP3   OH225995   3.616   0.465  17.166  0.2427 -0.2439  0.0822
 1527TIP3    H125996   3.630   0.371  17.156  0.0436 -0.2421 -0.2291
 1527TIP3    H225997   3.538   0.472  17.221  1.1828 -0.2546  1.4561
 1528TIP3   OH225998   5.827   6.526   6.430 -0.0048  0.7062  0.1084
 1528TIP3    H125999   5.809   6.461   6.361 -0.5415  0.5510  0.3871
 1528TIP3    H226000   5.766   6.598   6.411 -2.0140 -0.4120  1.8648
 1529TIP3   OH226001   2.561   2.055  14.089  0.0088 -0.0675  0.1043
 1529TIP3    H126002   2.636   2.008  14.126 -1.0385 -2.3317 -0.4849
 1529TIP3    H226003   2.486   2.026  14.142 -0.9701 -0.6310 -1.5405
 1530TIP3   OH226004   0.847   1.488   6.173 -0.2613 -0.1835 -0.4710
 1530TIP3    H126005   0.811   1.509   6.259  0.8975  2.5606 -0.5677
 1530TIP3    H226006   0.837   1.393   6.166 -0.9112 -0.4332  2.4354
 1531TIP3   OH226007   2.579   2.751  15.773 -0.6772  0.2995  0.2283
 1531TIP3    H126008   2.634   2.817  15.731  0.4716 -0.0596  1.1157
 1531TIP3    H226009   2.535   2.707  15.700  2.2045 -1.1572 -0.7537
 1532TIP3   OH226010   0.146   5.486   0.663  0.5987 -0.1145  0.2105
 1532TIP3    H126011   0.201   5.542   0.718  1.6935 -2.5595  1.7814
 1532TIP3    H226012   0.137   5.405   0.714  0.3382 -1.9376 -2.5575
 1533TIP3   OH226013   3.742   0.169   2.635  0.6652  0.6499 -0.4293
 1533TIP3    H126014   3.686   0.104   2.591 -0.6976  0.9185  0.8164
 1533TIP3    H226015   3.689   0.249   2.637 -0.2166  0.1629  3.2990
 1534TIP3   OH226016   0.193   3.132   6.332 -0.7038  0.3342 -0.3572
 1534TIP3    H126017   0.187   3.228   6.329 -0.4910  0.3474 -0.4036
 1534TIP3    H226018   0.172   3.110   6.423  1.8268  0.6416  0.3839
 1535TIP3   OH226019   1.947   1.686  16.511  0.5167 -0.4832  0.3456
 1535TIP3    H126020   1.871   1.635  16.539  1.0129 -1.3281  0.1963
 1535TIP3    H226021   1.912   1.755  16.456 -0.2729 -0.0531  1.3574
 1536TIP3   OH226022   1.482   3.405  13.635  0.1427  0.5361  0.2864
 1536TIP3    H126023   1.576   3.423  13.634  0.1949  1.0591  3.6934
 1536TIP3    H226024   1.454   3.425  13.724 -3.2406  0.3699 -0.5851
 1537TIP3   OH226025   6.729   2.800   1.091  0.4766  0.8008 -0.6352
 1537TIP3    H126026   6.652   2.850   1.119  0.5642  0.6329 -0.0733
 1537TIP3    H226027   6.756   2.841   1.009  0.0138  1.1038 -0.6400
 1538TIP3   OH226028   2.827   2.869   0.426  0.1397  0.3019  0.0358
 1538TIP3    H126029   2.899   2.926   0.454 -1.1699  1.4999  1.1159
 1538TIP3    H226030   2.841   2.787   0.473  0.3172  0.8399  0.9338
 1539TIP3   OH226031   3.160   1.092   2.729 -0.2791 -0.1433 -0.1261
 1539TIP3    H126032   3.107   1.117   2.652  0.0864  2.1064  0.2820
 1539TIP3    H226033   3.099   1.044   2.784 -1.6307  1.3428 -0.2226
 1540TIP3   OH226034   6.573   3.532   0.826 -0.0715 -0.1881  0.2906
 1540TIP3    H126035   6.568   3.496   0.914 -0.8987 -2.9645 -0.7983
 1540TIP3    H226036   6.494   3.585   0.817 -0.5419 -0.7700  0.8771
 1541TIP3   OH226037   5.352   4.851   0.582  0.2378 -0.0700 -0.3154
 1541TIP3    H126038   5.281   4.911   0.604 -1.7370 -2.0575 -0.9407
 1541TIP3    H226039   5.423   4.908   0.552 -1.5141  1.9614 -0.8502
 1542TIP3   OH226040   4.440   6.781  12.281  0.9123 -0.2871  0.0184
 1542TIP3    H126041   4.435   6.698  12.328 -1.3517  0.1682  0.6823
 1542TIP3    H226042   4.368   6.778  12.218  1.8365  0.5045 -1.1235
 1543TIP3   OH226043   0.708   0.413  16.975 -0.2427 -0.1538 -0.1926
 1543TIP3    H126044   0.645   0.402  17.046  0.2539 -0.8448  0.1511
 1543TIP3    H226045   0.741   0.502  16.985 -0.4205 -0.1369  0.2446
 1544TIP3   OH226046   5.395   5.830  17.124  0.0256  0.3744 -0.4108
 1544TIP3    H126047   5.478   5.864  17.157  0.8590 -1.0148 -1.0144
 1544TIP3    H226048   5.344   5.811  17.203  1.4221 -1.5154  0.0904
 1545TIP3   OH226049   4.188   6.088   2.528  0.2897  0.9076  0.2349
 1545TIP3    H126050   4.134   6.026   2.479  1.8455  1.9837 -3.1540
 1545TIP3    H226051   4.146   6.095   2.614 -0.8611 -3.5183  0.2358
 1546TIP3   OH226052   1.414   4.559   4.679 -0.5966  0.3766  0.5591
 1546TIP3    H126053   1.447   4.648   4.690 -1.6222  0.7996  0.3405
 1546TIP3    H226054   1.319   4.568   4.677 -0.7265 -0.7397  0.6417
 1547TIP3   OH226055   3.604   1.602   4.830 -0.5652  0.7640 -0.0651
 1547TIP3    H126056   3.667   1.554   4.776  0.1544 -0.6778  1.9650
 1547TIP3    H226057   3.530   1.619   4.771  0.5913  0.1650 -1.7658
 1548TIP3   OH226058   1.917   4.925  15.205  0.1645 -0.4585 -0.3964
 1548TIP3    H126059   1.932   4.831  15.197 -1.1500 -0.6183 -1.2074
 1548TIP3    H226060   1.834   4.932  15.253  0.2065  0.2851 -0.4174
 1549TIP3   OH226061   4.614   6.163   6.444  0.3152  0.3450 -0.5409
 1549TIP3    H126062   4.579   6.191   6.529  0.7157  0.4362 -0.4051
 1549TIP3    H226063   4.577   6.225   6.382 -0.4668 -0.0872 -0.5166
 1550TIP3   OH226064   4.002   2.734  15.868 -0.1363  0.1048 -0.3957
 1550TIP3    H126065   4.001   2.759  15.775 -3.6174 -0.5215 -0.6799
 1550TIP3    H226066   4.062   2.660  15.872  0.2161  0.2452 -2.1253
 1551TIP3   OH226067   2.735   0.577   1.654 -0.2151 -0.0942 -0.1970
 1551TIP3    H126068   2.788   0.648   1.690 -0.8321  1.1624 -1.6441
 1551TIP3    H226069   2.725   0.515   1.726  1.7917  0.4360  0.6035
 1552TIP3   OH226070   3.343   1.775  15.755 -0.3915  0.2061  0.2005
 1552TIP3    H126071   3.381   1.863  15.758  0.1732  0.0724 -1.6086
 1552TIP3    H226072   3.253   1.787  15.785 -0.8863  1.7894 -1.7033
 1553TIP3   OH226073   6.431   0.583   5.563  0.6751  0.1447  0.7560
 1553TIP3    H126074   6.440   0.633   5.482 -0.6580 -3.4115 -1.8437
 1553TIP3    H226075   6.521   0.566   5.590  1.1992  0.0813 -0.8980
 1554TIP3   OH226076   2.328   2.315   5.229 -0.1952 -0.2120 -0.3989
 1554TIP3    H126077   2.327   2.384   5.163 -1.9162  1.5910  1.3956
 1554TIP3    H226078   2.237   2.287   5.236 -0.1305 -0.0876  1.4386
 1555TIP3   OH226079   2.635   1.137   4.873 -0.0630 -0.3688 -0.4091
 1555TIP3    H126080   2.653   1.115   4.781 -0.3049  1.5442 -0.9529
 1555TIP3    H226081   2.721   1.143   4.914  0.1589  0.5305 -0.9697
 1556TIP3   OH226082   2.596   1.870  15.964 -0.2056  0.1105  0.6640
 1556TIP3    H126083   2.634   1.837  15.882 -1.4615  0.4550 -0.0827
 1556TIP3    H226084   2.545   1.947  15.938 -0.3566  0.4214  1.8268
 1557TIP3   OH226085   3.086   3.143  12.698 -0.2962 -0.0959 -0.5393
 1557TIP3    H126086   3.091   3.057  12.739  0.2275  0.4819  0.6445
 1557TIP3    H226087   3.038   3.198  12.761  2.9255  1.5446  0.6985
 1558TIP3   OH226088   1.441   5.368  14.025 -0.4420  0.6845  0.5912
 1558TIP3    H126089   1.520   5.336  13.983 -0.4007  2.3409 -0.6957
 1558TIP3    H226090   1.452   5.346  14.118  0.4417 -1.1398  0.0870
 1559TIP3   OH226091   1.705   1.852   1.892 -0.4804 -0.8224 -0.1667
 1559TIP3    H126092   1.763   1.906   1.946  0.2688 -0.6153 -1.1558
 1559TIP3    H226093   1.619   1.859   1.934 -0.2065  0.4468  0.2070
 1560TIP3   OH226094   6.716   1.596  14.343 -0.6025  1.1173 -0.3000
 1560TIP3    H126095   6.763   1.677  14.363 -0.0816  0.8697 -0.5121
 1560TIP3    H226096   6.784   1.528  14.341 -1.1813  0.4469  1.1408
 1561TIP3   OH226097   5.011   4.769   0.492 -0.0599  0.9322  0.2167
 1561TIP3    H126098   5.006   4.698   0.429 -0.1868 -0.1275  1.3849
 1561TIP3    H226099   4.965   4.842   0.450 -1.0119 -0.0561 -0.4977
 1562TIP3   OH226100   0.839   2.395   3.336 -0.0676  0.3237 -0.0107
 1562TIP3    H126101   0.753   2.434   3.352  0.1215  1.3442 -1.3026
 1562TIP3    H226102   0.872   2.442   3.259  2.3399  1.1114  1.3921
 1563TIP3   OH226103   2.939   2.762  16.320  0.5298  0.0942 -0.1563
 1563TIP3    H126104   2.905   2.791  16.404  0.3148 -1.2962  0.2747
 1563TIP3    H226105   2.883   2.688  16.296  3.1693 -2.3962  0.6492
 1564TIP3   OH226106   5.180   0.284  14.436  0.0861 -0.2147 -0.0766
 1564TIP3    H126107   5.144   0.247  14.356  1.3435  1.2960 -1.4051
 1564TIP3    H226108   5.269   0.250  14.442  0.4735  0.7705 -0.0870
 1565TIP3   OH226109   3.152   4.847  11.895 -0.4096  0.2408  0.5870
 1565TIP3    H126110   3.179   4.914  11.958  0.2455  0.0563  0.5104
 1565TIP3    H226111   3.059   4.832  11.914 -0.4348  0.8122  0.9305
 1566TIP3   OH226112   0.010   4.741   0.000  0.2280 -0.0080 -0.4532
 1566TIP3    H126113  -0.053   4.702   0.061 -0.7069 -1.5825 -2.3321
 1566TIP3    H226114  -0.031   4.823  -0.028 -0.5729 -0.5876 -0.9865
 1567TIP3   OH226115   4.257   0.082  16.913  0.0288 -0.1405  0.3622
 1567TIP3    H126116   4.296   0.167  16.891 -1.1988  0.7239  1.3269
 1567TIP3    H226117   4.329   0.020  16.908  0.4650  0.4140 -3.1028
 1568TIP3   OH226118   3.771   4.892  12.240 -0.3872  0.7397  0.1277
 1568TIP3    H126119   3.699   4.832  12.255 -0.6809  1.3358  1.3155
 1568TIP3    H226120   3.850   4.840  12.256 -0.5844  0.3108 -0.2931
 1569TIP3   OH226121   2.129   0.065   1.168 -0.4861  0.0122 -0.1196
 1569TIP3    H126122   2.140   0.030   1.080  1.6754  0.3506 -0.0526
 1569TIP3    H226123   2.215   0.055   1.209 -1.6483 -0.9428  2.2852
 1570TIP3   OH226124   0.815   5.195   3.343 -0.8112 -0.1875 -0.0610
 1570TIP3    H126125   0.822   5.273   3.288 -1.1353  0.2423  0.4955
 1570TIP3    H226126   0.794   5.125   3.281  0.3744 -0.0243 -0.6878
 1571TIP3   OH226127   4.126   4.130  14.164 -0.1883  0.7713 -0.5689
 1571TIP3    H126128   4.114   4.040  14.132 -1.8758  1.0783 -0.8893
 1571TIP3    H226129   4.217   4.150  14.147  0.5494 -1.2943  0.5660
 1572TIP3   OH226130   3.176   2.208   4.685  0.1009  0.9068  0.1782
 1572TIP3    H126131   3.165   2.293   4.727 -1.3502  0.6216  0.4448
 1572TIP3    H226132   3.215   2.152   4.753  0.3519  1.1646  0.2468
 1573TIP3   OH226133   1.134   5.772   2.106 -0.3022 -0.1363  0.5051
 1573TIP3    H126134   1.156   5.685   2.137 -1.1343 -0.4795  0.1663
 1573TIP3    H226135   1.206   5.796   2.048  0.5553 -0.0686  1.5727
 1574TIP3   OH226136   3.793   1.462   4.673 -0.1798 -0.2352  0.7364
 1574TIP3    H126137   3.813   1.372   4.699  0.6526 -0.4752 -0.6084
 1574TIP3    H226138   3.838   1.473   4.589 -1.2286  1.0674  0.3120
 1575TIP3   OH226139   5.350   3.057   4.863  0.1236  0.1960  0.2247
 1575TIP3    H126140   5.385   3.125   4.920 -0.8190  0.1591  0.8808
 1575TIP3    H226141   5.413   2.985   4.869  1.1520  1.0203 -0.5167
 1576TIP3   OH226142   2.670   5.772   6.277 -0.4416 -0.0507 -0.2091
 1576TIP3    H126143   2.620   5.803   6.202  0.7508  3.0477  0.1387
 1576TIP3    H226144   2.761   5.775   6.248 -0.0820 -0.5367  0.8087
 1577TIP3   OH226145   6.553   2.019   2.194 -0.4442 -0.1673  0.5756
 1577TIP3    H126146   6.473   2.033   2.143 -1.2916 -1.6003  1.4339
 1577TIP3    H226147   6.618   1.992   2.130 -0.8638  0.2214 -0.0258
 1578TIP3   OH226148   1.463   2.109  11.148  0.0638 -0.6896  0.8081
 1578TIP3    H126149   1.516   2.044  11.101  0.0971  0.4358 -0.7951
 1578TIP3    H226150   1.509   2.192  11.134 -1.3843  0.0912  0.5541
 1579TIP3   OH226151   6.780   0.770   4.745 -0.2655 -0.1184  0.2596
 1579TIP3    H126152   6.706   0.828   4.726 -1.0686 -1.4759 -1.0000
 1579TIP3    H226153   6.780   0.707   4.673  0.7521 -1.5030  1.4057
 1580TIP3   OH226154   4.251   5.401  13.689  0.1542  0.4603  0.0306
 1580TIP3    H126155   4.242   5.446  13.605 -1.2224 -0.1055 -0.1520
 1580TIP3    H226156   4.257   5.309  13.666 -1.2700  0.2074  0.5828
 1581TIP3   OH226157   4.263   5.706  14.920  0.4706 -0.3041 -0.0316
 1581TIP3    H126158   4.295   5.756  14.845 -0.4405 -0.2166 -0.3757
 1581TIP3    H226159   4.190   5.654  14.885  1.1476 -1.5870  0.4089
 1582TIP3   OH226160   3.961   1.298   3.834 -0.1376 -0.2111 -0.2574
 1582TIP3    H126161   4.022   1.344   3.892 -0.7926  0.1252  0.1739
 1582TIP3    H226162   4.014   1.227   3.796  0.9230  0.9588 -1.0440
 1583TIP3   OH226163   5.896   3.227   2.822 -0.1377 -0.5114 -0.2509
 1583TIP3    H126164   5.878   3.140   2.859  0.8245 -0.1365  1.1916
 1583TIP3    H226165   5.955   3.211   2.749 -1.0737 -1.1775 -0.8791
 1584TIP3   OH226166   6.609   2.537   4.415  0.6168 -0.4632 -0.2451
 1584TIP3    H126167   6.516   2.515   4.417  1.2287 -3.4776  0.1228
 1584TIP3    H226168   6.617   2.599   4.342 -1.9362  1.7787  1.1641
 1585TIP3   OH226169   2.231   4.109  12.431 -0.8276  0.2065 -0.1571
 1585TIP3    H126170   2.283   4.100  12.511 -0.8125  0.3270 -0.1527
 1585TIP3    H226171   2.272   4.182  12.384  1.7593 -2.3751 -2.2536
 1586TIP3   OH226172   1.428   6.704   3.119  0.3003  0.1369 -0.2294
 1586TIP3    H126173   1.413   6.629   3.061 -0.8798 -1.8118  2.3755
 1586TIP3    H226174   1.453   6.775   3.060 -0.6847 -1.6886 -3.0782
 1587TIP3   OH226175   2.018   3.740   0.703 -0.2017  0.3275  0.0530
 1587TIP3    H126176   2.088   3.773   0.759  1.2885  1.2773 -2.2469
 1587TIP3    H226177   1.949   3.714   0.764  0.9418  2.1601  2.2741
 1588TIP3   OH226178   4.899   0.570   3.521  0.1092 -0.3055  0.1431
 1588TIP3    H126179   4.860   0.550   3.606  1.0141 -1.7453  0.2617
 1588TIP3    H226180   4.868   0.500   3.463 -1.0356  1.0265 -0.9152
 1589TIP3   OH226181   0.139   4.810  12.905  0.2568 -0.3648 -0.0272
 1589TIP3    H126182   0.145   4.889  12.851 -0.1502  0.1410  0.6481
 1589TIP3    H226183   0.221   4.764  12.888 -0.3674 -0.8588 -2.0346
 1590TIP3   OH226184   5.302   0.765   3.955  0.0340 -0.6381 -0.0377
 1590TIP3    H126185   5.336   0.718   3.879 -0.9783 -1.4757  0.0112
 1590TIP3    H226186   5.210   0.779   3.936  0.1612  0.7371  0.2668
 1591TIP3   OH226187   1.207   1.355   3.423 -0.6424 -0.0890 -0.5262
 1591TIP3    H126188   1.215   1.260   3.416 -1.3930 -0.1536 -0.5947
 1591TIP3    H226189   1.246   1.377   3.508  0.1701 -0.3756 -0.8282
 1592TIP3   OH226190   2.980   0.573   3.117 -0.5420 -0.3962 -0.2101
 1592TIP3    H126191   2.991   0.478   3.115  0.2854 -0.3590  1.0424
 1592TIP3    H226192   3.021   0.600   3.200 -0.1552  1.1276 -0.8561
 1593TIP3   OH226193   0.938   4.444   6.301  0.0782  0.2687 -0.0561
 1593TIP3    H126194   0.970   4.529   6.332  0.7097  0.6767 -1.7220
 1593TIP3    H226195   0.940   4.451   6.206  1.1750 -2.0045 -0.2740
 1594TIP3   OH226196   6.550   5.943  12.490  0.0147  0.0548  0.4758
 1594TIP3    H126197   6.458   5.947  12.514 -0.2177 -0.2485 -0.3324
 1594TIP3    H226198   6.551   5.897  12.406  0.9186 -0.1149  0.5678
 1595TIP3   OH226199   5.334   0.167  14.668 -0.3350 -0.1886  0.5773
 1595TIP3    H126200   5.333   0.260  14.646  0.2627 -0.5361 -1.0890
 1595TIP3    H226201   5.290   0.162  14.753 -2.7381  1.3111 -0.4740
 1596TIP3   OH226202   3.291   4.380   3.298 -0.1982  0.3610 -0.2894
 1596TIP3    H126203   3.305   4.295   3.257  0.5395  0.1931  0.2961
 1596TIP3    H226204   3.196   4.389   3.304 -0.2827 -0.2934 -0.6108
 1597TIP3   OH226205   0.216   5.877   2.600 -0.1404 -0.2131 -0.5938
 1597TIP3    H126206   0.200   5.815   2.528 -0.7238  0.1368 -0.7700
 1597TIP3    H226207   0.139   5.868   2.657  0.1628 -0.2452 -0.1858
 1598TIP3   OH226208   1.703   5.414   3.819  0.7246 -0.5772 -0.4272
 1598TIP3    H126209   1.677   5.327   3.791 -0.0305 -0.0830 -1.3051
 1598TIP3    H226210   1.771   5.440   3.757 -0.1341  0.0612 -1.1155
 1599TIP3   OH226211   6.355   1.736   3.854  0.4152 -0.0086  0.0625
 1599TIP3    H126212   6.423   1.670   3.837  2.4763  1.8545  0.6517
 1599TIP3    H226213   6.333   1.725   3.947  0.5016 -0.0700  0.0754
 1600TIP3   OH226214   6.314   4.969   5.976  0.3540 -0.4382  0.2754
 1600TIP3    H126215   6.301   5.014   6.059  1.1352  0.6701 -0.1838
 1600TIP3    H226216   6.229   4.976   5.932  0.9521  2.4475 -0.6475
 1601TIP3   OH226217   5.521   3.227  16.250 -0.5439  0.1669 -0.4804
 1601TIP3    H126218   5.561   3.145  16.224 -1.7240 -0.4004 -0.5712
 1601TIP3    H226219   5.568   3.253  16.330  1.1386  0.4345 -1.4962
 1602TIP3   OH226220   5.130   3.418  11.426  0.4276 -0.2424 -0.3289
 1602TIP3    H126221   5.151   3.380  11.512 -2.1392  1.1644  1.0425
 1602TIP3    H226222   5.093   3.503  11.446  0.3408  0.4066 -2.9325
 1603TIP3   OH226223   4.639   5.977  14.560  0.2476 -0.1376 -0.5918
 1603TIP3    H126224   4.610   6.025  14.483 -0.3477 -0.4169 -0.5454
 1603TIP3    H226225   4.715   5.927  14.530 -0.8595 -1.3745 -1.3764
 1604TIP3   OH226226   6.043   5.362  11.226 -0.6587 -0.1829  0.3546
 1604TIP3    H126227   5.989   5.335  11.153 -1.5736  1.2390  0.4805
 1604TIP3    H226228   6.108   5.292  11.235 -0.4145 -0.3080 -1.9036
 1605TIP3   OH226229   3.278   4.980  13.236 -0.3324  0.7192 -0.1578
 1605TIP3    H126230   3.342   5.018  13.295 -0.7338  2.0731 -0.5657
 1605TIP3    H226231   3.222   4.927  13.292  0.6856  0.1047  0.3066
 1606TIP3   OH226232   0.340   0.004  11.544  0.1448 -0.3859  0.1488
 1606TIP3    H126233   0.367  -0.085  11.518 -0.6066 -0.1010 -1.7294
 1606TIP3    H226234   0.298   0.040  11.466  2.5318  2.5161  0.0398
 1607TIP3   OH226235   6.598   0.817   5.725  0.7190 -0.4695 -0.4295
 1607TIP3    H126236   6.646   0.795   5.646  1.9025 -0.2665  0.2033
 1607TIP3    H226237   6.653   0.784   5.796  0.1947  0.2662  0.3414
 1608TIP3   OH226238   1.728   6.193   5.499 -0.3660 -0.4396  0.1119
 1608TIP3    H126239   1.704   6.233   5.582  0.4864  0.1089  0.1062
 1608TIP3    H226240   1.821   6.211   5.489 -0.2972 -1.1043 -0.6336
 1609TIP3   OH226241   4.549   6.369  16.584 -0.3564 -0.1657  0.3592
 1609TIP3    H126242   4.520   6.383  16.494  0.7681  0.6540  0.0978
 1609TIP3    H226243   4.539   6.275  16.599 -0.9630 -0.2404 -0.4623
 1610TIP3   OH226244   0.894   3.861   2.765  0.9134 -0.2921 -0.0945
 1610TIP3    H126245   0.853   3.938   2.804  1.6809 -0.4036  0.9794
 1610TIP3    H226246   0.861   3.858   2.675 -0.8627  0.0156  0.5198
 1611TIP3   OH226247   0.023   4.283   6.141 -0.1554  0.0708 -0.1820
 1611TIP3    H126248   0.030   4.193   6.172 -2.5020  0.0440  0.4865
 1611TIP3    H226249  -0.009   4.276   6.051  0.4167  0.2418 -0.4050
 1612TIP3   OH226250   2.796   1.134   3.795  0.6757  0.7794  0.0049
 1612TIP3    H126251   2.790   1.046   3.832  0.1135  0.5731 -0.5495
 1612TIP3    H226252   2.882   1.137   3.753 -0.1221 -0.2594 -1.8012
 1613TIP3   OH226253   6.660   1.866   0.927 -0.1214 -0.0363  0.0467
 1613TIP3    H126254   6.697   1.951   0.952 -0.0608  0.1425 -0.6214
 1613TIP3    H226255   6.660   1.815   1.008 -1.9165  1.2148  0.8853
 1614TIP3   OH226256   6.760   2.246   3.052 -0.1122 -0.1333  0.2304
 1614TIP3    H126257   6.818   2.200   2.992  0.1778  0.2818  0.1888
 1614TIP3    H226258   6.807   2.245   3.136  1.3948  2.8129 -0.4571
 1615TIP3   OH226259   5.961   1.341  15.154 -0.2879  0.1716  0.1405
 1615TIP3    H126260   5.878   1.294  15.147 -0.4007  0.5856 -1.9349
 1615TIP3    H226261   6.003   1.327  15.070  1.2802  0.8628  0.7809
 1616TIP3   OH226262   1.186   3.659   4.998 -0.3237  0.0950 -0.2384
 1616TIP3    H126263   1.268   3.668   5.047  0.4538 -1.4283 -1.1881
 1616TIP3    H226264   1.213   3.645   4.907 -1.6981  1.2766 -0.8734
 1617TIP3   OH226265   4.142   4.616   1.642  0.3335 -0.3046 -0.1191
 1617TIP3    H126266   4.103   4.606   1.555  1.2763  0.0215 -0.5981
 1617TIP3    H226267   4.187   4.534   1.659 -1.8978 -1.3547  1.1739
 1618TIP3   OH226268   4.076   1.616   3.304  0.0642 -0.0712  0.3521
 1618TIP3    H126269   4.042   1.597   3.391 -3.1274  0.1694 -0.6863
 1618TIP3    H226270   4.065   1.534   3.255  0.7226  0.1143 -0.1234
 1619TIP3   OH226271   1.614   0.201   3.901 -0.0687 -0.1552  0.3776
 1619TIP3    H126272   1.697   0.154   3.898 -0.7640 -1.4068  0.0659
 1619TIP3    H226273   1.553   0.146   3.853 -0.9436  1.0571  0.0351
 1620TIP3   OH226274   4.208   2.303  16.410  0.3126  0.1819 -0.1148
 1620TIP3    H126275   4.124   2.344  16.433  0.2641  0.7689 -1.2845
 1620TIP3    H226276   4.211   2.306  16.315  1.9605  0.7722 -0.0796
 1621TIP3   OH226277   6.426   1.429   4.714 -0.4587 -0.1372  0.5586
 1621TIP3    H126278   6.421   1.370   4.789 -0.6440 -0.8950 -0.0364
 1621TIP3    H226279   6.475   1.379   4.648 -1.9866 -0.2655 -0.5242
 1622TIP3   OH226280   4.211   1.886   5.748  0.4505 -0.6760 -0.5075
 1622TIP3    H126281   4.149   1.945   5.790  0.2739 -2.7903  2.6068
 1622TIP3    H226282   4.294   1.933   5.750 -0.0116  0.1425  0.3386
 1623TIP3   OH226283   6.685   4.249  13.285  0.2801 -0.0431 -0.0409
 1623TIP3    H126284   6.709   4.244  13.378  0.9109  0.2711 -0.1863
 1623TIP3    H226285   6.629   4.172  13.272  2.1348 -1.4963  0.0441
 1624TIP3   OH226286   6.735   3.989   3.069  0.0819 -0.3784 -0.0865
 1624TIP3    H126287   6.680   4.016   3.143  1.9183  0.5744  1.0137
 1624TIP3    H226288   6.796   4.062   3.056  0.7874 -1.1864 -1.5527
 1625TIP3   OH226289   6.750   0.141  14.844 -0.1331 -0.2870 -0.1396
 1625TIP3    H126290   6.695   0.205  14.888  1.1051 -0.3806  1.6742
 1625TIP3    H226291   6.821   0.193  14.806  0.9479 -0.5419  1.4530
 1626TIP3   OH226292   5.071   2.266  16.694  0.3277 -0.0968 -0.3941
 1626TIP3    H126293   4.999   2.302  16.642 -1.2090 -0.3175  1.4759
 1626TIP3    H226294   5.146   2.322  16.672 -1.0997  1.9948 -0.2622
 1627TIP3   OH226295   4.725   0.376   3.708 -0.0033  0.7004 -0.0476
 1627TIP3    H126296   4.670   0.298   3.720  0.3314  0.3203 -0.9511
 1627TIP3    H226297   4.808   0.342   3.676  0.4569  1.3593  0.4458
 1628TIP3   OH226298   3.729   6.581   6.102 -0.1770 -0.0980 -0.1680
 1628TIP3    H126299   3.776   6.522   6.162 -0.7050 -0.7522 -0.3730
 1628TIP3    H226300   3.638   6.577   6.133 -0.8385 -1.9661 -2.1390
 1629TIP3   OH226301   5.934   0.363  16.263  0.1811 -0.8039  0.1076
 1629TIP3    H126302   6.002   0.408  16.314 -0.7876 -2.0323  2.6137
 1629TIP3    H226303   5.890   0.434  16.215  0.3086  0.6477  2.0009
 1630TIP3   OH226304   3.736   1.824  15.803  0.0978 -0.2707  0.7610
 1630TIP3    H126305   3.763   1.737  15.775 -0.4786 -0.0103 -0.6755
 1630TIP3    H226306   3.747   1.879  15.726 -3.0048  0.1886  0.5124
 1631TIP3   OH226307   3.612   4.220   3.304  0.8766  0.1709  0.3214
 1631TIP3    H126308   3.589   4.279   3.233  1.0590 -1.6886 -1.3693
 1631TIP3    H226309   3.562   4.253   3.379  0.1442  1.7915 -0.8067
 1632TIP3   OH226310   3.631   6.461   6.431 -0.0984 -0.3477 -1.0008
 1632TIP3    H126311   3.586   6.384   6.466 -0.8978  0.4586 -0.1894
 1632TIP3    H226312   3.690   6.426   6.364 -0.3357 -1.6721 -0.5514
 1633TIP3   OH226313   5.375   1.688   0.116 -0.6421  0.4047 -0.0305
 1633TIP3    H126314   5.346   1.699   0.026  1.1066  1.4747 -0.5197
 1633TIP3    H226315   5.423   1.605   0.116 -1.3047  0.0081  0.1349
 1634TIP3   OH226316   4.690   2.883   0.324 -0.3796 -0.2097  0.1302
 1634TIP3    H126317   4.682   2.877   0.419 -0.0243 -0.9539  0.1184
 1634TIP3    H226318   4.691   2.977   0.306 -0.5822 -0.0655  0.8505
 1635TIP3   OH226319   0.080   6.048  16.801  0.7673  0.1202 -0.1653
 1635TIP3    H126320  -0.016   6.051  16.808  0.7685  0.0815 -0.1278
 1635TIP3    H226321   0.111   6.087  16.883  0.7861  0.6366 -0.4151
 1636TIP3   OH226322   2.061   1.108   3.611 -0.0621  0.0567 -0.0572
 1636TIP3    H126323   2.120   1.183   3.605  0.2313 -0.2989 -2.1856
 1636TIP3    H226324   2.010   1.124   3.691 -0.3922  2.7718 -0.7269
 1637TIP3   OH226325   6.390   4.447  11.929  0.1818 -0.3185 -0.2491
 1637TIP3    H126326   6.326   4.456  11.859  1.6228  0.0511 -1.5488
 1637TIP3    H226327   6.339   4.410  12.002 -1.5530  0.1966 -1.1333
 1638TIP3   OH226328   1.642   5.519  12.925  0.4994 -0.7195 -0.0351
 1638TIP3    H126329   1.736   5.536  12.922  0.2758  0.9540  1.0761
 1638TIP3    H226330   1.612   5.535  12.836  0.7726  2.2560  0.3183
 1639TIP3   OH226331   5.664   1.948  15.953  0.5105  0.7529 -0.3723
 1639TIP3    H126332   5.723   2.017  15.925 -0.4757  1.6412 -0.3041
 1639TIP3    H226333   5.654   1.892  15.875  1.8634  0.2625 -0.2178
 1640TIP3   OH226334   1.956   1.563   3.040  0.0474 -0.2189 -0.1209
 1640TIP3    H126335   1.878   1.567   3.095 -0.9087 -2.8077 -1.1306
 1640TIP3    H226336   1.940   1.627   2.971  0.1614  1.3059  1.2077
 1641TIP3   OH226337   2.813   6.163  15.964 -0.4278  0.5750 -0.7543
 1641TIP3    H126338   2.799   6.103  16.036  0.3562  1.3719  0.0868
 1641TIP3    H226339   2.872   6.229  15.999 -0.1065  1.0283 -2.1001
 1642TIP3   OH226340   4.356   3.700   5.699  0.0531 -0.0347 -0.0961
 1642TIP3    H126341   4.272   3.736   5.727 -0.3229 -0.3158 -0.8339
 1642TIP3    H226342   4.336   3.611   5.670  0.9104 -0.7531  1.3779
 1643TIP3   OH226343   0.182   1.481   6.151  0.2687 -0.0521 -0.4398
 1643TIP3    H126344   0.109   1.488   6.213  0.4455  0.0096 -0.2383
 1643TIP3    H226345   0.224   1.398   6.173  0.2631 -0.0837 -0.5501
 1644TIP3   OH226346   5.004   5.952  17.250 -0.1600 -0.0242  0.0092
 1644TIP3    H126347   5.018   6.038  17.210  0.3648 -0.2135 -0.2197
 1644TIP3    H226348   5.055   5.955  17.331 -0.1050 -0.1303 -0.0210
 1645TIP3   OH226349   3.508   6.473   5.095  0.0074  0.5490 -0.0425
 1645TIP3    H126350   3.584   6.490   5.150  0.1530 -0.9284  0.2646
 1645TIP3    H226351   3.443   6.538   5.122  0.6987  0.9801  0.6089
 1646TIP3   OH226352   2.133   0.942  12.619  0.0714 -0.0118  0.7156
 1646TIP3    H126353   2.079   1.017  12.642 -0.8339 -0.3377 -0.2410
 1646TIP3    H226354   2.171   0.912  12.702  1.3100  2.1207  0.9806
 1647TIP3   OH226355   6.179   5.210  11.471  0.2306 -0.1768  0.3478
 1647TIP3    H126356   6.142   5.289  11.510  1.3200 -0.1420  1.3285
 1647TIP3    H226357   6.107   5.147  11.473 -0.3963  0.5274  0.3195
 1648TIP3   OH226358   2.860   4.873   1.550  0.5228  0.2548  0.4966
 1648TIP3    H126359   2.847   4.809   1.619 -2.6881 -0.8446 -0.9136
 1648TIP3    H226360   2.857   4.957   1.594 -2.2035 -0.3731  1.7163
 1649TIP3   OH226361   0.824   2.030   2.389  0.5181  0.0617  0.2115
 1649TIP3    H126362   0.829   1.937   2.410  1.5921  0.2653  0.9559
 1649TIP3    H226363   0.811   2.032   2.294 -1.2884 -0.8456  0.4011
 1650TIP3   OH226364   6.479   2.886   1.634 -0.2185 -0.0141 -0.3002
 1650TIP3    H126365   6.439   2.944   1.698  0.5694 -1.3395  1.5058
 1650TIP3    H226366   6.406   2.838   1.596 -0.6106 -0.3832  0.8561
 1651TIP3   OH226367   5.423   2.802   4.671  0.4793 -0.5065 -0.6067
 1651TIP3    H126368   5.465   2.826   4.589 -0.1877  0.3776 -0.7129
 1651TIP3    H226369   5.331   2.830   4.660 -0.6250 -3.8882 -1.0371
 1652TIP3   OH226370   1.876   0.879   5.789  0.0348 -0.5548  0.4211
 1652TIP3    H126371   1.871   0.785   5.776  1.1758 -0.6678  0.6646
 1652TIP3    H226372   1.907   0.914   5.705 -0.6463 -0.3684  0.2472
 1653TIP3   OH226373   2.439   5.718   4.749 -0.4934  0.1114  0.5200
 1653TIP3    H126374   2.461   5.629   4.720  0.3762  0.1627  0.9958
 1653TIP3    H226375   2.348   5.711   4.779 -0.9681 -0.2481 -0.9102
 1654TIP3   OH226376   1.628   4.792  13.673 -0.6157 -0.2962  0.1592
 1654TIP3    H126377   1.599   4.705  13.646 -0.4404 -0.4805  0.5567
 1654TIP3    H226378   1.548   4.840  13.694 -0.6781 -0.5651  0.5414
 1655TIP3   OH226379   0.465   1.586   4.745 -0.0203  0.2151  0.2503
 1655TIP3    H126380   0.560   1.581   4.746 -0.0416 -1.3976 -0.7706
 1655TIP3    H226381   0.445   1.677   4.723  1.2467  0.8228  1.4797
 1656TIP3   OH226382   5.355   0.779   6.402 -0.0864  1.0852  0.0727
 1656TIP3    H126383   5.380   0.687   6.402  0.1983  1.1612  0.4276
 1656TIP3    H226384   5.415   0.821   6.464 -2.3492  0.9225  2.5821
 1657TIP3   OH226385   5.516   0.663  13.850  0.4269  0.7402  0.0257
 1657TIP3    H126386   5.575   0.637  13.779  0.1126  0.7643 -0.2472
 1657TIP3    H226387   5.524   0.759  13.854  1.6065  0.6099  1.0514
 1658TIP3   OH226388   0.043   2.672   4.560 -0.2932  0.1165 -0.7145
 1658TIP3    H126389  -0.014   2.603   4.529 -1.1895 -0.0922  1.2348
 1658TIP3    H226390   0.092   2.700   4.483 -1.8994 -0.7746 -2.1110
 1659TIP3   OH226391   5.833   0.060   0.758  0.2348  0.5255  0.1711
 1659TIP3    H126392   5.764   0.081   0.821  0.0479  1.1756 -0.2375
 1659TIP3    H226393   5.799  -0.015   0.710  0.5117 -0.1714  1.0426
 1660TIP3   OH226394   0.453   3.625   0.551  0.0797 -0.2115 -0.2719
 1660TIP3    H126395   0.499   3.603   0.470  1.4113 -0.9851  0.6555
 1660TIP3    H226396   0.405   3.545   0.574  0.5695 -0.3590  0.2560
 1661TIP3   OH226397   6.380   1.008  11.574  0.1007 -0.4080 -0.8623
 1661TIP3    H126398   6.350   1.004  11.664 -0.3648  2.4606 -0.8128
 1661TIP3    H226399   6.317   0.954  11.525  0.0257 -1.5054  0.3979
 1662TIP3   OH226400   3.847   4.902   0.780 -0.3207 -0.0554  0.2667
 1662TIP3    H126401   3.836   4.944   0.865 -0.5062 -0.5083  0.4678
 1662TIP3    H226402   3.782   4.944   0.724  0.1226  0.5822  0.2136
 1663TIP3   OH226403   5.326   1.035   1.294  0.1535 -0.0882 -0.0363
 1663TIP3    H126404   5.322   1.082   1.211  0.9414 -1.1890 -0.7133
 1663TIP3    H226405   5.263   0.964   1.284 -0.1399  0.0909  0.5168
 1664TIP3   OH226406   5.495   0.090   5.597  0.2061 -0.0933  0.1493
 1664TIP3    H126407   5.527   0.013   5.645  4.7744  0.8028 -1.0347
 1664TIP3    H226408   5.491   0.159   5.663 -1.6025 -0.6731  0.7230
 1665TIP3   OH226409   3.541   2.812   5.070 -0.3606  0.6705 -0.3711
 1665TIP3    H126410   3.536   2.719   5.093  0.1319  0.3696 -1.3873
 1665TIP3    H226411   3.541   2.858   5.154  2.5802 -0.4028  0.3392
 1666TIP3   OH226412   4.843   1.535   6.178  0.0130 -0.3782 -0.3027
 1666TIP3    H126413   4.911   1.512   6.114 -0.5419 -1.9381 -0.3912
 1666TIP3    H226414   4.770   1.567   6.125  0.0522 -0.3736 -0.3540
 1667TIP3   OH226415   5.227   2.309   3.858 -0.1243 -0.5034  0.3313
 1667TIP3    H126416   5.293   2.277   3.796 -0.7049  0.2498 -0.6961
 1667TIP3    H226417   5.198   2.230   3.903 -2.0456 -1.6765 -2.6396
 1668TIP3   OH226418   1.291   6.269   2.781 -0.1377  0.1941  0.1971
 1668TIP3    H126419   1.321   6.240   2.694  3.3980  3.5227  0.0317
 1668TIP3    H226420   1.255   6.191   2.821  1.6041 -2.4271 -2.8660
 1669TIP3   OH226421   1.284   5.631  11.499  1.0783 -0.1674  0.0588
 1669TIP3    H126422   1.376   5.650  11.480  0.6836 -0.4920 -2.6630
 1669TIP3    H226423   1.272   5.540  11.473 -0.0296 -0.0812  0.2121
 1670TIP3   OH226424   4.526   4.138  13.842 -0.3803  0.3153  0.0664
 1670TIP3    H126425   4.485   4.109  13.923 -2.7173 -0.6749 -1.3813
 1670TIP3    H226426   4.583   4.065  13.817  1.0740  1.0040  1.2283
 1671TIP3   OH226427   0.709   2.211   5.916  0.0140  0.1295  0.1620
 1671TIP3    H126428   0.765   2.228   5.840  1.4868  2.1449  1.6136
 1671TIP3    H226429   0.761   2.155   5.973  0.1263  1.0474  0.9932
 1672TIP3   OH226430   2.319   5.466  12.045  0.2572 -0.4472 -0.1489
 1672TIP3    H126431   2.226   5.441  12.045  0.3038 -0.6430  0.4469
 1672TIP3    H226432   2.356   5.421  12.121  0.9413 -0.7141 -0.6276
 1673TIP3   OH226433   6.036   1.217   0.864 -0.3508 -0.2883 -0.3200
 1673TIP3    H126434   6.085   1.278   0.920  0.9275 -1.7279  0.1896
 1673TIP3    H226435   6.056   1.130   0.900 -1.3364 -1.0894 -1.6314
 1674TIP3   OH226436   0.070   0.409  14.697 -0.6007 -0.2798  0.0553
 1674TIP3    H126437   0.092   0.493  14.656  1.2276 -0.5205  0.4354
 1674TIP3    H226438   0.067   0.346  14.625 -0.5481 -0.1349 -0.0739
 1675TIP3   OH226439   3.520   4.846  11.262 -0.3392  0.6086 -0.0991
 1675TIP3    H126440   3.527   4.826  11.169 -0.4960  1.7011 -0.3603
 1675TIP3    H226441   3.454   4.915  11.267 -0.5106  0.3950  0.8491
 1676TIP3   OH226442   4.099   4.383  13.819 -0.4275 -0.2942 -0.2563
 1676TIP3    H126443   4.125   4.352  13.732 -0.3217  0.2380 -0.4163
 1676TIP3    H226444   4.017   4.338  13.836 -1.6403  1.2999 -1.6016
 1677TIP3   OH226445   0.279   2.163  15.100  0.0119  0.4302 -0.3738
 1677TIP3    H126446   0.335   2.238  15.083 -0.2725  0.6670 -0.2860
 1677TIP3    H226447   0.220   2.192  15.170  0.2329 -0.0489  0.0142
 1678TIP3   OH226448   3.415   4.055  15.973  0.4852  0.0348  0.1154
 1678TIP3    H126449   3.354   4.128  15.956  0.2984  0.0982  1.0132
 1678TIP3    H226450   3.460   4.042  15.890 -1.2033 -0.4227 -0.7674
 1679TIP3   OH226451   2.985   0.686  13.004 -0.0937  0.2298  0.2660
 1679TIP3    H126452   2.950   0.601  12.977 -0.0354 -0.0877  1.1601
 1679TIP3    H226453   3.060   0.700  12.947  1.1367 -1.2833  1.4332
 1680TIP3   OH226454   5.735   2.131  15.625  0.5733  0.1105 -0.1051
 1680TIP3    H126455   5.829   2.134  15.638  0.6673  1.3801 -0.8621
 1680TIP3    H226456   5.720   2.181  15.545 -0.8301  0.8363  0.5649
 1681TIP3   OH226457   4.431   4.954   5.230  0.0891  0.0467 -0.3224
 1681TIP3    H126458   4.344   4.986   5.253 -0.2823 -1.1278 -0.0130
 1681TIP3    H226459   4.490   4.998   5.291 -0.2456  1.0805 -0.7348
 1682TIP3   OH226460   5.603   1.260   2.252 -0.1622  0.0318  0.3823
 1682TIP3    H126461   5.601   1.343   2.300  0.4378 -1.0071  2.3128
 1682TIP3    H226462   5.630   1.195   2.317  0.1201 -1.5762 -1.2496
 1683TIP3   OH226463   3.415   6.584  13.423  0.5023  0.1627 -0.1017
 1683TIP3    H126464   3.359   6.611  13.350 -1.9569 -2.2924  0.6995
 1683TIP3    H226465   3.453   6.501  13.395  0.7119 -0.0745  0.8556
 1684TIP3   OH226466   4.347   4.533   5.562 -0.4426 -0.2813 -0.2974
 1684TIP3    H126467   4.293   4.491   5.495 -1.7497  0.1051  0.4573
 1684TIP3    H226468   4.285   4.586   5.612  0.8729  1.1865 -0.1556
 1685TIP3   OH226469   6.080   3.183   0.661  0.5791 -0.8086  0.3638
 1685TIP3    H126470   6.127   3.100   0.650  0.4020 -1.1715  2.0666
 1685TIP3    H226471   5.988   3.160   0.649  0.5722 -0.7544  0.3126
 1686TIP3   OH226472   1.692   5.462  15.434 -0.0810  0.0141  0.3426
 1686TIP3    H126473   1.680   5.500  15.521  1.2992  1.0596  0.1073
 1686TIP3    H226474   1.787   5.455  15.423 -0.2453 -0.8702 -0.7650
 1687TIP3   OH226475   0.352   4.018  14.927 -0.0516 -0.1116 -0.1966
 1687TIP3    H126476   0.406   3.965  14.985 -1.3887 -0.5121  0.7395
 1687TIP3    H226477   0.346   3.968  14.846 -0.0350 -0.6537  0.1328
 1688TIP3   OH226478   3.878   5.413   3.775 -0.6275  0.4425 -0.0673
 1688TIP3    H126479   3.952   5.381   3.827 -2.1250 -0.6119  1.5369
 1688TIP3    H226480   3.841   5.334   3.736  0.4141  1.2038 -2.7962
 1689TIP3   OH226481   0.501   5.888  14.948 -0.9233 -0.0081  0.2201
 1689TIP3    H126482   0.473   5.901  14.858  2.1120 -0.1636 -0.8636
 1689TIP3    H226483   0.506   5.977  14.984 -0.8144  0.1796 -0.2472
 1690TIP3   OH226484   4.199   1.778  14.893  0.6147 -0.3393 -0.2863
 1690TIP3    H126485   4.136   1.715  14.859  0.9818 -0.5319 -0.6054
 1690TIP3    H226486   4.199   1.849  14.829 -1.9334  1.4002  1.4355
 1691TIP3   OH226487   2.388   6.054  12.246 -0.5532 -0.4115 -0.0712
 1691TIP3    H126488   2.367   6.084  12.157 -0.4203  0.1529  0.0839
 1691TIP3    H226489   2.392   6.134  12.298 -1.6430 -0.8104  0.6725
 1692TIP3   OH226490   5.018   1.980  12.925 -0.6882  0.6188  0.0352
 1692TIP3    H126491   5.017   1.895  12.971 -0.4021 -0.2846 -1.5394
 1692TIP3    H226492   4.947   1.973  12.861 -0.3132  1.3709 -0.4685
 1693TIP3   OH226493   1.180   0.271  16.905 -0.1344 -0.4174  0.1673
 1693TIP3    H126494   1.271   0.273  16.876  0.1261  2.1977  0.9067
 1693TIP3    H226495   1.183   0.297  16.997 -1.7433  1.5379 -0.2578
 1694TIP3   OH226496   6.350   5.807  12.858 -0.2110 -0.1052 -0.4625
 1694TIP3    H126497   6.380   5.823  12.947 -0.0681 -1.9758 -0.1434
 1694TIP3    H226498   6.255   5.799  12.864 -0.1097 -1.4281 -0.2375
 1695TIP3   OH226499   6.600   6.141  14.566  0.0570  0.1129 -0.4244
 1695TIP3    H126500   6.684   6.153  14.521  2.1719 -2.0106  2.5521
 1695TIP3    H226501   6.577   6.050  14.549 -1.5484  0.5788 -0.9200
 1696TIP3   OH226502   5.088   1.012  14.336 -0.6626 -0.4425 -0.2156
 1696TIP3    H126503   5.116   1.002  14.245  0.1150 -1.0094  0.0717
 1696TIP3    H226504   5.167   1.042  14.382 -0.6790 -1.4192  0.4875
 1697TIP3   OH226505   2.768   6.399   0.602  0.5375  0.1249 -0.1845
 1697TIP3    H126506   2.803   6.420   0.516  0.5344  1.6886  0.1663
 1697TIP3    H226507   2.676   6.379   0.586 -0.0615  2.7350 -0.2896
 1698TIP3   OH226508   6.766   0.922   3.507  0.6428  0.3907 -0.8114
 1698TIP3    H126509   6.788   0.939   3.415 -0.1430 -0.4985 -1.1861
 1698TIP3    H226510   6.679   0.959   3.518  0.0823 -0.8711 -0.8749
 1699TIP3   OH226511   6.644   0.712  15.688 -0.1712  0.3419 -0.8725
 1699TIP3    H126512   6.621   0.721  15.596  0.4950  1.9940 -0.9180
 1699TIP3    H226513   6.738   0.730  15.691 -0.0738 -0.2214  0.0777
 1700TIP3   OH226514   6.061   1.394  12.458 -1.0322  0.3106  0.3525
 1700TIP3    H126515   6.137   1.340  12.480  0.5231  2.8535  1.7311
 1700TIP3    H226516   6.006   1.337  12.404  1.4885 -1.8825 -0.1256
 1701TIP3   OH226517   4.971   6.432   1.676  0.1233 -1.1121  0.4422
 1701TIP3    H126518   4.878   6.440   1.657  0.0022  0.0068  1.3887
 1701TIP3    H226519   4.993   6.513   1.722  1.0783 -2.2765  2.1327
 1702TIP3   OH226520   4.150   3.512   4.274 -0.3338  0.1181 -0.1456
 1702TIP3    H126521   4.124   3.473   4.190 -0.0280 -2.1747  0.7699
 1702TIP3    H226522   4.243   3.532   4.263 -0.1870 -0.5867 -0.2241
 1703TIP3   OH226523   2.616   1.058   3.474 -0.6005  0.0694 -0.2651
 1703TIP3    H126524   2.533   1.078   3.430 -0.7031 -0.5358 -0.3572
 1703TIP3    H226525   2.642   1.140   3.516 -0.7107  0.5410 -1.1141
 1704TIP3   OH226526   6.585   0.251   6.904  0.1086 -0.1550 -0.1114
 1704TIP3    H126527   6.667   0.257   6.854 -0.1052  0.3460 -0.4018
 1704TIP3    H226528   6.599   0.307   6.980 -0.2143  0.4856 -0.5145
 1705TIP3   OH226529   0.113   3.720   1.289 -0.2291  0.1560  0.1214
 1705TIP3    H126530   0.176   3.649   1.298  0.8765  1.1173  0.2395
 1705TIP3    H226531   0.142   3.786   1.352 -0.8860  0.9484 -0.3854
 1706TIP3   OH226532   5.621   3.409   5.524  0.9988  0.0062 -0.3619
 1706TIP3    H126533   5.632   3.411   5.619  1.5664 -1.2862 -0.3834
 1706TIP3    H226534   5.707   3.432   5.490  1.5024 -1.9078 -0.5275
 1707TIP3   OH226535   1.735   2.321   1.192  0.0544  0.2363 -0.1033
 1707TIP3    H126536   1.691   2.253   1.142 -0.5847  1.0403 -0.6385
 1707TIP3    H226537   1.814   2.277   1.226 -0.5784 -0.8983 -0.0432
 1708TIP3   OH226538   4.055   1.386   3.192  0.0800  0.3575  0.3598
 1708TIP3    H126539   4.110   1.337   3.131  1.0146  0.3028  1.2188
 1708TIP3    H226540   3.972   1.398   3.146  0.6105 -0.0759 -0.7292
 1709TIP3   OH226541   1.887   1.913  11.468 -0.6721  0.5186 -0.0536
 1709TIP3    H126542   1.827   1.987  11.454 -0.9931  0.4410  0.8350
 1709TIP3    H226543   1.910   1.918  11.560  0.3264  0.2574 -0.2724
 1710TIP3   OH226544   2.169   2.206  12.572  0.0131 -0.0333  0.1775
 1710TIP3    H126545   2.077   2.185  12.584 -0.5768  1.8103 -0.6618
 1710TIP3    H226546   2.204   2.212  12.660 -1.4208  2.0645  0.6881
 1711TIP3   OH226547   3.298   4.327   0.389  0.0196  0.2332  0.3444
 1711TIP3    H126548   3.214   4.352   0.427 -0.1290 -0.4016  0.4371
 1711TIP3    H226549   3.355   4.402   0.407  0.1297 -0.2655  2.3544
 1712TIP3   OH226550   5.050   5.473  11.219 -0.2588 -0.1733 -0.0504
 1712TIP3    H126551   5.107   5.534  11.172  0.1856  0.5388  1.3687
 1712TIP3    H226552   5.093   5.458  11.303 -1.0840 -1.3383  0.2042
 1713TIP3   OH226553   4.273   2.905   1.778 -0.0662  0.2810 -0.5689
 1713TIP3    H126554   4.315   2.858   1.850  2.1100  1.0368 -1.2779
 1713TIP3    H226555   4.216   2.840   1.738 -1.2577 -0.1977  1.7025
 1714TIP3   OH226556   6.469   0.913  13.544 -0.3669 -0.1257  0.4186
 1714TIP3    H126557   6.548   0.860  13.557  0.4606  1.5324  2.6944
 1714TIP3    H226558   6.501   0.998  13.513 -1.6012 -0.4518 -2.0730
 1715TIP3   OH226559   5.909   4.599  12.733  0.0682  0.5300 -0.1291
 1715TIP3    H126560   5.929   4.673  12.791 -0.3717 -1.0508  2.2012
 1715TIP3    H226561   5.984   4.595  12.673  0.9009  1.8536  0.7496
 1716TIP3   OH226562   4.444   0.715   4.566  0.1266 -0.2192 -0.1831
 1716TIP3    H126563   4.411   0.727   4.477  1.6085 -0.3223 -0.7683
 1716TIP3    H226564   4.386   0.649   4.605 -0.4908 -0.2179 -1.0850
 1717TIP3   OH226565   2.895   0.795   0.113  0.0739  0.3752  0.1340
 1717TIP3    H126566   2.958   0.864   0.133  1.0280 -0.6319  0.6821
 1717TIP3    H226567   2.815   0.822   0.159  0.0537  1.6934 -0.6207
 1718TIP3   OH226568   6.219   3.461   5.054 -0.2042  0.9798 -0.2674
 1718TIP3    H126569   6.269   3.400   4.999  1.3776  1.3615  0.6782
 1718TIP3    H226570   6.131   3.423   5.058  0.2797 -0.3046 -1.1195
 1719TIP3   OH226571   6.514   4.408  12.238  0.1917  0.6957 -0.2044
 1719TIP3    H126572   6.447   4.349  12.203  0.7556  0.0356 -0.1671
 1719TIP3    H226573   6.577   4.351  12.281  0.0016  1.4280  1.1023
 1720TIP3   OH226574   4.648   1.935  13.018 -0.4070  0.9088  0.0271
 1720TIP3    H126575   4.643   1.872  12.947 -0.8939  1.4441 -0.4185
 1720TIP3    H226576   4.660   2.020  12.975  0.5754  1.0947  0.6292
 1721TIP3   OH226577   0.394   1.389  11.989  0.0099 -0.0615  0.2680
 1721TIP3    H126578   0.449   1.388  12.067  0.2800 -0.2732  0.0809
 1721TIP3    H226579   0.340   1.310  11.997 -0.4774  0.3058  0.5973
 1722TIP3   OH226580   2.633   4.034   6.258  0.4017 -0.0842  0.3589
 1722TIP3    H126581   2.585   3.979   6.197  0.8040 -0.3185  0.2541
 1722TIP3    H226582   2.696   3.975   6.300  1.1172  0.3678 -0.0518
 1723TIP3   OH226583   0.891   0.680  12.953  0.2848  0.1839 -0.3467
 1723TIP3    H126584   0.810   0.730  12.950  1.3323  1.9554 -3.1817
 1723TIP3    H226585   0.960   0.746  12.953  1.7072 -1.2274 -1.4097
 1724TIP3   OH226586   1.770   6.210  15.850  0.5471  0.1559  0.0978
 1724TIP3    H126587   1.812   6.249  15.773 -0.3655 -0.3880 -0.6949
 1724TIP3    H226588   1.691   6.263  15.863  0.0169 -0.5642 -0.1468
 1725TIP3   OH226589   4.668   6.527  15.574  0.0378  0.1771 -0.1588
 1725TIP3    H126590   4.574   6.544  15.563  0.1814  1.7489  0.7339
 1725TIP3    H226591   4.676   6.432  15.568 -1.5067  0.0673 -1.0018
 1726TIP3   OH226592   1.037   3.503   1.349  0.4268 -0.5419  0.1640
 1726TIP3    H126593   1.122   3.504   1.304  1.9404 -0.9632  2.7964
 1726TIP3    H226594   1.015   3.410   1.357 -1.2631 -0.4012 -2.0821
 1727TIP3   OH226595   3.858   5.127  16.445 -0.0052  0.2714 -0.1305
 1727TIP3    H126596   3.895   5.190  16.383  1.6674 -0.9571 -0.4356
 1727TIP3    H226597   3.801   5.180  16.501 -1.3814  1.4813 -2.4969
 1728TIP3   OH226598   5.925   3.509  15.525 -0.3509  0.6757 -0.2628
 1728TIP3    H126599   5.899   3.418  15.509  0.8858  0.4542 -1.2175
 1728TIP3    H226600   5.992   3.526  15.459 -0.2088  2.1318  0.2264
 1729TIP3   OH226601   1.715   3.907  12.070  0.0339  0.3580  0.1508
 1729TIP3    H126602   1.789   3.959  12.039 -0.3736  1.5279  1.0908
 1729TIP3    H226603   1.738   3.886  12.161 -1.5505  2.2725  1.0628
 1730TIP3   OH226604   1.915   1.288   5.810  0.4000  0.5091  0.7207
 1730TIP3    H126605   1.846   1.312   5.748  0.3734  1.1507  0.9871
 1730TIP3    H226606   1.996   1.305   5.762  0.3797  0.0361  0.5111
 1731TIP3   OH226607   5.245   0.263  12.645 -0.0859 -0.1107 -0.1639
 1731TIP3    H126608   5.181   0.221  12.702  0.4794 -0.1939  0.4205
 1731TIP3    H226609   5.235   0.357  12.662  3.0445 -0.2252  3.4533
 1732TIP3   OH226610   4.676   4.019   3.823  0.5907  0.1850 -0.0983
 1732TIP3    H126611   4.711   3.964   3.892  0.4803  1.1448  0.7501
 1732TIP3    H226612   4.752   4.046   3.772  0.4732 -2.3767 -1.8345
 1733TIP3   OH226613   6.238   1.807   1.226 -0.4121 -0.4831 -0.2303
 1733TIP3    H126614   6.240   1.712   1.223  0.3892 -0.4796  0.1477
 1733TIP3    H226615   6.155   1.830   1.184 -0.1213 -1.3004 -1.3023
 1734TIP3   OH226616   6.282   1.588  11.879  0.0305  0.0822  0.0595
 1734TIP3    H126617   6.221   1.565  11.809  0.7727 -1.1566 -0.2083
 1734TIP3    H226618   6.229   1.635  11.943 -1.3146 -1.3891  0.0635
 1735TIP3   OH226619   5.938   2.681   4.073  0.0748  0.7967  0.2417
 1735TIP3    H126620   5.963   2.681   4.165 -0.5503  0.6998  0.4150
 1735TIP3    H226621   5.883   2.604   4.063  2.0360 -0.5564 -0.7528
 1736TIP3   OH226622   3.074   6.682  14.860  0.2393 -0.4974 -0.0638
 1736TIP3    H126623   3.121   6.693  14.942  1.6837 -2.1386 -0.6129
 1736TIP3    H226624   3.030   6.598  14.868 -0.5741 -0.1319 -0.5356
 1737TIP3   OH226625   3.473   4.310  11.266  0.1478  0.1508 -0.1183
 1737TIP3    H126626   3.531   4.353  11.329 -1.9072  0.4601  1.6825
 1737TIP3    H226627   3.508   4.221  11.259  0.2122 -0.0277  1.8471
 1738TIP3   OH226628   2.427   5.431  16.417 -0.0482 -0.0452  0.1499
 1738TIP3    H126629   2.377   5.352  16.436  0.5878 -0.4403  0.1687
 1738TIP3    H226630   2.410   5.488  16.492  0.8153 -0.8052  0.9345
 1739TIP3   OH226631   2.076   6.041  13.434 -0.1376 -1.2371  0.1710
 1739TIP3    H126632   2.017   6.026  13.361 -1.6755 -1.4733  1.4045
 1739TIP3    H226633   2.106   6.132  13.423 -0.9201 -1.0365 -0.3433
 1740TIP3   OH226634   5.947   3.039   2.220  0.0845 -0.0133  0.0148
 1740TIP3    H126635   5.877   3.005   2.164 -0.0786  1.8337 -0.9901
 1740TIP3    H226636   6.005   3.086   2.161  0.9193  0.4590  1.1633
 1741TIP3   OH226637   4.423   1.969  11.823  0.0439  0.3681 -0.1360
 1741TIP3    H126638   4.376   1.994  11.903 -1.6556  0.6239 -1.1565
 1741TIP3    H226639   4.511   2.005  11.835  0.5998 -1.5451  2.5847
 1742TIP3   OH226640   0.277   0.575   1.798  0.5163  0.4640 -0.0218
 1742TIP3    H126641   0.350   0.637   1.792 -0.3016  1.3853 -0.8492
 1742TIP3    H226642   0.235   0.579   1.712 -0.1005 -0.5669  0.2192
 1743TIP3   OH226643   0.578   2.817   4.111 -0.0069  0.0126  0.1068
 1743TIP3    H126644   0.558   2.907   4.134  1.2600  0.0730  1.0895
 1743TIP3    H226645   0.632   2.824   4.032 -0.8359  0.0401 -0.4662
 1744TIP3   OH226646   5.381   3.373  11.357 -0.1506  0.5140  0.6625
 1744TIP3    H126647   5.309   3.435  11.368  0.4972  1.0737  2.0717
 1744TIP3    H226648   5.339   3.293  11.326 -1.7206  0.1901  3.3185
 1745TIP3   OH226649   3.876   3.134   2.012  0.0245 -0.8037  0.0974
 1745TIP3    H126650   3.899   3.216   2.055  1.3663 -1.3117  0.3861
 1745TIP3    H226651   3.800   3.102   2.061 -0.2511  0.0468  0.2432
 1746TIP3   OH226652   1.649   3.074  11.116 -0.4144  0.1988 -0.0516
 1746TIP3    H126653   1.567   3.091  11.163 -0.3089  0.0778  0.1805
 1746TIP3    H226654   1.671   2.983  11.139  1.4636  1.1843  2.5208
 1747TIP3   OH226655   6.389   2.082   0.979  0.4375  0.0297  0.3313
 1747TIP3    H126656   6.417   2.052   1.066  0.6317 -0.0001  0.2582
 1747TIP3    H226657   6.417   2.173   0.976  2.0265 -0.4588 -0.3829
 1748TIP3   OH226658   0.278   1.604  13.006  0.5589  0.1258  0.3195
 1748TIP3    H126659   0.288   1.531  13.066 -0.4802 -0.4671 -0.2041
 1748TIP3    H226660   0.305   1.681  13.057  0.9572 -0.5180  1.1019
 1749TIP3   OH226661   4.238   4.702  16.818  0.0269 -0.9115 -0.1675
 1749TIP3    H126662   4.195   4.768  16.873  0.3477  0.3531 -1.3806
 1749TIP3    H226663   4.182   4.625  16.824 -1.2479  0.0067 -0.0182
 1750TIP3   OH226664   2.133   6.721   2.639  0.1421 -0.3077 -0.2667
 1750TIP3    H126665   2.037   6.724   2.637  0.0979  0.3304  1.3076
 1750TIP3    H226666   2.154   6.657   2.706  0.7240  2.1572  2.0771
 1751TIP3   OH226667   5.330   4.445  16.972  0.0888 -0.3337 -0.5088
 1751TIP3    H126668   5.337   4.537  16.996 -0.7148 -0.5359  0.5829
 1751TIP3    H226669   5.266   4.443  16.901  0.2861 -0.0284 -0.6974
 1752TIP3   OH226670   2.952   5.919   4.146  0.1229 -0.2122 -0.0320
 1752TIP3    H126671   2.984   5.997   4.192  1.2347 -2.1355  2.7096
 1752TIP3    H226672   2.856   5.924   4.154  0.2669 -0.2214  2.1269
 1753TIP3   OH226673   6.626   3.326   2.469  0.3463 -0.0300 -0.2579
 1753TIP3    H126674   6.711   3.313   2.427  0.5438 -0.9167  0.3989
 1753TIP3    H226675   6.593   3.238   2.487 -1.7511  0.1920 -2.4750
 1754TIP3   OH226676   2.239   3.586   3.806 -0.6644  0.7207  0.7701
 1754TIP3    H126677   2.236   3.622   3.895  0.6309  0.9809  0.7311
 1754TIP3    H226678   2.322   3.619   3.770  0.1450 -1.5334  0.3981
 1755TIP3   OH226679   0.430   2.631   2.966 -0.2321 -0.7225 -0.2838
 1755TIP3    H126680   0.502   2.681   2.927 -1.0626 -0.6657 -1.8674
 1755TIP3    H226681   0.394   2.581   2.892 -2.1093 -0.3664  0.3397
 1756TIP3   OH226682   6.040   2.659  10.965 -0.0910  0.0921  0.0022
 1756TIP3    H126683   6.030   2.672  11.060  2.6259 -1.2988  0.5842
 1756TIP3    H226684   6.016   2.743  10.927 -2.6335  0.2916  1.7297
 1757TIP3   OH226685   2.901   3.267  11.759 -0.4671 -0.3054 -0.4192
 1757TIP3    H126686   2.936   3.354  11.781 -2.3280  0.9647 -2.0972
 1757TIP3    H226687   2.951   3.207  11.814  1.1062  1.7825  0.6047
 1758TIP3   OH226688   6.120   2.454   0.143 -0.1549  0.0729  0.3183
 1758TIP3    H126689   6.154   2.442   0.055 -0.8505 -0.0666  0.0615
 1758TIP3    H226690   6.115   2.366   0.179  1.7231  0.2500  1.1309
 1759TIP3   OH226691   2.355   2.742  10.797  0.3412  0.1385 -0.5170
 1759TIP3    H126692   2.359   2.813  10.733 -0.0571  0.4352 -0.2215
 1759TIP3    H226693   2.440   2.699  10.790  0.6118  0.6806 -0.6609
 1760TIP3   OH226694   5.709   0.921  15.694 -0.0889  0.0694 -1.0067
 1760TIP3    H126695   5.734   0.893  15.606 -2.0396 -0.1516 -1.5238
 1760TIP3    H226696   5.726   0.844  15.749  1.4228  0.3073 -1.0914
 1761TIP3   OH226697   1.571   3.709  14.509  0.7487  0.6464  0.2323
 1761TIP3    H126698   1.625   3.630  14.507  0.9106  0.7575  0.1196
 1761TIP3    H226699   1.497   3.686  14.565  1.5960  0.9314  1.4975
 1762TIP3   OH226700   4.187   3.848   1.719  0.7220 -0.0794  0.5651
 1762TIP3    H126701   4.156   3.914   1.781  1.6710  2.1051 -1.1340
 1762TIP3    H226702   4.240   3.788   1.771 -1.0193 -0.1751  2.3494
 1763TIP3   OH226703   5.263   6.329  16.904 -0.1501  0.3245  0.0459
 1763TIP3    H126704   5.270   6.293  16.815  0.2065 -0.1318  0.2530
 1763TIP3    H226705   5.180   6.376  16.904 -0.3167  0.0472 -0.4309
 1764TIP3   OH226706   0.476   1.379   4.088 -0.0712  0.1534 -0.4902
 1764TIP3    H126707   0.501   1.452   4.145  0.1857  0.2959 -0.7831
 1764TIP3    H226708   0.558   1.351   4.048  0.1694 -1.5526  1.0659
 1765TIP3   OH226709   6.540   4.271   3.190 -0.3658 -0.4925 -0.0127
 1765TIP3    H126710   6.487   4.266   3.270  0.7769 -0.4859  0.7719
 1765TIP3    H226711   6.483   4.314   3.126 -1.2087 -0.2441  0.8798
 1766TIP3   OH226712   5.521   3.439   3.835  0.0155  1.0985  0.1755
 1766TIP3    H126713   5.466   3.512   3.863  0.4057  2.7802 -2.9592
 1766TIP3    H226714   5.591   3.480   3.785  3.1757 -1.1146  2.3783
 1767TIP3   OH226715   1.239   4.979   4.978  0.1259 -0.2270  0.7229
 1767TIP3    H126716   1.267   5.041   4.911  1.4863 -0.7270  0.8094
 1767TIP3    H226717   1.281   5.009   5.058 -1.8540  0.6388  1.5142
 1768TIP3   OH226718   3.125   1.166  16.201  0.2674 -0.0276 -0.0053
 1768TIP3    H126719   3.054   1.106  16.181 -0.2358  0.4225  0.3931
 1768TIP3    H226720   3.143   1.210  16.118 -1.8189  1.8438  0.4366
 1769TIP3   OH226721   2.211   2.322  16.732  0.0328 -0.5818 -0.1954
 1769TIP3    H126722   2.262   2.385  16.784  0.8854  0.3535 -2.0724
 1769TIP3    H226723   2.276   2.260  16.700 -0.6422 -1.7672  0.6489
 1770TIP3   OH226724   0.477   6.184   1.948 -0.2674  0.3763 -0.0786
 1770TIP3    H126725   0.385   6.203   1.969 -0.4451  1.7530 -1.8314
 1770TIP3    H226726   0.483   6.088   1.948 -1.1463  0.2740  2.1446
 1771TIP3   OH226727   3.206   4.423   2.995 -0.2120  0.8459  0.0922
 1771TIP3    H126728   3.130   4.398   3.047  0.0461  2.9334  1.5909
 1771TIP3    H226729   3.248   4.340   2.973  0.4301 -0.2298  4.4532
 1772TIP3   OH226730   0.845   6.576  12.566 -0.1474 -0.3635  0.4814
 1772TIP3    H126731   0.882   6.504  12.617  1.0165 -1.7480 -2.1201
 1772TIP3    H226732   0.876   6.655  12.609  1.0860 -1.4578  1.6886
 1773TIP3   OH226733   3.207   6.362   0.508  0.1709 -0.3279 -0.0091
 1773TIP3    H126734   3.224   6.268   0.506  0.7753 -0.2164 -0.7279
 1773TIP3    H226735   3.291   6.401   0.485 -0.2330  0.3707 -0.3021
 1774TIP3   OH226736   5.095   5.265   5.613  1.0029 -0.4716  0.0214
 1774TIP3    H126737   5.019   5.212   5.592  2.1589 -1.4460 -2.0556
 1774TIP3    H226738   5.062   5.333   5.672 -1.8587  0.2554 -2.2133
 1775TIP3   OH226739   1.951   3.340   5.690 -0.7553  0.0671  0.7011
 1775TIP3    H126740   1.955   3.292   5.607  1.2723  0.1585  0.6832
 1775TIP3    H226741   2.012   3.294   5.748  0.9649  2.2893  0.8184
 1776TIP3   OH226742   6.315   2.350  15.391  0.2390 -0.2327 -0.1383
 1776TIP3    H126743   6.303   2.443  15.371  0.2030 -0.5135 -1.5839
 1776TIP3    H226744   6.388   2.323  15.335 -0.8288 -1.4332 -1.0361
 1777TIP3   OH226745   4.254   6.758  13.458 -0.2066 -0.1259 -0.2721
 1777TIP3    H126746   4.336   6.806  13.464 -0.4638  0.2099  0.8538
 1777TIP3    H226747   4.186   6.825  13.461 -0.5424 -0.2792 -2.7142
 1778TIP3   OH226748   3.435   3.357   5.748 -0.1969  0.2403  0.2692
 1778TIP3    H126749   3.470   3.327   5.832  0.1787  1.1498  0.4536
 1778TIP3    H226750   3.411   3.277   5.701  1.1624 -0.3708  0.5709
 1779TIP3   OH226751   2.451   2.019  12.604 -0.0517 -0.0877  0.1084
 1779TIP3    H126752   2.394   1.942  12.604 -3.2978  2.1171  0.9873
 1779TIP3    H226753   2.460   2.043  12.512 -1.7528  0.2880  0.0152
 1780TIP3   OH226754   0.257   6.482  17.119  0.2082 -0.6531  0.2568
 1780TIP3    H126755   0.279   6.543  17.189 -0.6796  0.5143 -0.4381
 1780TIP3    H226756   0.261   6.535  17.039 -0.4798 -1.5191 -0.3721
 1781TIP3   OH226757   0.019   2.912  14.539 -0.0863  0.1325  0.4423
 1781TIP3    H126758   0.095   2.872  14.496 -0.1480 -0.4071  0.8332
 1781TIP3    H226759   0.051   2.998  14.567  1.0687 -0.8712  2.4947
 1782TIP3   OH226760   0.750   4.611   0.060  0.1725 -0.3128  0.6320
 1782TIP3    H126761   0.819   4.675   0.044 -0.9397  0.8292  0.1707
 1782TIP3    H226762   0.710   4.599  -0.026  0.2787 -1.5454  0.7445
 1783TIP3   OH226763   5.704   1.812  16.914  0.0584  0.2644 -0.3075
 1783TIP3    H126764   5.778   1.870  16.894  0.7759  0.1634  1.7489
 1783TIP3    H226765   5.746   1.731  16.943 -0.8987 -0.2060 -0.2229
 1784TIP3   OH226766   5.433   4.273   5.178  0.3831 -0.7088  0.5305
 1784TIP3    H126767   5.414   4.266   5.085  2.4399  1.1736 -0.1182
 1784TIP3    H226768   5.356   4.318   5.214  0.1840 -0.1538 -0.5323
 1785TIP3   OH226769   1.054   6.541   2.662 -0.5524  0.0558  0.4144
 1785TIP3    H126770   1.086   6.491   2.737 -0.1602 -0.9497 -0.3893
 1785TIP3    H226771   0.988   6.484   2.622 -0.1326  0.1874 -0.4961
 1786TIP3   OH226772   3.589   1.650   0.796 -0.4863  0.4567 -0.4127
 1786TIP3    H126773   3.600   1.616   0.707  1.2967  0.1016 -0.0823
 1786TIP3    H226774   3.576   1.744   0.784 -1.5348  0.2467 -1.0996
 1787TIP3   OH226775   6.297   1.417  12.174 -0.1635 -0.4796 -0.3728
 1787TIP3    H126776   6.311   1.459  12.089 -1.0481 -2.0165 -1.3216
 1787TIP3    H226777   6.323   1.484  12.238  1.7921  0.2558 -1.8377
 1788TIP3   OH226778   4.584   1.561  12.149  0.4800  0.8239  0.1539
 1788TIP3    H126779   4.543   1.639  12.112 -0.8307 -0.1290 -0.5090
 1788TIP3    H226780   4.677   1.583  12.156  0.3126  2.0413 -1.0667
 1789TIP3   OH226781   6.091   4.242   5.666 -0.7297 -0.3077 -0.0428
 1789TIP3    H126782   6.088   4.191   5.747 -0.1129  0.2097  0.3255
 1789TIP3    H226783   6.179   4.229   5.633 -0.2581  1.1612  0.5167
 1790TIP3   OH226784   3.572   3.692   4.599 -0.3925  0.3395  0.1852
 1790TIP3    H126785   3.494   3.747   4.588 -0.9060 -0.4210 -0.1221
 1790TIP3    H226786   3.572   3.635   4.522  1.0854  1.0364 -0.3718
 1791TIP3   OH226787   4.325   5.608   3.179  0.1466  0.2209 -0.6766
 1791TIP3    H126788   4.244   5.594   3.130 -1.2597  0.1157  1.5186
 1791TIP3    H226789   4.358   5.692   3.147 -0.5713  0.0469 -1.9393
 1792TIP3   OH226790   5.148   1.185   3.109  0.3387  0.3154  0.2732
 1792TIP3    H126791   5.215   1.127   3.146 -0.5633 -0.6685  0.4383
 1792TIP3    H226792   5.121   1.141   3.029  0.2375  0.9585 -0.0479
 1793TIP3   OH226793   0.280   0.441  16.745  0.3057 -0.1151 -0.1431
 1793TIP3    H126794   0.376   0.446  16.743  0.2570  0.8679 -1.2735
 1793TIP3    H226795   0.259   0.430  16.838  1.5012  0.1509  0.1829
 1794TIP3   OH226796   0.920   4.672   1.156  0.9233 -0.0303  0.0756
 1794TIP3    H126797   0.993   4.650   1.215 -0.0593  0.5832  1.5784
 1794TIP3    H226798   0.841   4.655   1.207  0.0373  1.0589 -0.8567
 1795TIP3   OH226799   1.668   4.911   1.555  0.5758 -0.0887 -0.3305
 1795TIP3    H126800   1.599   4.963   1.513 -1.3169 -0.3643  2.2378
 1795TIP3    H226801   1.638   4.820   1.548  1.4066 -0.3687 -0.4104
 1796TIP3   OH226802   2.966   2.666  14.290  0.1711  0.7691 -0.2768
 1796TIP3    H126803   2.901   2.680  14.221 -2.8967 -1.7429  1.7712
 1796TIP3    H226804   3.029   2.605  14.252  0.1127  1.5156 -1.6393
 1797TIP3   OH226805   6.035   0.257  15.272  0.5426 -0.4738 -0.2136
 1797TIP3    H126806   5.961   0.317  15.276  1.5786  1.0036 -1.7361
 1797TIP3    H226807   6.062   0.246  15.363 -0.9199 -0.2578  0.2691
 1798TIP3   OH226808   5.352   2.115  15.878  0.4086 -0.3584 -0.0785
 1798TIP3    H126809   5.395   2.190  15.918  1.0682 -1.6954  1.8376
 1798TIP3    H226810   5.412   2.087  15.808  1.1526 -0.3233  0.5393
 1799TIP3   OH226811   6.102   6.077  16.436  0.0351 -0.2914  0.5407
 1799TIP3    H126812   6.139   6.021  16.504  0.0520 -0.2441  0.5706
 1799TIP3    H226813   6.062   6.150  16.483 -2.3701 -1.6068  0.6864
 1800TIP3   OH226814   2.435   3.686  14.033 -0.3824  0.4431 -0.0528
 1800TIP3    H126815   2.353   3.665  14.076  0.9101 -0.1173  2.2999
 1800TIP3    H226816   2.434   3.781  14.024 -0.3170  0.6927  2.1572
 1801TIP3   OH226817   5.403   3.827   0.943  0.2933  0.2725 -0.4248
 1801TIP3    H126818   5.384   3.788   1.028  0.0983  0.1514 -0.5215
 1801TIP3    H226819   5.422   3.752   0.887 -3.5520 -0.1137 -1.5521
 1802TIP3   OH226820   0.598   3.039  16.453 -0.1077 -0.4548  0.5453
 1802TIP3    H126821   0.672   3.056  16.512  0.6780  0.4053 -0.6487
 1802TIP3    H226822   0.527   3.013  16.512  0.5414  0.7316  1.9238
 1803TIP3   OH226823   4.320   4.818   1.674  0.3579  0.6314 -0.0417
 1803TIP3    H126824   4.238   4.777   1.645  0.5127 -0.1582  0.5870
 1803TIP3    H226825   4.333   4.785   1.763  1.1281  1.1096  0.0364
 1804TIP3   OH226826   0.789   1.829   0.328  0.3821  0.2024  0.8829
 1804TIP3    H126827   0.737   1.835   0.248  0.8535  3.0352  0.6972
 1804TIP3    H226828   0.769   1.742   0.363  0.5703 -1.3893 -2.5492
 1805TIP3   OH226829   4.554   2.998  15.159  0.2111 -0.1348  0.4803
 1805TIP3    H126830   4.498   3.036  15.227  1.3449  0.1996  1.2577
 1805TIP3    H226831   4.621   2.950  15.208  0.2627 -1.0510 -0.4439
 1806TIP3   OH226832   4.932   0.776  12.171 -0.2053  0.1517  0.6323
 1806TIP3    H126833   4.867   0.739  12.112  1.6090  1.1823 -2.2116
 1806TIP3    H226834   5.015   0.765  12.125  1.7131 -0.9154  3.9867
 1807TIP3   OH226835   2.729   6.608   4.496  0.1609  0.4018 -0.9708
 1807TIP3    H126836   2.811   6.560   4.510 -1.3793 -1.7584  1.7848
 1807TIP3    H226837   2.668   6.543   4.461 -1.4901  0.7036  1.1259
 1808TIP3   OH226838   1.016   1.313   3.178  0.2976  0.3306  0.2488
 1808TIP3    H126839   0.938   1.329   3.231  0.6837 -0.6344  1.1673
 1808TIP3    H226840   1.088   1.314   3.241  1.0084  0.9797 -0.5510
 1809TIP3   OH226841   4.368   5.238   5.180 -0.0174 -0.3214  0.1992
 1809TIP3    H126842   4.328   5.289   5.109  0.1602 -1.0283 -0.4186
 1809TIP3    H226843   4.462   5.254   5.170 -0.0852  1.0611  1.4355
 1810TIP3   OH226844   1.844   4.091   1.826  0.3022  0.5661 -0.4077
 1810TIP3    H126845   1.815   4.026   1.762 -0.8907 -1.2719  1.8258
 1810TIP3    H226846   1.771   4.153   1.831  0.4456  0.7787 -0.8798
 1811TIP3   OH226847   5.194   2.470   3.195  0.3671 -0.3081 -0.5007
 1811TIP3    H126848   5.240   2.390   3.220  1.0799 -0.1121 -1.1396
 1811TIP3    H226849   5.184   2.519   3.277  1.5416 -0.2452 -0.3696
 1812TIP3   OH226850   5.905   6.734   2.802 -0.2844  0.1655 -0.3005
 1812TIP3    H126851   5.959   6.781   2.739 -2.9580  1.9498 -1.4212
 1812TIP3    H226852   5.855   6.672   2.750 -1.2042  0.3877  0.2967
 1813TIP3   OH226853   3.281   4.568   1.450 -0.4791 -0.6433 -0.4050
 1813TIP3    H126854   3.326   4.488   1.479 -0.3758 -0.2448  0.5921
 1813TIP3    H226855   3.189   4.554   1.473 -0.6732 -0.9662 -1.3457
 1814TIP3   OH226856   4.925   6.447  11.308  0.0586 -0.3013 -1.3325
 1814TIP3    H126857   4.919   6.413  11.218 -1.1073 -1.3910 -0.8779
 1814TIP3    H226858   4.907   6.370  11.363 -1.6586  0.8254 -0.2265
 1815TIP3   OH226859   5.142   2.708   5.782  0.0029 -0.0306 -0.4201
 1815TIP3    H126860   5.119   2.662   5.863 -2.0697 -0.4171 -1.1749
 1815TIP3    H226861   5.162   2.638   5.720 -0.0382  0.2016 -0.6982
 1816TIP3   OH226862   2.592   3.051  10.737 -0.5232 -0.3684  0.4848
 1816TIP3    H126863   2.670   3.064  10.789 -0.5714 -2.3623  1.1440
 1816TIP3    H226864   2.617   3.079  10.648 -0.0358  1.7898  1.2349
 1817TIP3   OH226865   0.941   0.572  14.516  0.2032  0.5164 -0.8657
 1817TIP3    H126866   0.860   0.535  14.481 -0.0650  1.6410 -1.4756
 1817TIP3    H226867   0.999   0.578  14.440  1.2081 -1.1483 -0.2603
 1818TIP3   OH226868   4.145   2.962  15.614 -0.2888 -0.2077  0.5113
 1818TIP3    H126869   4.065   2.917  15.638  0.6904 -0.5519  3.4825
 1818TIP3    H226870   4.123   3.055  15.620 -1.0203 -0.2388 -1.0132
 1819TIP3   OH226871   0.754   2.670  14.123  0.2827 -0.2406  0.5151
 1819TIP3    H126872   0.691   2.698  14.190 -0.7746  1.5111 -1.1205
 1819TIP3    H226873   0.727   2.716  14.044  1.8161 -1.8289 -1.0182
 1820TIP3   OH226874   3.103   2.573   0.071  0.7764 -0.1680 -0.0620
 1820TIP3    H126875   3.135   2.513   0.138  1.4011 -1.0564 -1.1245
 1820TIP3    H226876   3.014   2.594   0.099  0.6172 -1.4116  0.4589
 1821TIP3   OH226877   1.000   2.769   2.571 -0.0504  0.1570  0.0631
 1821TIP3    H126878   1.070   2.788   2.508 -1.3925  2.7241 -0.8226
 1821TIP3    H226879   1.028   2.815   2.651  0.0511 -0.2210  0.2450
 1822TIP3   OH226880   1.308   4.446   2.230  0.2653  0.1312 -0.2429
 1822TIP3    H126881   1.403   4.441   2.220  0.3553  0.7850  0.2092
 1822TIP3    H226882   1.295   4.505   2.304 -0.4951  0.0321 -0.2922
 1823TIP3   OH226883   2.701   3.660  16.597  0.0207  0.7789  0.1311
 1823TIP3    H126884   2.721   3.753  16.588  1.2786  0.5020 -0.0868
 1823TIP3    H226885   2.776   3.623  16.643 -1.1952  0.1344  1.6778
 1824TIP3   OH226886   3.769   0.594  11.754 -0.0701  0.5567 -0.5119
 1824TIP3    H126887   3.734   0.652  11.821 -1.1481 -0.3652 -0.2396
 1824TIP3    H226888   3.700   0.587  11.689 -0.6952 -1.7179  0.2890
 1825TIP3   OH226889   1.358   3.428  14.452 -0.0445  0.2907 -0.3146
 1825TIP3    H126890   1.445   3.387  14.457 -0.6119 -0.9473 -0.1409
 1825TIP3    H226891   1.340   3.433  14.358 -0.3314 -0.6847 -0.3202
 1826TIP3   OH226892   2.536   4.733  16.449  0.6304 -0.1725  0.1382
 1826TIP3    H126893   2.457   4.741  16.502  0.6789  0.5255  0.1174
 1826TIP3    H226894   2.549   4.639  16.439  1.1691 -0.3715  2.2159
 1827TIP3   OH226895   5.839   0.394   2.295  0.2228  0.5006 -0.7619
 1827TIP3    H126896   5.842   0.374   2.388  1.3940  2.3706 -0.3201
 1827TIP3    H226897   5.749   0.424   2.279 -0.5109 -1.5531 -0.6844
 1828TIP3   OH226898   6.405   1.066   4.398  0.0166 -0.3339  0.5711
 1828TIP3    H126899   6.346   0.990   4.397 -0.0640 -0.4534  3.7936
 1828TIP3    H226900   6.346   1.141   4.402  0.1122 -0.0300 -1.9304
 1829TIP3   OH226901   2.755   4.131  14.178  0.1399 -0.1501 -0.1935
 1829TIP3    H126902   2.667   4.155  14.149 -1.2203 -3.6787  0.4650
 1829TIP3    H226903   2.747   4.120  14.273  1.5942  0.4765  0.0324
 1830TIP3   OH226904   5.564   6.141  12.346 -0.0876  0.1464 -0.0575
 1830TIP3    H126905   5.580   6.135  12.251  0.1527 -0.0947 -0.0034
 1830TIP3    H226906   5.598   6.227  12.370  1.7853 -0.6267  0.1746
 1831TIP3   OH226907   5.856   6.601  15.448 -0.4311 -0.4472  0.1863
 1831TIP3    H126908   5.937   6.624  15.493 -1.6905  0.6456  2.0383
 1831TIP3    H226909   5.831   6.680  15.401 -0.7960 -0.5265  0.2407
 1832TIP3   OH226910   2.099   1.309   4.795 -0.0719 -0.2941  0.2701
 1832TIP3    H126911   2.193   1.315   4.774 -0.3778  0.0870 -1.0661
 1832TIP3    H226912   2.055   1.348   4.720 -1.3774 -1.7659  0.2336
 1833TIP3   OH226913   2.808   5.735  13.612  0.0886 -0.1781 -0.4278
 1833TIP3    H126914   2.750   5.679  13.664  0.2753  1.3518  1.5131
 1833TIP3    H226915   2.766   5.739  13.526 -1.8512 -0.4029  0.4626
 1834TIP3   OH226916   1.570   2.478  15.127  0.2344 -0.0680 -0.4637
 1834TIP3    H126917   1.525   2.426  15.194  3.4052  0.4229  2.3422
 1834TIP3    H226918   1.609   2.413  15.068  0.2564 -0.7138  0.2482
 1835TIP3   OH226919   1.988   1.091   2.233  0.1479  0.4635  0.3773
 1835TIP3    H126920   1.995   1.151   2.307  1.7293 -1.0684  1.5455
 1835TIP3    H226921   2.073   1.048   2.227 -0.4891 -0.7263 -1.2387
 1836TIP3   OH226922   4.219   3.230  15.144 -0.3418 -0.4506  0.0515
 1836TIP3    H126923   4.257   3.177  15.215  1.0963 -0.3978 -0.6486
 1836TIP3    H226924   4.255   3.317  15.157 -0.7675 -0.2293 -0.2391
 1837TIP3   OH226925   4.899   5.795  12.974 -0.3541  0.6029  0.3623
 1837TIP3    H126926   4.911   5.890  12.973  1.0596  0.4566  1.2866
 1837TIP3    H226927   4.856   5.778  13.058 -1.2658  0.4677 -0.1132
 1838TIP3   OH226928   6.230   6.229   5.011  0.4081  0.3032 -0.0924
 1838TIP3    H126929   6.147   6.246   4.968 -0.4392  2.5511  2.1992
 1838TIP3    H226930   6.249   6.137   4.991 -1.8153  0.1722 -1.9349
 1839TIP3   OH226931   6.674   6.142  13.156 -0.5618 -0.5261  0.1213
 1839TIP3    H126932   6.650   6.173  13.069 -0.5139  0.6534  0.5082
 1839TIP3    H226933   6.760   6.102  13.145 -0.2283  0.2829 -0.2443
 1840TIP3   OH226934   2.206   0.255   4.385 -0.5889  1.1254  0.0231
 1840TIP3    H126935   2.245   0.264   4.472  1.7685  0.5975 -0.9040
 1840TIP3    H226936   2.179   0.163   4.381  0.8976  0.6771 -0.3696
 1841TIP3   OH226937   2.803   2.745   0.811 -0.2714 -0.4366  0.1999
 1841TIP3    H126938   2.769   2.668   0.856 -0.7350  0.5627  1.6328
 1841TIP3    H226939   2.819   2.715   0.721 -2.7620 -1.5664  0.0395
 1842TIP3   OH226940   0.207   3.179   4.312 -0.0469  0.1109  0.1630
 1842TIP3    H126941   0.216   3.230   4.231 -0.2745  0.7460  0.5271
 1842TIP3    H226942   0.272   3.110   4.305 -0.4647 -0.2010 -0.8331
 1843TIP3   OH226943   3.674   0.183   3.697 -0.4345  0.1437 -0.2545
 1843TIP3    H126944   3.680   0.133   3.616 -0.3022 -0.2068 -0.0334
 1843TIP3    H226945   3.690   0.274   3.671 -2.7911  0.4116 -0.9991
 1844TIP3   OH226946   1.107   4.850  15.276  0.3952 -0.2847 -0.4957
 1844TIP3    H126947   1.119   4.944  15.293  0.9747 -0.2340 -1.1462
 1844TIP3    H226948   1.099   4.844  15.181  0.6106 -0.9215 -0.4754
 1845TIP3   OH226949   1.053   1.314   4.795 -0.5075  0.2832 -0.2730
 1845TIP3    H126950   1.143   1.306   4.762 -1.1700  0.7012 -2.3239
 1845TIP3    H226951   1.022   1.224   4.801  0.2036  0.0907  1.0499
 1846TIP3   OH226952   4.266   6.653   4.696 -0.2891 -0.8070 -0.0338
 1846TIP3    H126953   4.184   6.698   4.718 -1.0164 -1.1903 -1.7931
 1846TIP3    H226954   4.310   6.712   4.636  0.0796 -1.1999 -0.1509
 1847TIP3   OH226955   4.792   4.939  11.530 -0.3452  0.1989  0.1653
 1847TIP3    H126956   4.865   4.905  11.480 -0.8041 -1.2039  0.4073
 1847TIP3    H226957   4.832   4.984  11.604  0.2917  0.8529 -0.5692
 1848TIP3   OH226958   1.031   2.151  15.681  0.4129  0.6325  0.1200
 1848TIP3    H126959   1.121   2.128  15.703  0.8566  0.1204 -1.9868
 1848TIP3    H226960   0.982   2.069  15.688  0.2209  0.7927  0.7054
 1849TIP3   OH226961   6.478   2.406   3.305 -0.3993  0.3817  0.1039
 1849TIP3    H126962   6.386   2.429   3.299 -0.6788 -0.9150 -1.2750
 1849TIP3    H226963   6.510   2.414   3.215  0.2183 -1.4513  0.1097
 1850TIP3   OH226964   6.322   3.235   5.801 -0.1253  0.1631  0.2165
 1850TIP3    H126965   6.244   3.251   5.853 -0.9206  0.9293 -1.1529
 1850TIP3    H226966   6.289   3.211   5.715  1.1548 -1.4294  0.1249
 1851TIP3   OH226967   1.131   4.543  14.145 -0.0114 -0.3741  0.6999
 1851TIP3    H126968   1.192   4.600  14.192 -0.3583 -0.2425  0.9987
 1851TIP3    H226969   1.142   4.457  14.186  0.7914 -0.6179 -0.0106
 1852TIP3   OH226970   5.406   5.022  12.367 -0.7658  0.1346 -0.5323
 1852TIP3    H126971   5.443   4.934  12.371 -1.9071 -0.3360  0.2732
 1852TIP3    H226972   5.414   5.047  12.275  0.0672 -0.5850 -0.6715
 1853TIP3   OH226973   4.106   0.230  13.967 -0.0671  0.0795 -0.1895
 1853TIP3    H126974   4.155   0.179  13.902  0.8172 -1.3602  1.5071
 1853TIP3    H226975   4.165   0.236  14.042 -1.4241  0.7964  0.8679
 1854TIP3   OH226976   3.454   2.797   4.304 -0.2496  0.0149  0.1035
 1854TIP3    H126977   3.398   2.821   4.229  0.9596 -0.0229 -0.8431
 1854TIP3    H226978   3.433   2.705   4.320 -2.3329  0.6387  1.4790
 1855TIP3   OH226979   6.440   0.590   3.335 -0.5669  0.4024 -0.6246
 1855TIP3    H126980   6.421   0.679   3.307  0.2423  0.7934  0.0096
 1855TIP3    H226981   6.423   0.535   3.258 -0.4672  1.1737 -1.1998
 1856TIP3   OH226982   0.636   1.731   2.091 -0.1667  0.4599 -0.0827
 1856TIP3    H126983   0.696   1.657   2.101  0.6903  1.2085  0.4710
 1856TIP3    H226984   0.562   1.709   2.148 -1.3860 -1.3733 -2.2259
 1857TIP3   OH226985   4.271   1.470   4.312  0.3241  0.0046 -0.7030
 1857TIP3    H126986   4.302   1.496   4.399 -0.6695  0.8866 -0.5918
 1857TIP3    H226987   4.305   1.538   4.254 -0.6891  0.5335 -0.6964
 1858TIP3   OH226988   2.782   5.134   2.398 -0.4631 -0.0345 -0.3205
 1858TIP3    H126989   2.745   5.109   2.313 -1.2666 -0.1846  0.0604
 1858TIP3    H226990   2.856   5.075   2.411  2.7361  2.9467 -3.0268
 1859TIP3   OH226991   4.743   2.223  15.204  0.4202  0.3614 -0.2862
 1859TIP3    H126992   4.691   2.258  15.277 -2.0031  0.4002 -1.9251
 1859TIP3    H226993   4.785   2.300  15.166  0.3481  0.5759  0.0580
 1860TIP3   OH226994   5.317   2.676  15.922 -0.0355  0.0980  0.1534
 1860TIP3    H126995   5.260   2.647  15.851  0.1289 -3.1144  1.1623
 1860TIP3    H226996   5.405   2.651  15.893  0.1159 -0.5650  1.1596
 1861TIP3   OH226997   6.400   3.370  11.156  0.3714 -0.6028 -0.2233
 1861TIP3    H126998   6.320   3.383  11.207  0.0928 -1.1067 -0.5275
 1861TIP3    H226999   6.436   3.459  11.146 -1.3159 -0.0451 -1.9763
 1862TIP3   OH227000   6.772   0.199  14.527 -0.5360  0.1231  0.3674
 1862TIP3    H127001   6.721   0.120  14.542 -0.2433 -0.0140  0.6679
 1862TIP3    H227002   6.707   0.269  14.523 -0.7684 -0.0843  0.4716
 1863TIP3   OH227003   1.564   3.714  11.198  0.1220  0.3454 -0.5214
 1863TIP3    H127004   1.535   3.782  11.260 -1.0447 -2.2876  2.0712
 1863TIP3    H227005   1.652   3.690  11.228  0.3234  0.3357 -1.1055
 1864TIP3   OH227006   6.237   6.244  16.255 -0.1686  0.1825 -0.3884
 1864TIP3    H127007   6.317   6.250  16.306  0.1123 -1.5905 -0.5508
 1864TIP3    H227008   6.191   6.168  16.291 -2.1798  1.5771  0.2170
 1865TIP3   OH227009   4.369   5.784  14.658  0.3614 -0.0448 -0.3286
 1865TIP3    H127010   4.349   5.870  14.621  0.9019  0.0842 -0.3325
 1865TIP3    H227011   4.464   5.783  14.667  0.2119  0.1969  1.7216
 1866TIP3   OH227012   3.954   1.416  13.450 -0.1032  0.1452  0.4904
 1866TIP3    H127013   3.967   1.489  13.510  0.5812  0.2379  0.2470
 1866TIP3    H227014   4.024   1.426  13.385 -0.4177 -0.3359  0.0653
 1867TIP3   OH227015   5.337   5.495   0.785 -0.3628 -0.0195 -0.4859
 1867TIP3    H127016   5.419   5.543   0.774  0.3235 -0.8242  0.9241
 1867TIP3    H227017   5.294   5.501   0.699  1.0407  0.6240 -1.1694
 1868TIP3   OH227018   4.162   0.718  11.718  0.6124  0.0085  0.0870
 1868TIP3    H127019   4.251   0.727  11.685  0.1994  0.8097 -0.8286
 1868TIP3    H227020   4.153   0.788  11.783  1.1265 -1.0127  1.3150
 1869TIP3   OH227021   4.714   6.478   1.706 -0.1428 -0.0023 -0.0863
 1869TIP3    H127022   4.725   6.484   1.801  2.1900 -1.3233 -0.2015
 1869TIP3    H227023   4.661   6.399   1.693 -0.5117  0.2103  0.1036
 1870TIP3   OH227024   0.510   0.917   0.889  0.3223 -0.3020 -0.0030
 1870TIP3    H127025   0.493   0.825   0.905 -1.5483  0.0952  0.5079
 1870TIP3    H227026   0.491   0.960   0.973 -0.3312  0.7129 -0.6422
 1871TIP3   OH227027   1.523   1.973  12.414 -0.6755 -0.6463  0.6461
 1871TIP3    H127028   1.501   1.900  12.472  0.1154 -0.2855  1.4316
 1871TIP3    H227029   1.587   2.023  12.464 -1.9385  1.1538  0.5461
 1872TIP3   OH227030   3.989   5.103  13.691  0.2477  0.1547 -0.3139
 1872TIP3    H127031   4.083   5.116  13.678  0.3416  2.0593  1.6765
 1872TIP3    H227032   3.982   5.011  13.719  1.8937  0.6212  1.9592
 1873TIP3   OH227033   1.266   3.753  12.931  0.2114 -0.3983  0.2077
 1873TIP3    H127034   1.345   3.699  12.934  0.4126 -0.0581  1.8119
 1873TIP3    H227035   1.252   3.781  13.021  0.7169  3.0666 -0.6245
 1874TIP3   OH227036   0.536   4.535   1.646 -0.1482 -0.0997  0.1427
 1874TIP3    H127037   0.624   4.502   1.625  0.6977  1.4781  1.0937
 1874TIP3    H227038   0.496   4.550   1.560 -0.2446 -2.5978 -0.3423
 1875TIP3   OH227039   2.944   3.946  12.792 -0.6602  0.0402 -0.4168
 1875TIP3    H127040   2.985   4.008  12.731  1.2340 -2.1916 -1.5365
 1875TIP3    H227041   2.967   3.979  12.879 -0.0523  1.1056 -0.9676
 1876TIP3   OH227042   5.754   4.503   4.584 -0.1017  0.4225  0.1650
 1876TIP3    H127043   5.792   4.497   4.672 -0.1350 -0.2111  0.1421
 1876TIP3    H227044   5.820   4.550   4.533  0.2059  0.2266  0.3763
 1877TIP3   OH227045   3.137   6.104  14.286 -0.1781  0.1273  0.4960
 1877TIP3    H127046   3.109   6.112  14.377  1.3989 -0.4066  1.0590
 1877TIP3    H227047   3.231   6.090  14.291 -0.1859 -0.7819 -1.1864
 1878TIP3   OH227048   1.762   2.548  13.724 -0.1798 -0.2434  0.4063
 1878TIP3    H127049   1.752   2.517  13.813  0.4511 -0.5996  0.3622
 1878TIP3    H227050   1.682   2.596  13.705  0.0708  0.6332  1.4826
 1879TIP3   OH227051   0.757   1.896   3.130 -0.2813  0.3667  0.0918
 1879TIP3    H127052   0.786   1.971   3.183  0.5440  1.1743 -1.4376
 1879TIP3    H227053   0.780   1.920   3.041 -1.4086 -1.0728 -0.6180
 1880TIP3   OH227054   3.913   2.034   0.413  0.1718  0.0115  0.1058
 1880TIP3    H127055   3.917   1.962   0.476 -0.6670 -0.0719  0.0811
 1880TIP3    H227056   4.002   2.044   0.381  0.6901  0.2827  1.5597
 1881TIP3   OH227057   3.252   0.505   1.364 -0.1605 -0.3530  0.2725
 1881TIP3    H127058   3.214   0.539   1.444 -0.1700  1.1473 -0.3285
 1881TIP3    H227059   3.336   0.467   1.391 -1.1338 -1.8844  1.2915
 1882TIP3   OH227060   3.298   4.759  14.598 -0.0793  0.3606 -0.0863
 1882TIP3    H127061   3.313   4.687  14.538 -1.0643  0.2124 -0.1690
 1882TIP3    H227062   3.278   4.834  14.542 -2.5822 -0.1413  0.0426
 1883TIP3   OH227063   3.634   4.472   3.521 -0.2095 -0.7443 -0.7795
 1883TIP3    H127064   3.665   4.417   3.593  0.4688 -0.4948 -0.8732
 1883TIP3    H227065   3.539   4.464   3.524 -0.1747 -0.9609 -0.0272
 1884TIP3   OH227066   1.555   1.903  17.264 -0.5217 -0.1831  0.1504
 1884TIP3    H127067   1.524   1.834  17.322 -2.0875  0.8250  0.5674
 1884TIP3    H227068   1.556   1.863  17.177 -0.2987 -1.0603  0.5543
 1885TIP3   OH227069   5.743   2.738   0.604 -0.3793  0.1027  0.5220
 1885TIP3    H127070   5.659   2.727   0.648 -1.7998  1.1804 -1.7314
 1885TIP3    H227071   5.748   2.832   0.586 -0.3627 -0.3868 -2.4085
 1886TIP3   OH227072   3.775   2.573   5.469 -0.0366 -0.4012  0.1152
 1886TIP3    H127073   3.761   2.663   5.498  0.1837 -0.0151 -0.9136
 1886TIP3    H227074   3.705   2.523   5.510 -0.0552  0.2044  0.8410
 1887TIP3   OH227075   3.221   4.018  14.435 -0.2531  0.4242  0.3180
 1887TIP3    H127076   3.169   3.941  14.454  1.1627 -0.6791 -0.1119
 1887TIP3    H227077   3.191   4.047  14.349  1.2012 -1.4433 -0.8855
 1888TIP3   OH227078   4.382   1.799  13.457 -0.4691  0.5130 -0.3240
 1888TIP3    H127079   4.439   1.725  13.437 -0.2510  0.5116  0.2819
 1888TIP3    H227080   4.348   1.826  13.372  0.8978  0.8792 -0.7910
 1889TIP3   OH227081   3.814   6.268  11.883  0.0119  0.3733 -0.3443
 1889TIP3    H127082   3.900   6.288  11.846 -0.0060 -1.5538 -1.5663
 1889TIP3    H227083   3.831   6.239  11.972  0.6819 -0.2953 -0.6821
 1890TIP3   OH227084   5.640   5.833   5.663 -1.0812  0.4748  0.8157
 1890TIP3    H127085   5.576   5.807   5.729 -1.1171 -2.4081 -0.1772
 1890TIP3    H227086   5.591   5.832   5.580 -0.7064  2.5936  0.5229
 1891TIP3   OH227087   5.718   2.089   2.596  0.0865  0.1704 -0.4383
 1891TIP3    H127088   5.707   2.003   2.556  2.4221 -0.3421 -0.1489
 1891TIP3    H227089   5.744   2.146   2.524  0.6500  0.1026 -0.2993
 1892TIP3   OH227090   0.908   0.129  12.267  0.1099 -0.6786 -0.1447
 1892TIP3    H127091   0.895   0.138  12.362  0.1215 -2.2581  0.0313
 1892TIP3    H227092   0.860   0.203  12.230 -0.1747 -0.2197  1.0708
 1893TIP3   OH227093   4.631   5.493   2.868 -1.1079  0.1681 -0.2077
 1893TIP3    H127094   4.630   5.588   2.885  0.4331  0.0255  0.9185
 1893TIP3    H227095   4.577   5.482   2.790 -2.4340  1.8142  0.4055
 1894TIP3   OH227096   2.888   4.201  13.042 -0.1093 -0.8943 -0.1535
 1894TIP3    H127097   2.967   4.160  13.007  0.5572  0.0175  0.2305
 1894TIP3    H227098   2.920   4.277  13.091 -1.2665 -0.2167 -0.4078
 1895TIP3   OH227099   4.502   4.489  15.530  0.5466  0.3556 -0.5129
 1895TIP3    H127100   4.428   4.444  15.571 -1.4045  3.1393 -0.6375
 1895TIP3    H227101   4.535   4.427  15.466 -1.0392 -1.3783  0.2308
 1896TIP3   OH227102   4.849   6.355   3.762  0.4338  0.4975 -0.6347
 1896TIP3    H127103   4.878   6.424   3.822  0.0797  1.2255 -1.2944
 1896TIP3    H227104   4.919   6.348   3.698  0.5277  0.1537 -0.4940
 1897TIP3   OH227105   0.343   4.391   1.813 -0.1508 -0.4075 -0.2000
 1897TIP3    H127106   0.401   4.320   1.842  0.3029  0.6289  1.5781
 1897TIP3    H227107   0.402   4.453   1.771 -0.2356 -0.1462  0.0674
 1898TIP3   OH227108   2.076   4.975   2.877  0.0265  0.5186 -0.7511
 1898TIP3    H127109   2.086   4.883   2.901  2.7781  0.2565 -2.4302
 1898TIP3    H227110   2.009   4.975   2.809  0.9171 -0.4880 -1.6716
 1899TIP3   OH227111   4.450   2.985   0.138 -0.3025 -0.3392 -0.0248
 1899TIP3    H127112   4.503   2.911   0.107  0.5332 -0.0917  0.7757
 1899TIP3    H227113   4.421   3.029   0.058 -0.2642 -1.1517 -0.4965
 1900TIP3   OH227114   5.349   5.129  13.649 -0.7652  1.1005  0.5900
 1900TIP3    H127115   5.381   5.046  13.613 -0.2158  2.3204 -2.0093
 1900TIP3    H227116   5.260   5.136  13.615  0.3732  3.1290 -2.3677
 1901TIP3   OH227117   1.019   1.865   5.268 -0.0486  0.5657 -0.4162
 1901TIP3    H127118   1.101   1.835   5.308 -0.5269  0.0952  0.2511
 1901TIP3    H227119   1.022   1.831   5.179 -0.1377 -0.6921  0.0334
 1902TIP3   OH227120   3.890   3.252  14.461 -0.2541 -0.5732  0.3976
 1902TIP3    H127121   3.884   3.168  14.507  1.1486 -0.8297  0.1680
 1902TIP3    H227122   3.953   3.236  14.391  0.6915  0.8967  0.8711
 1903TIP3   OH227123   4.300   6.422   4.512 -0.0806  0.0757 -0.5410
 1903TIP3    H127124   4.320   6.448   4.423  1.8765 -2.3701 -0.9510
 1903TIP3    H227125   4.275   6.503   4.557  0.7274  1.6630 -2.8091
 1904TIP3   OH227126   0.884   1.517   4.358  0.6594 -0.2683 -0.2683
 1904TIP3    H127127   0.919   1.525   4.446  1.8540  0.6849 -0.8001
 1904TIP3    H227128   0.841   1.432   4.357  0.1953 -0.0813  1.3693
 1905TIP3   OH227129   5.851   6.282  11.189  0.8795  0.0049 -0.0891
 1905TIP3    H127130   5.762   6.315  11.180  1.3773  1.4701 -0.0363
 1905TIP3    H227131   5.904   6.340  11.133  1.7798 -0.9213 -0.2324
 1906TIP3   OH227132   2.187   2.393   2.161  0.7281  0.6631 -0.2566
 1906TIP3    H127133   2.168   2.392   2.067 -0.1767 -2.5298 -0.1677
 1906TIP3    H227134   2.256   2.328   2.172 -1.1384 -1.1817  1.5084
 1907TIP3   OH227135   5.384   3.826   3.237 -0.3240 -0.3217  0.2510
 1907TIP3    H127136   5.407   3.881   3.162 -0.1118 -0.0430  0.5187
 1907TIP3    H227137   5.445   3.852   3.306 -0.4507 -0.6484  0.4919
 1908TIP3   OH227138   5.385   4.126  13.847 -0.0724 -0.0845  0.3326
 1908TIP3    H127139   5.364   4.103  13.757  1.7768 -0.3573 -0.0703
 1908TIP3    H227140   5.438   4.205  13.841 -0.5203  0.3113  1.2486
 1909TIP3   OH227141   3.675   1.858   0.544 -0.1572 -0.4415 -0.2579
 1909TIP3    H127142   3.689   1.770   0.510 -0.3951 -0.4423 -0.3564
 1909TIP3    H227143   3.753   1.876   0.597  2.4131  1.1561 -4.1060
 1910TIP3   OH227144   6.043   0.982   4.097  0.2830 -0.2778 -0.3127
 1910TIP3    H127145   5.997   0.904   4.065 -0.6817  0.0216  0.3153
 1910TIP3    H227146   5.998   1.005   4.178  1.6730 -0.0813  0.4167
 1911TIP3   OH227147   1.451   2.080  12.973  0.0413 -0.1481  0.3900
 1911TIP3    H127148   1.421   2.034  13.052 -1.0671  2.0152  1.3249
 1911TIP3    H227149   1.466   2.170  13.003  1.1389  0.3494 -1.5572
 1912TIP3   OH227150   0.753   4.614   5.505  0.0711 -0.0247 -1.0988
 1912TIP3    H127151   0.702   4.687   5.540 -0.5162 -1.4592  1.2359
 1912TIP3    H227152   0.734   4.540   5.563  3.0664 -1.2435 -1.4759
 1913TIP3   OH227153   5.575   5.652   0.727  0.1357 -0.3859 -0.4719
 1913TIP3    H127154   5.629   5.611   0.794  0.8212 -0.8056 -1.2630
 1913TIP3    H227155   5.625   5.642   0.646 -1.0580 -0.6671 -1.2088
 1914TIP3   OH227156   1.994   2.818   4.398  0.2749  0.0213  0.2187
 1914TIP3    H127157   1.907   2.815   4.437  0.2339 -0.0329  0.1241
 1914TIP3    H227158   2.016   2.911   4.395  0.0670  0.0644 -0.0910
 1915TIP3   OH227159   6.236   5.932  16.622 -0.4208  0.0979  0.0367
 1915TIP3    H127160   6.326   5.936  16.592  0.2103  1.0408  1.9076
 1915TIP3    H227161   6.230   5.849  16.670 -0.9118 -0.5289 -1.0630
 1916TIP3   OH227162   3.198   4.975  12.150 -0.4160  0.0504  0.6461
 1916TIP3    H127163   3.131   5.000  12.213 -0.2707  1.9791  0.1207
 1916TIP3    H227164   3.273   5.029  12.173 -0.3987  0.8874 -1.2051
 1917TIP3   OH227165   5.036   6.758  15.992 -0.3966 -0.2413 -0.1132
 1917TIP3    H127166   5.079   6.774  16.076 -2.2545 -0.8853  1.0111
 1917TIP3    H227167   5.093   6.801  15.928  1.5861 -0.5635  1.3272
 1918TIP3   OH227168   5.240   4.238  14.981  0.4560 -0.6442 -0.1639
 1918TIP3    H127169   5.162   4.286  14.954 -0.0181 -0.7940  0.9154
 1918TIP3    H227170   5.303   4.255  14.910  0.4817  1.9501  0.3621
 1919TIP3   OH227171   2.190   0.309   2.458 -0.4054 -0.3697  0.8318
 1919TIP3    H127172   2.158   0.397   2.474 -0.4335 -0.7130  2.8940
 1919TIP3    H227173   2.272   0.303   2.506 -1.0271 -1.8252  1.7920
 1920TIP3   OH227174   1.508   5.464   0.719  0.6140 -0.7618 -1.0000
 1920TIP3    H127175   1.561   5.541   0.738  0.9037 -0.6271 -2.2693
 1920TIP3    H227176   1.434   5.471   0.780  1.4098 -0.3110 -0.0480
 1921TIP3   OH227177   0.882   3.055  13.729 -0.1093 -0.6944 -0.2888
 1921TIP3    H127178   0.954   2.996  13.750  0.7781  0.6903  0.7391
 1921TIP3    H227179   0.925   3.136  13.699 -1.2657 -0.3204 -1.0212
 1922TIP3   OH227180   1.741   0.958   2.004  0.1448 -0.2692 -0.0815
 1922TIP3    H127181   1.671   0.961   1.938  1.3245 -2.3580 -1.5503
 1922TIP3    H227182   1.746   0.866   2.029  2.7056 -0.3110 -0.4740
 1923TIP3   OH227183   5.096   0.211   5.327  0.1462  0.0087 -0.4066
 1923TIP3    H127184   5.083   0.234   5.236  2.1523  0.9454 -0.5036
 1923TIP3    H227185   5.015   0.237   5.371 -0.9023 -0.5965 -1.9104
 1924TIP3   OH227186   6.703   3.046   4.086  0.2072 -0.4900  0.5244
 1924TIP3    H127187   6.714   3.095   4.168  0.0307 -1.7143  1.2936
 1924TIP3    H227188   6.787   3.056   4.042  0.7378 -0.8439  1.4217
 1925TIP3   OH227189   2.230   1.217  12.470 -0.2020  0.2007  0.1777
 1925TIP3    H127190   2.148   1.203  12.424  0.2282  0.4917 -0.7037
 1925TIP3    H227191   2.259   1.130  12.496 -0.4116  0.0231 -0.1823
 1926TIP3   OH227192   4.879   5.495   0.340  0.1789 -0.1812 -0.5035
 1926TIP3    H127193   4.889   5.580   0.381 -1.5202 -1.4408  2.9363
 1926TIP3    H227194   4.840   5.513   0.255 -1.1964  2.4311  0.5771
 1927TIP3   OH227195   0.170   1.764   1.828 -0.2524  0.0832  0.3582
 1927TIP3    H127196   0.082   1.772   1.793 -0.6052 -0.0639  1.1851
 1927TIP3    H227197   0.158   1.746   1.921  0.6278 -1.0877  0.2788
 1928TIP3   OH227198   0.639   4.662  10.769  0.1356 -0.5974 -0.3805
 1928TIP3    H127199   0.606   4.573  10.755 -0.0291 -0.4800 -0.7607
 1928TIP3    H227200   0.659   4.694  10.681  0.8187 -0.4935 -0.1891
 1929TIP3   OH227201   0.764   6.294  13.151 -0.7804  0.0711  0.1274
 1929TIP3    H127202   0.704   6.311  13.078 -0.5314 -0.3474 -0.1750
 1929TIP3    H227203   0.733   6.352  13.221  0.6309  2.5748 -1.1909
 1930TIP3   OH227204   5.747   0.690  12.792 -0.1238 -0.3895 -0.1841
 1930TIP3    H127205   5.792   0.673  12.874 -0.7638 -3.1034 -0.2988
 1930TIP3    H227206   5.799   0.643  12.726 -0.7209  0.0663 -1.0016
 1931TIP3   OH227207   1.111   3.707   2.557  0.0305  0.6178 -0.1590
 1931TIP3    H127208   1.017   3.723   2.559  0.0935  0.9505  2.1297
 1931TIP3    H227209   1.149   3.778   2.607  1.3860 -0.2134  0.0429
 1932TIP3   OH227210   6.114   3.126   3.809 -0.3206 -0.0145  0.9080
 1932TIP3    H127211   6.100   3.059   3.876 -2.9582 -0.6231 -0.1123
 1932TIP3    H227212   6.098   3.081   3.726  0.5365  1.2691  0.0111
 1933TIP3   OH227213   4.145   3.494  16.353  0.3946  0.0638 -0.4577
 1933TIP3    H127214   4.059   3.505  16.313  0.0729 -0.5142  0.0638
 1933TIP3    H227215   4.193   3.438  16.292 -0.7163 -2.3974  0.7977
 1934TIP3   OH227216   4.483   5.400   1.842  0.2765  0.1445  0.4706
 1934TIP3    H127217   4.452   5.490   1.841  0.3348  0.1599 -0.2474
 1934TIP3    H227218   4.578   5.407   1.848  0.3087  0.1406 -0.0061
 1935TIP3   OH227219   6.493   0.902   3.518  0.4701 -0.0491 -0.4829
 1935TIP3    H127220   6.504   0.816   3.557 -0.6831  0.3993  0.9115
 1935TIP3    H227221   6.437   0.887   3.442 -0.3997 -0.4483  0.2182
 1936TIP3   OH227222   3.169   3.994   5.775  0.1126 -0.3336 -0.6266
 1936TIP3    H127223   3.208   3.964   5.857  0.1793  0.4192 -0.3797
 1936TIP3    H227224   3.089   3.941   5.767  0.7138 -1.2535 -0.6908
 1937TIP3   OH227225   3.332   1.241   1.611  0.3923  0.1815  0.5631
 1937TIP3    H127226   3.240   1.214   1.608  0.2205  0.7281  0.9732
 1937TIP3    H227227   3.350   1.255   1.703  1.6611 -2.5275  0.8308
 1938TIP3   OH227228   2.298   0.221   5.392  0.4019 -0.4902  0.0599
 1938TIP3    H127229   2.370   0.162   5.373  1.8925  1.3334 -0.2826
 1938TIP3    H227230   2.338   0.291   5.445 -1.2225  0.3118  0.2960
 1939TIP3   OH227231   1.615   2.399  11.557 -0.8619 -0.2957 -0.5139
 1939TIP3    H127232   1.676   2.340  11.601  0.5693  0.4375 -1.4566
 1939TIP3    H227233   1.651   2.486  11.570 -1.0360  0.0446 -2.0905
 1940TIP3   OH227234   5.712   5.065  16.917  0.0683 -0.1803 -0.1776
 1940TIP3    H127235   5.730   4.989  16.972 -0.1990 -0.9464 -1.1307
 1940TIP3    H227236   5.798   5.095  16.888  0.0870 -1.4105 -1.4902
 1941TIP3   OH227237   1.199   0.626  12.656 -0.6988 -0.4542  0.5553
 1941TIP3    H127238   1.177   0.551  12.602  1.0673  0.5724 -1.7599
 1941TIP3    H227239   1.219   0.696  12.594 -0.4651  1.4218  2.5839
 1942TIP3   OH227240   2.200   6.122   4.421 -0.2534  0.2417 -0.8912
 1942TIP3    H127241   2.182   6.116   4.515 -2.9598 -0.8745 -1.3979
 1942TIP3    H227242   2.213   6.031   4.393  1.2536  0.6111 -1.5343
 1943TIP3   OH227243   6.770   2.824  14.833  0.1009 -0.5985 -0.4380
 1943TIP3    H127244   6.837   2.890  14.816 -0.2056 -0.1578  0.0099
 1943TIP3    H227245   6.782   2.758  14.765  1.6039 -1.0168  0.1778
 1944TIP3   OH227246   2.101   0.228  16.027 -0.0417  0.2276 -0.0962
 1944TIP3    H127247   2.107   0.296  16.093  1.2783  0.8018 -0.7711
 1944TIP3    H227248   2.156   0.157  16.060  2.4889  1.3914 -1.5260
 1945TIP3   OH227249   3.990   3.976   2.196 -0.1915 -0.0613 -0.0254
 1945TIP3    H127250   4.062   3.914   2.201 -0.4885 -0.4400 -0.4204
 1945TIP3    H227251   3.979   4.007   2.286 -0.9315 -1.5944  0.4479
 1946TIP3   OH227252   4.019   3.080  11.144 -0.5255  0.0413 -0.0674
 1946TIP3    H127253   4.077   3.051  11.073 -2.1824 -1.4403 -0.8918
 1946TIP3    H227254   4.054   3.038  11.222 -0.2050 -0.4385 -0.4604
 1947TIP3   OH227255   3.915   5.057   2.569  0.0014  0.2655 -0.8279
 1947TIP3    H127256   3.922   5.109   2.649 -0.3492  0.6138 -1.0172
 1947TIP3    H227257   3.832   5.011   2.578  0.2403 -0.1468 -0.7301
 1948TIP3   OH227258   5.789   2.372   3.476 -0.0540  0.0625  0.1847
 1948TIP3    H127259   5.740   2.396   3.555  0.5473  0.1161  0.5462
 1948TIP3    H227260   5.852   2.306   3.506  0.9468  0.9036 -0.0108
 1949TIP3   OH227261   5.629   0.422   2.969  0.0326 -0.1161  0.1574
 1949TIP3    H127262   5.559   0.436   2.905 -0.1792 -0.1842  0.3720
 1949TIP3    H227263   5.695   0.488   2.947 -0.6898  0.8508  0.7855
 1950TIP3   OH227264   1.150   3.663  11.907  0.3807 -0.4430 -0.6205
 1950TIP3    H127265   1.230   3.613  11.894  0.9025 -0.4344  2.0306
 1950TIP3    H227266   1.155   3.694  11.997 -2.8836 -0.9640 -0.1380
 1951TIP3   OH227267   1.207   2.752   2.386  0.7287  0.2188 -0.2910
 1951TIP3    H127268   1.198   2.694   2.311 -0.8046  2.7665 -2.2464
 1951TIP3    H227269   1.296   2.737   2.418  1.6123 -0.6694 -2.8999
 1952TIP3   OH227270   2.394   1.720  14.600 -0.1003  0.3904  0.4226
 1952TIP3    H127271   2.471   1.777  14.596  0.1355  0.0290 -1.1275
 1952TIP3    H227272   2.430   1.633  14.614 -0.2563  0.2844  0.1668
 1953TIP3   OH227273   2.324   2.917  16.410 -0.4127 -0.4907  0.2102
 1953TIP3    H127274   2.242   2.883  16.374 -0.4860  0.6128 -0.7043
 1953TIP3    H227275   2.313   2.908  16.505 -1.6836 -0.1625  0.1163
 1954TIP3   OH227276   0.532   2.538   4.138  0.4236 -0.2299 -0.0228
 1954TIP3    H127277   0.567   2.627   4.143  0.9773 -0.4856  1.1705
 1954TIP3    H227278   0.581   2.490   4.205 -0.5775 -1.1883  0.0495
 1955TIP3   OH227279   5.708   4.413  12.204 -0.3791  0.1177  0.2742
 1955TIP3    H127280   5.740   4.418  12.294  0.7283  0.0397 -0.0956
 1955TIP3    H227281   5.706   4.319  12.184 -1.3927  0.0880  0.4692
 1956TIP3   OH227282   5.218   0.247   2.887 -0.2992 -0.4482  0.4752
 1956TIP3    H127283   5.276   0.210   2.821  1.5401  0.1826  1.6568
 1956TIP3    H227284   5.199   0.173   2.946 -0.9142 -0.7070 -0.0328
 1957TIP3   OH227285   1.586   6.390  14.509 -0.0486 -0.3754 -0.2287
 1957TIP3    H127286   1.545   6.308  14.482  1.5050 -0.8721 -1.1795
 1957TIP3    H227287   1.539   6.458  14.461 -0.5406 -0.8108 -0.3690
 1958TIP3   OH227288   2.026   1.250   2.475 -0.8795  0.4340 -0.5258
 1958TIP3    H127289   2.091   1.317   2.452  3.1580 -2.7575  0.2152
 1958TIP3    H227290   2.047   1.227   2.565  0.2980 -3.8656 -1.6536
 1959TIP3   OH227291   5.168   3.679  12.436  0.0404 -0.0891  0.4243
 1959TIP3    H127292   5.252   3.649  12.400  0.2858 -0.3776  1.2093
 1959TIP3    H227293   5.193   3.737  12.509 -0.3245  4.0848 -2.4384
 1960TIP3   OH227294   5.480   2.772  16.130 -0.2280 -0.3224  0.2359
 1960TIP3    H127295   5.404   2.801  16.080 -1.9337  0.1733  2.8950
 1960TIP3    H227296   5.484   2.677  16.114 -0.0725 -0.0349 -1.5810
 1961TIP3   OH227297   5.339   4.445   3.296 -0.4126 -0.4812 -0.5635
 1961TIP3    H127298   5.434   4.454   3.288 -0.4930  1.3191  0.1354
 1961TIP3    H227299   5.306   4.457   3.207 -0.0626  0.3064 -0.5926
 1962TIP3   OH227300   6.174   0.380   4.147 -0.1050 -0.5471  0.0536
 1962TIP3    H127301   6.152   0.468   4.115  0.1576 -0.5423 -0.1168
 1962TIP3    H227302   6.251   0.355   4.096  0.0988 -0.6898  0.4337
 1963TIP3   OH227303   0.498   2.425   0.645  0.5374 -0.2549  0.2440
 1963TIP3    H127304   0.500   2.452   0.737 -1.5461 -1.8665  0.8259
 1963TIP3    H227305   0.531   2.335   0.646 -0.2314 -0.5512 -0.4766
 1964TIP3   OH227306   2.044   1.333   0.035  0.4645 -0.6456  0.1040
 1964TIP3    H127307   1.965   1.387   0.029  0.5979 -0.5956 -1.7773
 1964TIP3    H227308   2.012   1.243   0.030  0.3476 -0.7344  1.9449
 1965TIP3   OH227309   1.260   3.774   4.721  0.3689  0.2176 -0.2409
 1965TIP3    H127310   1.171   3.763   4.686  0.2060 -2.5801  0.7859
 1965TIP3    H227311   1.255   3.852   4.776 -1.0134  1.0051 -1.4052
 1966TIP3   OH227312   1.954   2.612  12.493  0.1274  0.1298 -0.2196
 1966TIP3    H127313   1.966   2.706  12.482 -0.2613  0.1951 -0.1081
 1966TIP3    H227314   2.042   2.576  12.497  0.2874  0.6018  0.6735
 1967TIP3   OH227315   4.185   0.161  15.417 -0.0925  0.2206 -0.8443
 1967TIP3    H127316   4.239   0.179  15.494 -0.3992  0.6993 -0.7378
 1967TIP3    H227317   4.230   0.205  15.345  1.1667 -1.6945 -1.3055
 1968TIP3   OH227318   5.826   3.180   2.413 -0.4037 -0.1535 -0.2112
 1968TIP3    H127319   5.872   3.118   2.357  1.0312  0.3256  0.3760
 1968TIP3    H227320   5.794   3.128   2.487 -2.1833 -0.7600 -1.3389
 1969TIP3   OH227321   2.132   2.841  16.044  0.6652  0.1271  0.1179
 1969TIP3    H127322   2.188   2.853  15.968  0.6423 -1.2064 -0.1370
 1969TIP3    H227323   2.139   2.923  16.093  0.0711  1.3248 -1.6941
 1970TIP3   OH227324   4.131   0.046  12.470  0.2042  0.4254 -0.0082
 1970TIP3    H127325   4.040   0.074  12.479  0.5903  1.1372  2.0916
 1970TIP3    H227326   4.126  -0.048  12.458 -0.7878  0.2564  1.4706
 1971TIP3   OH227327   4.547   2.510   3.709 -0.0934  0.2858 -0.4302
 1971TIP3    H127328   4.637   2.525   3.678  0.1204  0.0707  0.0646
 1971TIP3    H227329   4.542   2.415   3.723 -0.0570  0.4180  0.5367
 1972TIP3   OH227330   6.368   6.337  14.605 -0.2050  0.4389 -0.0895
 1972TIP3    H127331   6.319   6.273  14.657  1.0960  0.6987  1.5690
 1972TIP3    H227332   6.439   6.286  14.566  0.2428  0.6713  0.4103
 1973TIP3   OH227333   3.697   4.192   0.487  0.1674 -0.2302 -0.3939
 1973TIP3    H127334   3.752   4.247   0.543 -0.8412  0.2145  0.1877
 1973TIP3    H227335   3.750   4.114   0.470  0.4445 -0.4333  1.2834
 1974TIP3   OH227336   5.142   6.449   4.136  0.0081 -0.2639  0.7922
 1974TIP3    H127337   5.131   6.456   4.041  1.1161 -1.1617  0.5835
 1974TIP3    H227338   5.219   6.503   4.155  0.9081 -1.5598  0.9117
 1975TIP3   OH227339   6.511   1.685  15.898 -0.7733 -0.0385  0.0198
 1975TIP3    H127340   6.453   1.670  15.973  1.0187  1.2184  1.7773
 1975TIP3    H227341   6.563   1.605  15.893 -2.2661 -0.9850 -1.2786
 1976TIP3   OH227342   0.360   2.854  15.403  0.3445 -0.7529 -0.3251
 1976TIP3    H127343   0.267   2.843  15.420 -0.2931  1.2999 -2.0286
 1976TIP3    H227344   0.375   2.948  15.409  2.1901 -0.9856 -0.6734
 1977TIP3   OH227345   5.396   3.957   1.716  0.0276 -0.4238 -0.3695
 1977TIP3    H127346   5.381   3.994   1.803  1.0493 -0.7308 -0.0450
 1977TIP3    H227347   5.333   4.002   1.660  0.2764  0.7916  0.2789
 1978TIP3   OH227348   0.352   6.065   5.713 -0.4715 -0.7287 -0.8060
 1978TIP3    H127349   0.289   5.998   5.687 -2.6309  0.9096 -0.0768
 1978TIP3    H227350   0.392   6.093   5.631 -2.7951  0.1493 -1.7200
 1979TIP3   OH227351   3.771   3.563  13.826  0.1592 -0.2173  0.5252
 1979TIP3    H127352   3.702   3.555  13.761  1.5855  0.5954 -1.1704
 1979TIP3    H227353   3.730   3.534  13.908 -2.1002  0.0401 -0.4308
 1980TIP3   OH227354   1.551   3.942   1.390 -0.0445  0.8809 -0.4833
 1980TIP3    H127355   1.539   3.993   1.310 -0.7247  0.6522 -0.5352
 1980TIP3    H227356   1.463   3.916   1.415  0.2970 -0.5325 -0.6288
 1981TIP3   OH227357   3.238   6.698   3.916  0.2162 -0.0055 -0.2270
 1981TIP3    H127358   3.296   6.661   3.982 -0.9003 -0.8789  0.2914
 1981TIP3    H227359   3.189   6.624   3.881  0.7612  0.4347 -2.0621
 1982TIP3   OH227360   3.296   4.905   4.185  0.4107 -0.1542 -0.3221
 1982TIP3    H127361   3.329   4.937   4.101 -0.1961 -1.6565 -1.1855
 1982TIP3    H227362   3.366   4.849   4.219  0.0321 -0.8234 -0.6222
 1983TIP3   OH227363   1.310   3.534   1.250 -0.4966 -0.3817 -0.7124
 1983TIP3    H127364   1.346   3.456   1.207  0.2602 -0.2937 -0.2560
 1983TIP3    H227365   1.339   3.606   1.194  0.8233 -0.2313  0.1191
 1984TIP3   OH227366   0.796   0.319   2.941 -0.0056  0.0059  0.5496
 1984TIP3    H127367   0.724   0.324   2.879  0.9389  0.3110 -0.5639
 1984TIP3    H227368   0.875   0.319   2.886  0.8616  0.3401  1.7496
 1985TIP3   OH227369   0.504   0.867  16.358  0.1850 -0.0869 -0.0337
 1985TIP3    H127370   0.518   0.820  16.440  0.2524 -1.6226 -0.8837
 1985TIP3    H227371   0.443   0.937  16.380  1.3020  0.4440  1.6169
 1986TIP3   OH227372   2.896   6.225   5.019 -0.5063 -0.2083 -0.0159
 1986TIP3    H127373   2.977   6.247   5.066 -1.1079  2.1132  0.0496
 1986TIP3    H227374   2.923   6.213   4.928 -0.1233  0.8680 -0.0496
 1987TIP3   OH227375   0.221   2.987   2.237  0.1082  0.4086 -0.1172
 1987TIP3    H127376   0.195   2.962   2.148 -0.7291  0.5168  0.0894
 1987TIP3    H227377   0.284   3.057   2.225 -1.2164  1.5594 -0.6102
 1988TIP3   OH227378   1.235   5.400  17.238  0.3520  0.1845  0.3374
 1988TIP3    H127379   1.309   5.440  17.194 -0.3057  0.4198 -0.5785
 1988TIP3    H227380   1.166   5.466  17.235 -0.4044 -0.6136 -0.2639
 1989TIP3   OH227381   1.483   3.118   5.482  0.2201 -0.3697 -0.4505
 1989TIP3    H127382   1.402   3.167   5.496 -1.2871 -1.7108 -3.6682
 1989TIP3    H227383   1.482   3.050   5.549 -0.4934  0.5552  0.5107
 1990TIP3   OH227384   1.113   1.996  16.484 -0.3260 -0.1585  0.3637
 1990TIP3    H127385   1.182   1.935  16.509  0.7230  0.6479 -0.4732
 1990TIP3    H227386   1.140   2.030  16.399 -2.1351 -0.3707 -0.3528
 1991TIP3   OH227387   5.168   5.741   5.919  0.1483  0.3657 -0.1094
 1991TIP3    H127388   5.097   5.726   5.856 -0.2158 -0.6211  0.5221
 1991TIP3    H227389   5.189   5.654   5.953  2.7650  0.3771 -1.4245
 1992TIP3   OH227390   2.704   1.694  16.964 -0.1515 -0.1298  0.1625
 1992TIP3    H127391   2.761   1.722  16.893 -0.0124 -0.1703  0.2578
 1992TIP3    H227392   2.671   1.608  16.936  0.8983 -0.7347  0.7033
 1993TIP3   OH227393   5.709   2.701  12.503  0.3047 -0.5446 -0.1844
 1993TIP3    H127394   5.766   2.760  12.453 -0.7373 -0.2805 -1.1030
 1993TIP3    H227395   5.622   2.740  12.497 -0.0439 -1.1116  0.9142
 1994TIP3   OH227396   0.267   6.180   0.995  0.0629  0.2259 -0.3444
 1994TIP3    H127397   0.192   6.186   1.054  0.3252 -0.7728  0.1172
 1994TIP3    H227398   0.341   6.208   1.049  0.3939 -1.2512  0.0096
 1995TIP3   OH227399   1.267   0.371   1.049  0.4520  0.1292  0.0578
 1995TIP3    H127400   1.265   0.276   1.043 -0.1972  0.1453 -0.0763
 1995TIP3    H227401   1.175   0.396   1.061  0.5485  0.7711 -0.4710
 1996TIP3   OH227402   3.664   3.021  16.777 -0.0653 -0.1656  0.3068
 1996TIP3    H127403   3.631   2.932  16.773  2.2412 -1.0562 -2.7998
 1996TIP3    H227404   3.747   3.014  16.824 -0.2730  0.5518  0.8104
 1997TIP3   OH227405   0.882   1.313  14.037 -0.3741 -0.1903 -0.1009
 1997TIP3    H127406   0.951   1.327  13.973  0.2424  2.4954  1.0037
 1997TIP3    H227407   0.801   1.329  13.989  0.0553  1.2696 -0.3989
 1998TIP3   OH227408   3.566   0.046  14.896 -0.5092  0.9709 -0.2607
 1998TIP3    H127409   3.576  -0.011  14.819  0.5333  0.6810  0.0797
 1998TIP3    H227410   3.639   0.107  14.892 -0.1968  0.6846  0.7230
 1999TIP3   OH227411   0.152   1.088   2.360 -0.4999  0.1286 -0.3588
 1999TIP3    H127412   0.061   1.059   2.361 -0.5111  0.0977  1.2262
 1999TIP3    H227413   0.146   1.183   2.370 -0.3773 -0.0488  2.0301
 2000TIP3   OH227414   0.291   0.470   3.489 -0.3657 -0.3437  0.5161
 2000TIP3    H127415   0.291   0.408   3.415  1.0602 -0.3259  0.4800
 2000TIP3    H227416   0.379   0.465   3.525 -1.0002 -0.2706  2.1806
 2001TIP3   OH227417   6.330   1.569  17.191  0.3184  0.0065 -0.2833
 2001TIP3    H127418   6.401   1.545  17.132  1.1165  0.0571  0.6474
 2001TIP3    H227419   6.329   1.665  17.189 -0.5229 -0.0006 -1.2144
 2002TIP3   OH227420   0.491   1.675   1.457 -0.0973 -0.0729 -0.2234
 2002TIP3    H127421   0.485   1.645   1.548  1.4523 -0.7931 -0.3209
 2002TIP3    H227422   0.538   1.759   1.463  1.4511 -0.8915 -0.4528
 2003TIP3   OH227423   0.826   4.566  17.086 -0.3453  0.3730  0.1871
 2003TIP3    H127424   0.881   4.541  17.012 -0.8693 -1.0469  0.2354
 2003TIP3    H227425   0.755   4.618  17.048 -1.2704 -1.3350 -0.5307
 2004TIP3   OH227426   4.342   2.670   0.091  0.4540  0.3998  0.2017
 2004TIP3    H127427   4.257   2.629   0.108 -0.0009  1.7597  1.4380
 2004TIP3    H227428   4.404   2.619   0.143  0.8955 -2.1147 -2.5423
 2005TIP3   OH227429   3.775   5.781   1.537  0.1752 -0.2572 -0.1867
 2005TIP3    H127430   3.847   5.727   1.569 -0.1555 -0.0137  1.0120
 2005TIP3    H227431   3.815   5.865   1.515  0.3420 -0.2956 -0.0236
 2006TIP3   OH227432   6.377   5.862   6.118 -0.2065 -0.0847 -0.4567
 2006TIP3    H127433   6.354   5.905   6.200 -1.7700 -0.0995 -0.8684
 2006TIP3    H227434   6.404   5.933   6.060 -0.9786  0.1374 -0.5433
 2007TIP3   OH227435   0.984   1.032  10.830 -0.2955  0.0347  0.4410
 2007TIP3    H127436   1.054   1.089  10.798 -0.4495 -0.1512 -0.2442
 2007TIP3    H227437   0.985   0.957  10.770 -0.5246 -0.3768  0.9399
 2008TIP3   OH227438   6.662   0.292   2.180 -0.0547  0.3151 -0.0001
 2008TIP3    H127439   6.672   0.230   2.252 -1.0316 -0.2304 -0.3209
 2008TIP3    H227440   6.715   0.368   2.206  1.1488 -0.6284  0.4081
 2009TIP3   OH227441   5.414   0.955  12.299  0.3796 -0.0125 -0.0277
 2009TIP3    H127442   5.368   0.999  12.371 -0.2105  0.4779 -0.6852
 2009TIP3    H227443   5.399   0.862  12.314  0.2676  0.0886  0.4870
 2010TIP3   OH227444   0.141   1.781   0.608  0.1800  0.0529 -0.3801
 2010TIP3    H127445   0.152   1.804   0.700  0.3566  1.3748 -0.7128
 2010TIP3    H227446   0.199   1.706   0.595  1.0143  0.5545  0.3202
 2011TIP3   OH227447   3.050   4.321  13.434  0.5166  0.2857  0.3027
 2011TIP3    H127448   3.073   4.399  13.485  2.6471 -0.1834  0.1466
 2011TIP3    H227449   3.098   4.331  13.352  0.9794 -1.2653  0.3555
 2012TIP3   OH227450   5.377   4.670  11.495  0.1026 -0.7017  0.7966
 2012TIP3    H127451   5.293   4.627  11.506 -0.5376  0.5087  0.8612
 2012TIP3    H227452   5.400   4.656  11.403 -0.4943 -0.4995  0.6118
 2013TIP3   OH227453   5.371   6.517   3.881  0.3604 -0.5329 -0.5076
 2013TIP3    H127454   5.317   6.595   3.885 -1.4290 -1.6406 -1.5858
 2013TIP3    H227455   5.461   6.549   3.873 -0.2006  1.3669  0.3563
 2014TIP3   OH227456   1.305   3.941   0.980  0.5589  0.4723  0.2500
 2014TIP3    H127457   1.333   3.988   0.901 -1.5098 -0.4274 -1.1296
 2014TIP3    H227458   1.210   3.948   0.979  0.3357 -1.5484  1.3713
 2015TIP3   OH227459   1.303   3.244   4.679 -0.5168  0.0472 -0.2183
 2015TIP3    H127460   1.209   3.262   4.679 -0.5233  0.2458 -2.0864
 2015TIP3    H227461   1.336   3.286   4.759 -2.0228 -0.1834  0.5619
 2016TIP3   OH227462   5.257   0.783   1.058 -0.4351  0.6035  0.1913
 2016TIP3    H127463   5.180   0.816   1.104  0.2342  1.9357  0.4072
 2016TIP3    H227464   5.304   0.862   1.030  0.5603 -0.1821 -0.4269
 2017TIP3   OH227465   3.016   6.405  14.540  0.7186  0.4934 -0.2617
 2017TIP3    H127466   2.958   6.428  14.612  0.4846 -0.7281 -0.0328
 2017TIP3    H227467   2.958   6.393  14.464  0.9277  1.4458 -0.5871
 2018TIP3   OH227468   5.931   5.251  16.831  0.3785 -0.4050 -0.0938
 2018TIP3    H127469   5.973   5.194  16.766  1.4674  0.3501 -0.0714
 2018TIP3    H227470   5.893   5.322  16.778  0.0167 -0.5375 -0.0173
 2019TIP3   OH227471   0.165   6.292  10.763  0.2189 -0.4830 -0.5484
 2019TIP3    H127472   0.146   6.365  10.822 -0.8065 -0.9655 -0.2567
 2019TIP3    H227473   0.210   6.331  10.689 -3.6090  1.1387 -2.2675
 2020TIP3   OH227474   5.669   1.567   2.084  0.4559 -0.3997  0.1138
 2020TIP3    H127475   5.648   1.574   2.177  0.5766  0.8504  0.0701
 2020TIP3    H227476   5.587   1.588   2.039  0.4905 -0.6409 -0.0660
 2021TIP3   OH227477   0.181   2.470  16.740 -0.0129  0.1728 -0.5556
 2021TIP3    H127478   0.276   2.469  16.728  0.0865  1.3557 -0.0750
 2021TIP3    H227479   0.163   2.399  16.802  0.8389  1.2541  1.0025
 2022TIP3   OH227480   0.511   1.163   6.315 -0.8649 -0.0956  0.3442
 2022TIP3    H127481   0.503   1.161   6.410  1.6444  1.7687  0.7019
 2022TIP3    H227482   0.423   1.185   6.284 -1.4496  0.5291  2.2964
 2023TIP3   OH227483   1.463   2.053   5.613  0.4626 -0.4071  0.2015
 2023TIP3    H127484   1.415   1.982   5.571 -0.7885  0.2845  0.4231
 2023TIP3    H227485   1.476   2.117   5.543  2.1706 -1.0884 -0.1698
 2024TIP3   OH227486   3.007   0.119   4.932 -0.1251 -0.2174 -0.4526
 2024TIP3    H127487   2.912   0.109   4.925 -0.1858 -0.5694  0.6253
 2024TIP3    H227488   3.032   0.055   4.999  0.5088  1.7363  1.2827
 2025TIP3   OH227489   2.507   1.321  15.913  0.1142  0.2710  0.1654
 2025TIP3    H127490   2.529   1.391  15.974 -0.8496 -0.6299  1.5971
 2025TIP3    H227491   2.501   1.243  15.967  1.5190 -1.0215 -1.4557
 2026TIP3   OH227492   3.791   0.319   4.877  0.6259  0.0945 -0.2582
 2026TIP3    H127493   3.714   0.359   4.918  0.0632  1.3066 -2.3107
 2026TIP3    H227494   3.761   0.297   4.788  2.5664  0.4212 -1.0392
 2027TIP3   OH227495   6.700   2.700  17.069  0.5859 -0.2873  0.1225
 2027TIP3    H127496   6.656   2.769  17.019 -0.0592 -0.7944 -0.0278
 2027TIP3    H227497   6.706   2.735  17.158  2.1946  0.8225 -0.3977
 2028TIP3   OH227498   4.820   5.191  11.213 -0.0244 -0.5875 -0.0433
 2028TIP3    H127499   4.891   5.198  11.277 -0.5674 -1.0573  0.6270
 2028TIP3    H227500   4.740   5.200  11.265 -0.4563  0.5837 -0.8763
 2029TIP3   OH227501   1.956   5.378   5.476 -0.1800  0.5029 -0.3839
 2029TIP3    H127502   1.889   5.435   5.438  0.0978  2.4334  1.8022
 2029TIP3    H227503   2.038   5.406   5.433 -0.3266  0.2554 -0.8368
 2030TIP3   OH227504   4.586   3.523   3.217  0.0932  0.2001  0.4188
 2030TIP3    H127505   4.654   3.465   3.252  1.5277  1.9348  0.6806
 2030TIP3    H227506   4.531   3.467   3.163  1.1069 -1.4793  1.0630
 2031TIP3   OH227507   1.137   3.059   5.661 -0.5779 -0.0235  0.1484
 2031TIP3    H127508   1.050   3.092   5.683  0.1259  1.7165  0.5030
 2031TIP3    H227509   1.135   3.048   5.566 -1.4084 -0.7127  0.2365
 2032TIP3   OH227510   4.293   6.072  14.524 -0.1496 -0.1043 -0.1400
 2032TIP3    H127511   4.212   6.112  14.557 -0.5921 -1.7437  0.8965
 2032TIP3    H227512   4.353   6.145  14.514 -1.2441  0.9522  0.6630
 2033TIP3   OH227513   1.750   5.879  12.871 -0.3553 -0.0735 -0.5257
 2033TIP3    H127514   1.813   5.808  12.873  0.5581  0.7113 -0.2481
 2033TIP3    H227515   1.769   5.926  12.790 -0.3628  0.3410 -0.2938
 2034TIP3   OH227516   5.009   5.019  16.499 -0.4925 -0.0413  0.0200
 2034TIP3    H127517   4.957   5.098  16.485  0.3014  0.4994  0.0266
 2034TIP3    H227518   4.950   4.959  16.545 -1.2980  0.3152 -0.5308
 2035TIP3   OH227519   3.972   3.149   4.809  0.1124  0.0711 -0.7746
 2035TIP3    H127520   4.005   3.119   4.725 -0.7724 -0.3966 -0.9640
 2035TIP3    H227521   3.891   3.196   4.789  0.4546  0.9031 -0.2834
 2036TIP3   OH227522   1.218   4.317   6.000  0.1423 -0.4160  0.5944
 2036TIP3    H127523   1.296   4.287   6.046  1.4326  1.7989  0.0059
 2036TIP3    H227524   1.221   4.412   6.006 -2.8452 -0.2370  1.0024
 2037TIP3   OH227525   0.041   3.845   1.591  0.0647  0.4007 -0.2690
 2037TIP3    H127526   0.059   3.921   1.646 -0.0764  0.0603  0.2597
 2037TIP3    H227527   0.030   3.881   1.503 -3.5626  1.4898  0.4741
 2038TIP3   OH227528   3.766   4.526  13.610  0.3314  0.6147 -0.1825
 2038TIP3    H127529   3.803   4.557  13.693 -2.3107  0.1799  1.2892
 2038TIP3    H227530   3.750   4.606  13.560  1.2594  0.9499  0.0386
 2039TIP3   OH227531   0.529   6.331  12.620 -0.0076 -0.4157  0.1055
 2039TIP3    H127532   0.558   6.421  12.634  0.8796 -0.9069  1.7407
 2039TIP3    H227533   0.441   6.338  12.585  0.3818  1.0932 -0.6169
 2040TIP3   OH227534   5.409   1.000   3.143  0.0436 -0.1361 -0.1552
 2040TIP3    H127535   5.437   1.000   3.234  0.5833 -0.6206 -0.3173
 2040TIP3    H227536   5.352   0.923   3.135 -0.0010 -0.0958 -0.2327
 2041TIP3   OH227537   2.108   4.635   0.404  0.1603  1.1861  0.0574
 2041TIP3    H127538   2.147   4.684   0.476 -0.1036  1.8518 -0.2484
 2041TIP3    H227539   2.021   4.610   0.437  1.3751 -1.7524  1.3945
 2042TIP3   OH227540   4.334   6.635   0.023  0.0706 -0.1786  0.2222
 2042TIP3    H127541   4.366   6.550  -0.007  2.1102  1.0856 -1.4331
 2042TIP3    H227542   4.321   6.623   0.117  1.4975 -1.9769  0.2662
 2043TIP3   OH227543   3.022   3.817   3.576  0.2498  0.7789 -0.0961
 2043TIP3    H127544   3.021   3.734   3.528  3.0226  1.9512 -2.4697
 2043TIP3    H227545   3.064   3.795   3.659 -2.4833 -0.8251  0.9899
 2044TIP3   OH227546   4.185   3.209   0.920  0.1018  0.1716  0.6313
 2044TIP3    H127547   4.225   3.294   0.905 -1.2709  0.9337  1.0794
 2044TIP3    H227548   4.204   3.190   1.012  0.1408  0.1481  0.6182
 2045TIP3   OH227549   1.528   0.955   5.716 -0.4386  0.5241 -0.4455
 2045TIP3    H127550   1.611   0.975   5.759  0.2287 -0.7155 -1.0989
 2045TIP3    H227551   1.461   0.980   5.780  0.4493  1.0304  0.3055
 2046TIP3   OH227552   0.464   3.136   4.529  0.1247  0.9456 -0.2638
 2046TIP3    H127553   0.469   3.092   4.614  0.1112  2.2942  0.4645
 2046TIP3    H227554   0.496   3.225   4.546 -0.4114  1.4101 -1.5458
 2047TIP3   OH227555   2.843   4.427  12.619  0.2966 -0.2018 -0.4846
 2047TIP3    H127556   2.888   4.353  12.659 -1.7933 -1.0682  0.3707
 2047TIP3    H227557   2.908   4.465  12.561  1.1543 -3.2995 -1.7411
 2048TIP3   OH227558   1.823   3.284   6.107  0.0775 -0.2228 -0.2172
 2048TIP3    H127559   1.803   3.221   6.176  0.9573  0.1887  0.4278
 2048TIP3    H227560   1.876   3.351   6.150  1.1784 -0.2879 -1.4203
 2049TIP3   OH227561   3.500   6.640  13.081 -0.1741 -0.4314  0.6084
 2049TIP3    H127562   3.513   6.721  13.131 -0.1599 -1.9309  3.2024
 2049TIP3    H227563   3.587   6.619  13.047  0.0905 -0.0164  1.0086
 2050TIP3   OH227564   0.844   0.078   0.965  0.0042  0.0232  0.5460
 2050TIP3    H127565   0.788   0.018   0.915 -1.7599  0.6056  1.7325
 2050TIP3    H227566   0.879   0.024   1.036 -0.5065  0.0602  0.8333
 2051TIP3   OH227567   3.062   3.374   2.959 -0.2710 -0.0345  0.0733
 2051TIP3    H127568   3.144   3.330   2.939 -0.3268 -0.0734 -0.0683
 2051TIP3    H227569   3.002   3.348   2.889 -0.4026 -0.0017  0.1724
 2052TIP3   OH227570   1.642   0.871   6.940 -0.1139  0.4856 -0.1018
 2052TIP3    H127571   1.725   0.831   6.912 -0.7180 -2.7490  2.0963
 2052TIP3    H227572   1.661   0.965   6.945  3.1564 -0.0263 -0.5486
 2053TIP3   OH227573   5.887   3.642   2.733 -0.3157 -0.0807  0.2253
 2053TIP3    H127574   5.837   3.676   2.659  3.1037  2.7338 -1.0141
 2053TIP3    H227575   5.857   3.693   2.808 -2.2025 -1.3981  0.4313
 2054TIP3   OH227576   3.009   5.111  16.697  0.4831  0.0236 -0.6038
 2054TIP3    H127577   3.037   5.203  16.695  1.5403 -0.2975 -1.9026
 2054TIP3    H227578   3.083   5.063  16.660  0.1374 -1.4165  0.4997
 2055TIP3   OH227579   3.159   6.683   1.373 -0.3093 -0.7841 -0.4123
 2055TIP3    H127580   3.189   6.610   1.319 -0.6512 -1.4031  0.2298
 2055TIP3    H227581   3.167   6.759   1.316 -0.5924 -1.4177 -1.3134
 2056TIP3   OH227582   5.696   4.298   0.133 -0.0102 -0.2378  0.3271
 2056TIP3    H127583   5.741   4.365   0.083  0.3785 -0.4362  0.4057
 2056TIP3    H227584   5.754   4.280   0.207  0.0850 -0.9383  0.0932
 2057TIP3   OH227585   1.066   0.640   4.526  0.0615  0.5765  0.1200
 2057TIP3    H127586   1.137   0.667   4.467 -0.5836  0.0843 -0.9228
 2057TIP3    H227587   1.070   0.702   4.598  1.9760  0.1468  0.4295
 2058TIP3   OH227588   4.993   3.704   0.876 -0.2441 -0.7596  0.1283
 2058TIP3    H127589   5.039   3.682   0.795  0.3216 -0.2920  0.3176
 2058TIP3    H227590   4.940   3.781   0.854  1.3174  0.5329  0.6497
 2059TIP3   OH227591   0.014   2.210  14.368  0.3142 -0.2252 -0.6489
 2059TIP3    H127592  -0.020   2.258  14.444  0.6642 -1.4928  0.3636
 2059TIP3    H227593  -0.063   2.190  14.316  0.0000  0.2407 -0.3688
 2060TIP3   OH227594   6.425   1.768   1.577 -0.2936  0.1305 -0.0032
 2060TIP3    H127595   6.337   1.797   1.552  0.3424  1.3232 -0.9589
 2060TIP3    H227596   6.482   1.842   1.554  0.9727 -0.6629  0.4965
 2061TIP3   OH227597   1.758   1.903  12.712  0.2181 -0.0087  0.0098
 2061TIP3    H127598   1.803   1.984  12.686 -0.6163  0.2541 -0.6945
 2061TIP3    H227599   1.665   1.921  12.694  0.0700 -1.3062 -0.6591
 2062TIP3   OH227600   3.929   5.974  11.185  0.7481 -0.2240  0.3272
 2062TIP3    H127601   3.974   6.040  11.238  1.4057  0.0633 -0.5595
 2062TIP3    H227602   3.856   5.945  11.240  0.6026  1.0346  0.8458
 2063TIP3   OH227603   5.152   3.991   3.379  0.7718 -0.8977  0.4213
 2063TIP3    H127604   5.057   3.986   3.383  0.6777 -0.7498 -1.0406
 2063TIP3    H227605   5.171   4.004   3.286  2.1917 -0.3060  0.7710
 2064TIP3   OH227606   5.717   0.921  16.401 -0.2299 -0.2002  0.0400
 2064TIP3    H127607   5.718   0.970  16.483  0.7778 -0.4557  0.1966
 2064TIP3    H227608   5.746   0.984  16.335 -0.1184 -0.2503  0.0410
 2065TIP3   OH227609   5.783   3.358   3.154 -0.4262  0.4449  0.2846
 2065TIP3    H127610   5.841   3.414   3.102 -1.0382 -0.4555 -1.4126
 2065TIP3    H227611   5.819   3.270   3.144 -1.7999 -0.0642 -0.4428
 2066TIP3   OH227612   3.286   5.429   4.688  0.1753 -0.1620 -0.2709
 2066TIP3    H127613   3.330   5.388   4.613 -1.1842 -2.4398  0.0663
 2066TIP3    H227614   3.357   5.461   4.743  1.3097 -1.0960 -1.1276
 2067TIP3   OH227615   5.044   1.784  15.800  0.2791 -0.1284 -0.5842
 2067TIP3    H127616   4.962   1.820  15.769  0.8109  2.1789  0.4493
 2067TIP3    H227617   5.111   1.825  15.745  0.7695 -2.6927 -2.0569
 2068TIP3   OH227618   4.366   0.717   2.950  0.6283 -0.2734 -0.5647
 2068TIP3    H127619   4.436   0.656   2.928  1.3481  0.4205 -0.2598
 2068TIP3    H227620   4.402   0.770   3.022 -0.0315  0.3974 -0.7149
 2069TIP3   OH227621   1.465   4.082  13.175  0.3478  0.4109 -0.0971
 2069TIP3    H127622   1.395   4.147  13.186 -0.6103 -0.3718 -1.3340
 2069TIP3    H227623   1.470   4.068  13.080  1.1816 -0.6338  0.0863
 2070TIP3   OH227624   4.242   5.768  16.323 -0.1657  0.2622  0.1248
 2070TIP3    H127625   4.321   5.714  16.317 -0.7427 -0.5899 -0.0400
 2070TIP3    H227626   4.266   5.839  16.383  0.6802 -0.0523  0.1773
 2071TIP3   OH227627   0.711   1.252   3.237 -0.6196  0.9820 -0.3819
 2071TIP3    H127628   0.621   1.261   3.203 -1.1976 -0.5375  0.6218
 2071TIP3    H227629   0.754   1.196   3.173 -0.7002  0.8565 -0.3265
 2072TIP3   OH227630   1.775   2.080   3.660  0.5288 -0.4613 -0.1314
 2072TIP3    H127631   1.809   2.100   3.573  1.2357  1.6737  0.5788
 2072TIP3    H227632   1.853   2.073   3.715  0.0950 -1.9382  0.3503
 2073TIP3   OH227633   4.669   3.375   4.218  0.1297  0.1365 -0.0338
 2073TIP3    H127634   4.695   3.317   4.289 -0.9282  0.1542  0.4004
 2073TIP3    H227635   4.627   3.317   4.154 -0.4001  0.3296  0.1304
 2074TIP3   OH227636   4.914   1.271   4.390 -0.1156 -0.0748 -0.7968
 2074TIP3    H127637   4.900   1.333   4.318 -0.9749  1.1152  0.3504
 2074TIP3    H227638   4.892   1.320   4.469 -1.6400 -2.0796  0.1117
 2075TIP3   OH227639   3.023   3.732  15.856 -0.4373  0.4756 -0.2073
 2075TIP3    H127640   3.051   3.823  15.866  1.1557 -0.1035  1.1427
 2075TIP3    H227641   3.104   3.685  15.835 -0.9342 -0.8420  0.7486
 2076TIP3   OH227642   6.322   3.364  11.855  0.1648  0.2970  0.4398
 2076TIP3    H127643   6.401   3.369  11.803  0.0221  0.7728  0.2632
 2076TIP3    H227644   6.255   3.408  11.802  0.0752  1.0135  1.1190
 2077TIP3   OH227645   5.166   4.209  16.484  0.0638 -0.0908  0.2419
 2077TIP3    H127646   5.097   4.270  16.509  0.6157  0.7108 -0.1328
 2077TIP3    H227647   5.210   4.187  16.566 -0.2240 -0.0916  0.3950
 2078TIP3   OH227648   0.956   4.929   5.489  0.4652  0.2891 -0.1923
 2078TIP3    H127649   0.869   4.919   5.451  0.4769  1.6168 -0.6144
 2078TIP3    H227650   1.014   4.879   5.432  0.3517  1.5328 -1.4531
 2079TIP3   OH227651   6.162   5.123   4.708 -0.3052  0.4274  0.0150
 2079TIP3    H127652   6.140   5.108   4.616 -0.4256  0.3750  0.0523
 2079TIP3    H227653   6.226   5.055   4.729  1.5606  1.8575 -0.6978
 2080TIP3   OH227654   5.248   5.638  14.372  0.1743  0.1161 -0.0225
 2080TIP3    H127655   5.196   5.707  14.413 -0.6002 -0.1125 -0.6088
 2080TIP3    H227656   5.271   5.673  14.286 -0.1276 -0.3090 -0.2783
 2081TIP3   OH227657   2.510   3.610   1.329 -0.1954  0.2823 -0.2410
 2081TIP3    H127658   2.589   3.663   1.317  0.3970 -0.8666 -1.6666
 2081TIP3    H227659   2.439   3.674   1.334  0.7905  1.3363  0.9926
 2082TIP3   OH227660   5.822   4.335  12.453 -0.2433 -0.6241 -0.6664
 2082TIP3    H127661   5.777   4.308  12.533 -0.0141  0.7947 -0.0304
 2082TIP3    H227662   5.869   4.257  12.424  2.1590 -0.4698  2.2795
 2083TIP3   OH227663   3.221   2.668   4.580 -0.4487 -0.3030  0.3043
 2083TIP3    H127664   3.232   2.606   4.507 -0.6941 -0.4856  0.4211
 2083TIP3    H227665   3.166   2.738   4.543  1.3485  0.7924 -0.3884
 2084TIP3   OH227666   3.588   3.826   4.874  0.2707  0.5019  0.3398
 2084TIP3    H127667   3.627   3.770   4.941  1.1745  1.4927  0.6721
 2084TIP3    H227668   3.624   3.793   4.791 -0.9430 -0.8001  0.3097
 2085TIP3   OH227669   1.353   6.030  16.250  0.0898  0.5249 -1.4328
 2085TIP3    H127670   1.275   6.034  16.305  1.1535  0.9407  0.1293
 2085TIP3    H227671   1.356   5.940  16.217 -0.0451 -0.0432  0.0464
 2086TIP3   OH227672   1.399   3.379  10.559  0.0689  0.2236 -0.8394
 2086TIP3    H127673   1.310   3.365  10.529 -0.5214  1.2628  0.3329
 2086TIP3    H227674   1.413   3.313  10.627 -0.0256  0.4399 -0.6077
 2087TIP3   OH227675   0.068   3.178  14.005  0.1150  0.0012 -0.6814
 2087TIP3    H127676   0.156   3.215  14.018 -0.0130  0.3308 -0.7333
 2087TIP3    H227677   0.077   3.085  14.026  0.0185  0.4144  1.4767
 2088TIP3   OH227678   1.308   3.345  15.217  0.3068 -0.2348  0.5621
 2088TIP3    H127679   1.348   3.323  15.301 -1.0093 -1.5990  0.8679
 2088TIP3    H227680   1.296   3.261  15.173  2.6567  0.5157 -1.8701
 2089TIP3   OH227681   2.371   2.818  15.322 -0.4145 -0.0025 -0.5661
 2089TIP3    H127682   2.366   2.749  15.255  1.3421  0.3867 -1.1298
 2089TIP3    H227683   2.327   2.893  15.281 -2.0940 -0.6487 -0.0521
 2090TIP3   OH227684   1.513   0.715   3.012 -0.7160 -0.2825 -0.4130
 2090TIP3    H127685   1.447   0.781   3.033 -2.1972 -2.0241  0.6639
 2090TIP3    H227686   1.569   0.711   3.089 -1.6741 -1.4306  0.2681
 2091TIP3   OH227687   3.283   1.673  13.559  0.1455  0.4578 -0.0846
 2091TIP3    H127688   3.223   1.665  13.633 -0.1487 -0.5922 -0.4280
 2091TIP3    H227689   3.343   1.743  13.585 -0.3506  0.5481  0.8684
 2092TIP3   OH227690   5.863   5.001   0.337  0.1865  0.6075 -0.4100
 2092TIP3    H127691   5.868   5.083   0.287  2.3088  0.0966 -1.1618
 2092TIP3    H227692   5.887   4.934   0.274  0.1065 -0.4040  0.6097
 2093TIP3   OH227693   6.364   2.885  15.045 -0.3113  0.9325  0.0618
 2093TIP3    H127694   6.341   2.876  15.137 -1.2623 -0.9981 -0.3084
 2093TIP3    H227695   6.458   2.870  15.042 -0.7169 -2.3393  0.4348
 2094TIP3   OH227696   0.913   5.417   3.541 -0.8999 -0.1750 -0.3512
 2094TIP3    H127697   0.844   5.450   3.598  0.0423  1.7882 -0.2576
 2094TIP3    H227698   0.869   5.353   3.484 -2.0745 -1.4045  1.8214
 2095TIP3   OH227699   1.850   4.291  10.806  0.2837 -0.5987 -0.0863
 2095TIP3    H127700   1.942   4.316  10.806  0.0597  0.3100 -1.6111
 2095TIP3    H227701   1.835   4.256  10.718 -0.4015 -2.4526  0.7226
 2096TIP3   OH227702   2.131   0.814  15.893  0.0697 -0.1588 -0.4028
 2096TIP3    H127703   2.078   0.878  15.845  1.4567  2.8390  1.7435
 2096TIP3    H227704   2.202   0.792  15.834  0.9289  2.3005 -0.3896
 2097TIP3   OH227705   4.982   1.175  15.071  0.7105 -0.4283 -0.0035
 2097TIP3    H127706   4.907   1.214  15.027 -0.0714 -0.7515  0.9859
 2097TIP3    H227707   5.000   1.235  15.144  2.8417  0.8325 -1.4622
 2098TIP3   OH227708   6.546   0.945  13.018 -0.5330  0.2558  0.7778
 2098TIP3    H127709   6.637   0.942  13.047 -0.2910  0.5339  0.0623
 2098TIP3    H227710   6.498   0.896  13.084  0.0504  0.6298  1.4900
 2099TIP3   OH227711   4.938   0.615   2.325 -1.2125  0.5985  0.1196
 2099TIP3    H127712   4.944   0.700   2.367 -0.1405 -0.2175  1.7346
 2099TIP3    H227713   4.912   0.555   2.395 -1.3317 -0.5143 -0.8325
 2100TIP3   OH227714   3.719   6.363  13.685  0.2300  0.1160 -0.1948
 2100TIP3    H127715   3.795   6.313  13.656  0.5756 -0.2001  1.1804
 2100TIP3    H227716   3.695   6.416  13.609  2.1782  0.6670 -0.4763
 2101TIP3   OH227717   2.288   4.176  14.408 -0.4624 -0.1068 -0.4095
 2101TIP3    H127718   2.255   4.087  14.396 -2.8152  1.0108 -3.5669
 2101TIP3    H227719   2.241   4.210  14.484  0.4477 -1.4752  0.8127
 2102TIP3   OH227720   2.112   6.235  13.113 -0.1795  0.2311 -0.5114
 2102TIP3    H127721   2.152   6.322  13.125  0.7729 -0.0132 -1.6811
 2102TIP3    H227722   2.164   6.177  13.169 -0.9391  0.4216  0.4218
 2103TIP3   OH227723   6.192   3.362   3.462 -0.3870  0.2447 -0.1907
 2103TIP3    H127724   6.106   3.371   3.502  0.0191  1.0949  0.5091
 2103TIP3    H227725   6.198   3.269   3.440 -0.7662 -0.1981  1.4331
 2104TIP3   OH227726   4.780   0.994   4.105 -0.1455 -0.3145  0.6242
 2104TIP3    H127727   4.834   1.028   4.177  1.7997  1.8039 -1.6179
 2104TIP3    H227728   4.699   1.044   4.110  0.2574  0.3190  0.9330
 2105TIP3   OH227729   6.321   4.514   3.172  0.5100  0.0412  0.1207
 2105TIP3    H127730   6.324   4.604   3.140  1.5530  0.0995  0.3655
 2105TIP3    H227731   6.247   4.513   3.233  0.5565  0.7554  0.1991
 2106TIP3   OH227732   2.583   1.962  14.675 -0.0269  0.1968 -0.4275
 2106TIP3    H127733   2.672   1.927  14.673  0.7842  2.1030 -2.9725
 2106TIP3    H227734   2.595   2.056  14.690 -1.6919  0.3523  0.0949
 2107TIP3   OH227735   4.419   5.952  15.595  0.1555 -0.1302 -0.8462
 2107TIP3    H127736   4.425   5.956  15.691  0.0574 -0.5714 -0.8185
 2107TIP3    H227737   4.483   6.016  15.564  1.5637 -1.3074 -0.5076
 2108TIP3   OH227738   3.144   4.442  16.060 -0.5992  0.0464  0.2930
 2108TIP3    H127739   3.059   4.485  16.070 -0.2785  0.7816 -0.0472
 2108TIP3    H227740   3.207   4.511  16.078 -0.0716 -0.3171 -0.1441
 2109TIP3   OH227741   1.575   1.787  13.708  0.0302 -0.2083 -0.0725
 2109TIP3    H127742   1.669   1.797  13.691  0.2106  1.3447  1.5250
 2109TIP3    H227743   1.552   1.704  13.666  1.7895  0.0606 -1.7365
 2110TIP3   OH227744   2.133   0.113  13.253  0.0175 -0.9105  0.3041
 2110TIP3    H127745   2.133   0.209  13.256 -0.1399 -0.9450  1.9579
 2110TIP3    H227746   2.208   0.091  13.197 -0.9228  0.1700 -1.4952
 2111TIP3   OH227747   6.053   3.921  13.852  0.2499 -0.2854 -0.2120
 2111TIP3    H127748   6.051   3.947  13.944 -1.1117  2.4551 -0.8989
 2111TIP3    H227749   6.133   3.960  13.817  0.0855 -0.1704 -0.4661
 2112TIP3   OH227750   4.156   5.277  16.615 -0.1046  0.4093 -0.1259
 2112TIP3    H127751   4.126   5.227  16.540 -2.2353 -0.2131  1.0427
 2112TIP3    H227752   4.203   5.214  16.669  0.8270  0.6920 -0.5934
 2113TIP3   OH227753   1.016   4.585   5.421 -0.4380  0.2430  0.2703
 2113TIP3    H127754   1.049   4.670   5.392 -0.6200 -0.2120 -1.3361
 2113TIP3    H227755   0.929   4.603   5.457 -0.5151  0.7186 -0.1585
 2114TIP3   OH227756   5.903   0.358   2.927 -0.2530 -0.0336 -0.1042
 2114TIP3    H127757   5.984   0.359   2.875 -0.7319 -1.3399 -0.9015
 2114TIP3    H227758   5.914   0.285   2.988 -0.9967 -0.4881 -0.5045
 2115TIP3   OH227759   2.103   2.121   0.448  0.7813 -0.4931  0.0995
 2115TIP3    H127760   2.022   2.171   0.457  0.9770 -0.0425 -0.6015
 2115TIP3    H227761   2.098   2.055   0.517 -0.0228 -0.2498  0.2817
 2116TIP3   OH227762   2.150   5.421  11.750  0.0683 -0.1121  0.0382
 2116TIP3    H127763   2.090   5.352  11.777 -0.2389 -0.2694 -1.0178
 2116TIP3    H227764   2.228   5.408  11.804 -0.2746 -0.8132  0.3715
 2117TIP3   OH227765   1.642   2.177   6.185 -0.3198 -0.3074 -0.0456
 2117TIP3    H127766   1.642   2.167   6.280  2.2490 -1.5214 -0.0978
 2117TIP3    H227767   1.612   2.092   6.152  0.5472 -0.5232 -0.3076
 2118TIP3   OH227768   4.768   4.478   5.691 -0.2738  0.2860 -0.0268
 2118TIP3    H127769   4.817   4.461   5.611 -1.1388  0.5012 -0.6128
 2118TIP3    H227770   4.775   4.573   5.704  0.7511  0.1312  0.7577
 2119TIP3   OH227771   5.324   4.431   0.405  0.2913  0.0253  0.4784
 2119TIP3    H127772   5.386   4.361   0.382 -0.2955 -0.3295 -0.0644
 2119TIP3    H227773   5.268   4.392   0.472 -0.6085 -0.3540 -0.4610
 2120TIP3   OH227774   4.924   0.087   4.430 -0.1451  0.4973  0.1659
 2120TIP3    H127775   4.855   0.105   4.494  0.3438  0.2114  0.7903
 2120TIP3    H227776   4.997   0.053   4.482 -0.7217 -2.5973 -0.8087
 2121TIP3   OH227777   5.642   4.657   0.453  0.1854 -0.3833  0.0169
 2121TIP3    H127778   5.609   4.588   0.511 -1.0003  0.7438  0.7368
 2121TIP3    H227779   5.701   4.709   0.508  1.1051 -0.8101 -0.5326
 2122TIP3   OH227780   6.755   2.121   1.043 -0.3782  0.5290  0.1405
 2122TIP3    H127781   6.727   2.124   1.135 -1.5344 -0.1296 -0.1796
 2122TIP3    H227782   6.718   2.200   1.005  0.1561  0.8355  0.2395
 2123TIP3   OH227783   1.357   0.604  15.878  0.0741 -0.0482  0.5566
 2123TIP3    H127784   1.298   0.598  15.953 -0.4756 -1.3408  0.0651
 2123TIP3    H227785   1.402   0.519  15.876 -1.2227 -0.7802 -1.5549
 2124TIP3   OH227786   2.032   1.054  16.833  0.1154  0.0901 -0.3408
 2124TIP3    H127787   1.954   1.077  16.883 -0.0090 -0.6822 -0.1675
 2124TIP3    H227788   2.103   1.100  16.878 -0.3048  1.2487 -0.8385
 2125TIP3   OH227789   4.231   1.079   2.035 -0.1363  0.1356 -0.3017
 2125TIP3    H127790   4.294   1.033   1.980 -1.4041 -0.4635 -1.3045
 2125TIP3    H227791   4.217   1.163   1.991  0.1057  0.3578  0.0369
 2126TIP3   OH227792   1.038   0.525  15.214 -0.4695 -0.2845 -0.8163
 2126TIP3    H127793   1.014   0.432  15.206 -1.1987 -0.3535  1.5098
 2126TIP3    H227794   1.132   0.526  15.194 -0.4268 -1.5262 -0.8124
 2127TIP3   OH227795   4.078   2.323  15.351  0.2547 -0.0848 -0.1529
 2127TIP3    H127796   4.059   2.230  15.352 -0.1800 -0.0135  1.5746
 2127TIP3    H227797   4.016   2.360  15.289  2.4191 -1.2530 -3.2893
 2128TIP3   OH227798   4.501   6.527  12.727 -0.2959 -0.3646  0.0684
 2128TIP3    H127799   4.408   6.518  12.746 -0.7218  1.8574 -0.6646
 2128TIP3    H227800   4.511   6.487  12.640 -0.1918 -2.1388  0.8669
 2129TIP3   OH227801   3.870   5.982   3.942  0.3147  0.2402 -0.1167
 2129TIP3    H127802   3.794   5.962   3.996  1.1476  0.6796  1.2736
 2129TIP3    H227803   3.844   6.061   3.893 -0.7209 -0.5964 -0.9853
 2130TIP3   OH227804   5.421   4.275   2.584  0.5884  0.5467 -0.0981
 2130TIP3    H127805   5.447   4.297   2.495 -0.0313  0.6051 -0.2642
 2130TIP3    H227806   5.502   4.246   2.626  0.5106 -1.6149 -1.3174
 2131TIP3   OH227807   4.299   6.547   0.895 -0.2371 -0.2920 -0.5802
 2131TIP3    H127808   4.272   6.473   0.950 -0.5503 -1.1651 -1.8746
 2131TIP3    H227809   4.357   6.598   0.952  0.6265 -1.9415  0.1143
 2132TIP3   OH227810   2.559   0.070  14.745 -0.5359  0.7991  0.4537
 2132TIP3    H127811   2.520  -0.009  14.784 -0.5911  0.9779  0.7577
 2132TIP3    H227812   2.634   0.089  14.800  1.8470 -1.2794 -1.7948
 2133TIP3   OH227813   1.562   3.472   0.298 -0.1555  0.0324 -0.0226
 2133TIP3    H127814   1.491   3.530   0.270  0.1827  1.2104  1.4479
 2133TIP3    H227815   1.627   3.530   0.338  0.2762 -1.3303  1.3618
 2134TIP3   OH227816   5.901   5.229  11.688  0.2131  0.1330  0.3849
 2134TIP3    H127817   5.894   5.325  11.691  1.2077  0.2468 -0.3635
 2134TIP3    H227818   5.885   5.206  11.597 -0.7907 -0.5083  0.7035
 2135TIP3   OH227819   3.226   2.796   3.874  0.4806  0.1290 -0.3348
 2135TIP3    H127820   3.247   2.717   3.825 -0.5132 -0.9085  0.8466
 2135TIP3    H227821   3.183   2.765   3.953  1.3130  1.7920  0.8346
 2136TIP3   OH227822   5.040   3.905  12.811 -0.1210  0.0497 -0.3743
 2136TIP3    H127823   5.001   3.967  12.873 -0.2986 -0.2331 -0.2009
 2136TIP3    H227824   4.979   3.904  12.737  0.6887  1.2855 -1.0937
 2137TIP3   OH227825   3.932   0.014   6.086 -0.0209  0.0322 -0.7031
 2137TIP3    H127826   3.964  -0.016   6.171  0.6423  0.2526 -0.8639
 2137TIP3    H227827   3.867  -0.051   6.060  0.5587 -0.6319 -0.5215
 2138TIP3   OH227828   3.868   2.375  11.037 -0.1030 -0.1948 -0.0319
 2138TIP3    H127829   3.907   2.451  10.993  1.9637 -0.7049  0.8545
 2138TIP3    H227830   3.923   2.301  11.013 -0.2452 -0.8804  1.5927
 2139TIP3   OH227831   3.816   3.205   5.288 -0.3451  0.1900  0.2899
 2139TIP3    H127832   3.849   3.225   5.201 -0.5871  0.3934  0.2421
 2139TIP3    H227833   3.769   3.284   5.314 -1.5013 -0.3852  0.0122
 2140TIP3   OH227834   2.295   4.750   1.304  0.2235 -0.6243 -0.2606
 2140TIP3    H127835   2.382   4.742   1.343  0.3734 -0.2010 -0.5040
 2140TIP3    H227836   2.307   4.811   1.232 -0.4607  0.1513  0.2621
 2141TIP3   OH227837   6.242   5.751  14.805 -0.2081  0.4348 -0.4593
 2141TIP3    H127838   6.265   5.752  14.898  0.9330 -0.4230 -0.7209
 2141TIP3    H227839   6.193   5.832  14.792  0.1592  0.8690  0.7587
 2142TIP3   OH227840   5.472   4.419  12.453  0.2781  0.1880 -0.1996
 2142TIP3    H127841   5.556   4.396  12.415  0.9120 -0.0466  1.2669
 2142TIP3    H227842   5.443   4.340  12.498  0.1629  0.8067  0.8469
 2143TIP3   OH227843   0.227   2.578  16.282 -0.0085  0.4679  0.4148
 2143TIP3    H127844   0.245   2.655  16.228  0.7000 -0.2096 -0.3493
 2143TIP3    H227845   0.171   2.610  16.352  2.0704  2.1622  1.4055
 2144TIP3   OH227846   1.338   2.437  11.635 -0.1150 -0.0158  0.1688
 2144TIP3    H127847   1.417   2.396  11.598  0.0815  1.9837 -1.9037
 2144TIP3    H227848   1.371   2.493  11.705  0.4659  1.2472 -1.0540
 2145TIP3   OH227849   0.323   3.845   5.514  0.1552  0.1380 -0.2343
 2145TIP3    H127850   0.321   3.759   5.472 -0.8307  1.1041 -2.3488
 2145TIP3    H227851   0.234   3.856   5.548  0.2514  0.3516 -0.0539
 2146TIP3   OH227852   5.979   5.527   3.348  0.2894 -0.2919  0.6799
 2146TIP3    H127853   6.056   5.487   3.388 -0.3813 -2.5026 -0.0994
 2146TIP3    H227854   5.906   5.496   3.401 -0.4741 -2.1725 -1.3223
 2147TIP3   OH227855   3.157   5.497  15.464  0.2809  0.0499 -0.4029
 2147TIP3    H127856   3.066   5.502  15.494  0.2813  0.3783 -0.4517
 2147TIP3    H227857   3.185   5.588  15.458  1.5244 -0.0393  2.3968
 2148TIP3   OH227858   2.578   5.387  15.421  0.3230 -0.4469 -0.8485
 2148TIP3    H127859   2.561   5.356  15.332 -0.4309  1.0085 -1.2391
 2148TIP3    H227860   2.628   5.316  15.462  0.2971 -1.3307 -2.2814
 2149TIP3   OH227861   1.730   0.578  14.468  0.1345  0.1791 -0.2881
 2149TIP3    H127862   1.757   0.670  14.459 -2.3442  0.8161 -2.4397
 2149TIP3    H227863   1.754   0.537  14.385  0.3928 -0.9073  0.3017
 2150TIP3   OH227864   2.808   0.145  16.888  0.3394 -0.0230 -0.2871
 2150TIP3    H127865   2.807   0.240  16.880 -2.7041  0.3056  2.2496
 2150TIP3    H227866   2.853   0.128  16.971 -1.8233 -0.4911  0.8582
 2151TIP3   OH227867   5.595   1.775  14.740 -0.3607 -0.4387  0.2737
 2151TIP3    H127868   5.559   1.765  14.828  0.5646 -3.0402  0.4418
 2151TIP3    H227869   5.561   1.700  14.691  1.1379 -0.4370 -0.8463
 2152TIP3   OH227870   6.689   0.997   0.732  0.1224 -0.0625 -0.1293
 2152TIP3    H127871   6.748   0.993   0.808  1.0749 -0.4268 -0.8756
 2152TIP3    H227872   6.601   1.002   0.771  0.6237  0.3121  0.9998
 2153TIP3   OH227873   0.971   2.795   4.051 -0.4129 -0.2164  0.4211
 2153TIP3    H127874   1.050   2.842   4.079  0.5745 -2.1580  1.0653
 2153TIP3    H227875   0.923   2.779   4.132 -0.3371 -0.9763  0.3257
 2154TIP3   OH227876   2.638   0.278   1.253 -0.1229  0.3756 -0.0744
 2154TIP3    H127877   2.625   0.193   1.210  0.3182 -0.2243  0.9250
 2154TIP3    H227878   2.725   0.306   1.224  1.9032 -1.8289  3.1764
 2155TIP3   OH227879   6.574   1.421  16.423  0.1566 -0.0718 -0.7653
 2155TIP3    H127880   6.479   1.429  16.416 -0.1448  0.0420  2.0946
 2155TIP3    H227881   6.609   1.475  16.353 -1.8512 -0.7535 -2.3941
 2156TIP3   OH227882   2.232   3.379  15.003  0.6374  0.0053 -0.1261
 2156TIP3    H127883   2.194   3.353  14.919 -0.2992 -0.1972  0.3349
 2156TIP3    H227884   2.239   3.474  14.997  1.2389 -0.0689 -0.6923
 2157TIP3   OH227885   0.566   2.096  15.638  0.5296  0.6498  0.6948
 2157TIP3    H127886   0.495   2.101  15.574 -0.1204 -0.3325  1.3131
 2157TIP3    H227887   0.522   2.093  15.723  0.8594 -4.7647  1.0401
 2158TIP3   OH227888   5.878   4.289   0.760  0.3207  0.0787  0.3109
 2158TIP3    H127889   5.925   4.348   0.701 -1.1143  2.6172  1.5075
 2158TIP3    H227890   5.790   4.284   0.723  0.1941 -0.6868  0.6866
 2159TIP3   OH227891   0.728   6.058   3.602 -0.2123 -0.2084  0.3604
 2159TIP3    H127892   0.654   6.110   3.572 -1.5657 -0.8375  2.3648
 2159TIP3    H227893   0.768   6.110   3.671  0.0755 -0.6722  0.5484
 2160TIP3   OH227894   0.658   0.929   1.618  0.1678  0.9029  0.3542
 2160TIP3    H127895   0.688   0.844   1.584 -2.8887  0.1728 -0.8578
 2160TIP3    H227896   0.728   0.990   1.596  1.1542 -0.7742 -1.4375
 2161TIP3   OH227897   5.276   5.587  12.756  0.0243  0.3530 -0.4298
 2161TIP3    H127898   5.234   5.652  12.812  0.7683  0.9518 -0.5540
 2161TIP3    H227899   5.348   5.633  12.714  0.3322 -0.4525 -0.8247
 2162TIP3   OH227900   2.415   6.063   1.103 -0.4348 -0.0525  0.2555
 2162TIP3    H127901   2.422   6.137   1.042  1.6026 -0.5064 -0.1069
 2162TIP3    H227902   2.443   6.099   1.187 -1.1650  0.0100  0.4860
 2163TIP3   OH227903   4.195   6.700  15.736  0.3647  0.3347 -0.3420
 2163TIP3    H127904   4.272   6.746  15.772 -0.1084  1.8091 -1.1146
 2163TIP3    H227905   4.172   6.636  15.804  0.7203  1.6409  1.0891
 2164TIP3   OH227906   4.575   3.239   3.049 -0.1171  0.0172 -0.2531
 2164TIP3    H127907   4.650   3.228   3.107 -0.3184 -0.7116 -0.1215
 2164TIP3    H227908   4.501   3.201   3.097 -0.2383 -0.8047 -1.0758
 2165TIP3   OH227909   3.018   4.511   1.965 -0.2240 -0.0752  0.1831
 2165TIP3    H127910   2.924   4.491   1.975 -0.2836 -0.6761 -1.2723
 2165TIP3    H227911   3.062   4.445   2.018 -0.5983 -0.6244 -0.1755
 2166TIP3   OH227912   3.044   1.577   4.772 -0.2869 -0.0032  0.1853
 2166TIP3    H127913   3.061   1.586   4.678 -2.5680 -0.2959 -0.3110
 2166TIP3    H227914   3.084   1.655   4.811  0.1380  0.4472 -1.1075
 2167TIP3   OH227915   3.360   5.613  12.714 -0.5332  0.2005  0.5662
 2167TIP3    H127916   3.387   5.662  12.636 -1.7917  0.0983  0.0534
 2167TIP3    H227917   3.264   5.614  12.712 -0.6171 -2.2927  0.5336
 2168TIP3   OH227918   5.407   3.468  14.933  0.3405  0.7308  0.4484
 2168TIP3    H127919   5.457   3.424  15.001  0.6902 -0.9651 -0.8399
 2168TIP3    H227920   5.473   3.508  14.877  0.0965  1.3800  0.6185
 2169TIP3   OH227921   2.539   3.739   1.753 -0.1828  0.0615 -0.5860
 2169TIP3    H127922   2.598   3.784   1.693  0.8840  0.9631  1.0632
 2169TIP3    H227923   2.552   3.646   1.734  1.1958  0.2746 -0.7878
 2170TIP3   OH227924   6.605   6.091  16.893  0.5654  0.0887 -0.4293
 2170TIP3    H127925   6.559   6.017  16.853 -0.5700  1.3783 -1.6463
 2170TIP3    H227926   6.572   6.096  16.982  2.9607 -2.7003  0.7689
 2171TIP3   OH227927   0.894   2.481   1.265  0.4889  0.0590  0.2972
 2171TIP3    H127928   0.970   2.513   1.217 -0.3794  1.5003 -0.1793
 2171TIP3    H227929   0.853   2.560   1.300 -0.1463 -0.7898  1.5536
 2172TIP3   OH227930   5.664   5.669  14.128  0.0103 -0.4430 -0.1924
 2172TIP3    H127931   5.571   5.688  14.140  0.3302  0.5681  0.9525
 2172TIP3    H227932   5.681   5.594  14.185 -0.1356 -0.7404 -0.5380
 2173TIP3   OH227933   3.807   6.263  11.481 -0.4016 -0.1368  0.4115
 2173TIP3    H127934   3.801   6.356  11.463 -0.5571 -0.2680 -0.2339
 2173TIP3    H227935   3.743   6.223  11.423 -1.0318 -0.5644  1.3710
 2174TIP3   OH227936   3.447   6.442  12.084  0.6305 -0.5278 -0.3451
 2174TIP3    H127937   3.444   6.523  12.134  1.5622 -1.4733  1.3347
 2174TIP3    H227938   3.357   6.411  12.082  0.5839 -0.5035  0.8456
 2175TIP3   OH227939   3.132   4.066  14.174 -0.4193 -0.7238 -0.2217
 2175TIP3    H127940   3.206   4.069  14.113  0.3298 -2.0289  0.5617
 2175TIP3    H227941   3.070   4.130  14.141  1.0705  0.4062 -0.9104
 2176TIP3   OH227942   1.686   1.724  13.413 -0.0906 -0.6488  0.2163
 2176TIP3    H127943   1.753   1.718  13.346 -0.6441 -0.0658 -0.4101
 2176TIP3    H227944   1.634   1.644  13.402  0.2345 -0.8892  0.4137
 2177TIP3   OH227945   4.343   4.891  11.879 -0.3216 -0.2500 -0.0892
 2177TIP3    H127946   4.350   4.799  11.902 -2.6936 -0.4189  0.1981
 2177TIP3    H227947   4.420   4.908  11.824  1.1717 -1.8756  1.3723
 2178TIP3   OH227948   5.682   0.381   1.101  0.2443 -0.2506  0.4580
 2178TIP3    H127949   5.766   0.344   1.074  0.0512  1.3369 -2.7368
 2178TIP3    H227950   5.705   0.466   1.139  0.2000 -0.8832  1.9904
 2179TIP3   OH227951   2.579   3.420   4.674 -0.1456  0.6891  0.2874
 2179TIP3    H127952   2.625   3.494   4.712  0.0944  0.6734  0.0302
 2179TIP3    H227953   2.573   3.355   4.744 -0.1812  0.8737  0.4521
 2180TIP3   OH227954   5.081   3.739  15.906  0.4702  0.2994  0.2690
 2180TIP3    H127955   5.000   3.747  15.855  1.5764  1.6828 -1.4089
 2180TIP3    H227956   5.143   3.796  15.860  1.6998  1.2719  2.9406
 2181TIP3   OH227957   3.765   1.570   6.514  0.5532  1.0199  0.1497
 2181TIP3    H127958   3.727   1.488   6.482  1.0271  1.0058 -0.4062
 2181TIP3    H227959   3.860   1.557   6.505  0.6189  1.7869 -0.3400
 2182TIP3   OH227960   3.520   4.802  16.970 -0.0060 -0.0210  0.3709
 2182TIP3    H127961   3.456   4.760  16.913 -1.0362 -2.1291  2.8947
 2182TIP3    H227962   3.472   4.823  17.049  1.4278  2.5849  0.6707
 2183TIP3   OH227963   3.374   6.070   4.014  0.7392 -0.3560 -0.0575
 2183TIP3    H127964   3.435   6.095   4.083  1.3521  0.3086 -0.8233
 2183TIP3    H227965   3.421   6.004   3.963 -0.2580 -1.9540  0.9879
 2184TIP3   OH227966   3.273   6.738   3.264  0.0966 -0.1400 -0.1980
 2184TIP3    H127967   3.253   6.799   3.335  0.9220 -0.3691  0.2507
 2184TIP3    H227968   3.252   6.652   3.301 -4.0333 -0.0273 -1.8500
 2185TIP3   OH227969   3.099   3.622   0.096 -0.5573  0.3301  0.0012
 2185TIP3    H127970   3.006   3.618   0.074 -2.2661 -0.5613  5.6889
 2185TIP3    H227971   3.111   3.711   0.131  0.3778  0.0764  0.3565
 2186TIP3   OH227972   1.621   6.186  15.453  0.8956 -0.1202  0.4233
 2186TIP3    H127973   1.562   6.249  15.493 -2.1972 -3.1510  1.1514
 2186TIP3    H227974   1.619   6.207  15.359 -1.4093 -0.0616  0.4340
 2187TIP3   OH227975   2.002   0.237   5.864 -0.9944 -0.1127  0.2199
 2187TIP3    H127976   1.951   0.281   5.795 -0.7125 -0.9218 -0.5245
 2187TIP3    H227977   1.935   0.203   5.924 -1.2636  0.1568  0.0814
 2188TIP3   OH227978   6.441   5.094  13.005  0.2322 -0.3094 -0.4518
 2188TIP3    H127979   6.534   5.070  13.001  0.2804 -0.2174  0.0652
 2188TIP3    H227980   6.406   5.045  13.079  0.2518  0.9130  0.3951
 2189TIP3   OH227981   2.276   3.833  11.611 -0.0260 -0.0275  0.2233
 2189TIP3    H127982   2.195   3.828  11.560 -0.7812  1.4931  1.1876
 2189TIP3    H227983   2.279   3.924  11.641  1.8908 -0.1410  0.4737
 2190TIP3   OH227984   3.481   6.375   5.549 -0.3070 -0.3378  0.2487
 2190TIP3    H127985   3.485   6.309   5.481  2.0351  0.3372 -0.3604
 2190TIP3    H227986   3.466   6.326   5.630  1.4211 -1.6549 -0.1818
 2191TIP3   OH227987   3.718   4.377  11.425 -0.3672  0.0598  0.0582
 2191TIP3    H127988   3.743   4.394  11.334 -0.9658  2.0632  0.2241
 2191TIP3    H227989   3.727   4.282  11.435  1.4275  0.0125 -1.5611
 2192TIP3   OH227990   5.504   3.703   1.700  0.1101 -0.0404  0.5313
 2192TIP3    H127991   5.458   3.786   1.690  2.9437  1.4551 -1.5598
 2192TIP3    H227992   5.469   3.665   1.780 -2.8276  2.1117  0.4165
 2193TIP3   OH227993   6.190   2.329  14.808  0.2656  0.0365 -0.0839
 2193TIP3    H127994   6.110   2.329  14.756  0.2999 -0.0345 -0.1385
 2193TIP3    H227995   6.256   2.367  14.751  0.5759 -1.1183 -0.5280
 2194TIP3   OH227996   4.368   0.365  11.987 -0.5229  0.0159 -0.7320
 2194TIP3    H127997   4.376   0.339  12.079 -0.3503  0.3979 -0.6361
 2194TIP3    H227998   4.309   0.300  11.949  0.6564 -1.0717 -0.7391
 2195TIP3   OH227999   3.362   3.705   1.465  0.2339  0.5556 -0.0402
 2195TIP3    H128000   3.412   3.649   1.407  1.2103  1.8200 -0.4749
 2195TIP3    H228001   3.359   3.790   1.421 -1.1338  0.8883  0.6221
 2196TIP3   OH228002   1.766   5.556   5.378 -0.2021  0.0314 -0.6801
 2196TIP3    H128003   1.816   5.626   5.419  0.3995 -0.9022  0.2243
 2196TIP3    H228004   1.783   5.565   5.284  0.6112  0.5230 -0.4893
 2197TIP3   OH228005   0.892   3.080  17.055  0.1163  0.1458  0.1924
 2197TIP3    H128006   0.843   3.148  17.103  2.3618  0.5471  2.0524
 2197TIP3    H228007   0.936   3.030  17.122  1.5254 -0.8071 -1.3731
 2198TIP3   OH228008   2.439   1.887  14.916 -0.3955 -0.7745  0.2475
 2198TIP3    H128009   2.486   1.945  14.857  1.7156 -2.6603 -0.0752
 2198TIP3    H228010   2.347   1.910  14.904  0.1570  0.6715 -1.8020
 2199TIP3   OH228011   4.329   2.849  13.033  0.1995  0.1076 -0.2857
 2199TIP3    H128012   4.342   2.921  13.095 -1.0266  0.2938 -0.2143
 2199TIP3    H228013   4.361   2.883  12.950 -0.3132  0.7264 -0.2398
 2200TIP3   OH228014   5.410   4.996   1.023  0.3839 -0.0488  0.5642
 2200TIP3    H128015   5.372   5.070   1.071 -0.4552 -0.2319  0.1923
 2200TIP3    H228016   5.444   5.035   0.943  0.7405  0.0708  0.7712
 2201TIP3   OH228017   2.502   3.144   3.147  0.4250  0.6385  0.1909
 2201TIP3    H128018   2.417   3.104   3.130 -0.7465  2.8927  0.4542
 2201TIP3    H228019   2.563   3.095   3.091 -1.0703 -0.8447 -0.2104
 2202TIP3   OH228020   5.297   0.758  13.978  0.2635 -0.3424  0.1501
 2202TIP3    H128021   5.237   0.749  13.904  1.1506  0.8809 -0.7616
 2202TIP3    H228022   5.378   0.718  13.947  0.8038  0.6585  0.2429
 2203TIP3   OH228023   0.447   3.012  12.622 -0.3364  0.2781 -0.5383
 2203TIP3    H128024   0.443   3.032  12.716 -0.5326 -0.0198 -0.4810
 2203TIP3    H228025   0.478   2.921  12.619  1.3668  0.8303 -0.8195
 2204TIP3   OH228026   5.318   1.064  15.376 -0.0201 -0.3553  0.0369
 2204TIP3    H128027   5.228   1.047  15.348 -0.9371  1.9158  1.2829
 2204TIP3    H228028   5.334   1.001  15.446 -1.5595  0.6114  1.3633
 2205TIP3   OH228029   4.381   5.219  12.826 -0.1237 -0.1683 -0.5450
 2205TIP3    H128030   4.391   5.300  12.876  2.6751 -0.8986  0.2459
 2205TIP3    H228031   4.337   5.246  12.746  0.5102  2.1042 -0.2036
 2206TIP3   OH228032   6.721   3.392  13.953  0.0637  0.1065  0.6197
 2206TIP3    H128033   6.687   3.441  14.027 -0.1508  0.7372  0.1063
 2206TIP3    H228034   6.769   3.319  13.993 -1.6256 -0.6509  1.3647
 2207TIP3   OH228035   4.680   3.431  16.191 -0.3648 -0.1145  0.1166
 2207TIP3    H128036   4.628   3.501  16.152  0.2465  1.1572  1.4949
 2207TIP3    H228037   4.641   3.418  16.278  0.1270 -0.8334  0.2401
 2208TIP3   OH228038   4.604   4.287   3.147 -0.2515  0.1572  0.3379
 2208TIP3    H128039   4.593   4.192   3.138 -0.0219 -0.0306  1.6740
 2208TIP3    H228040   4.666   4.311   3.078 -1.0788 -0.4835 -0.6572
 2209TIP3   OH228041   3.055   0.517  15.896  0.5499  0.4209  0.0208
 2209TIP3    H128042   3.059   0.497  15.990 -0.6209 -0.4669 -0.0971
 2209TIP3    H228043   3.143   0.549  15.875  1.1974 -0.5193  1.1658
 2210TIP3   OH228044   2.161   1.604   4.647 -0.1391 -0.1754 -0.1775
 2210TIP3    H128045   2.084   1.639   4.693  0.6999  3.2165 -1.0537
 2210TIP3    H228046   2.152   1.636   4.558  1.3279 -1.4649 -0.8302
 2211TIP3   OH228047   3.993   0.561   5.711  0.1090  0.3981 -0.1454
 2211TIP3    H128048   4.072   0.606   5.680  0.6855 -1.0660 -0.9301
 2211TIP3    H228049   3.946   0.538   5.631 -1.7485  2.2353  0.3326
 2212TIP3   OH228050   5.695   6.741  13.528 -0.3048 -0.2174 -0.2724
 2212TIP3    H128051   5.630   6.692  13.577  0.7263 -1.5001 -0.1406
 2212TIP3    H228052   5.709   6.690  13.449 -1.7069  1.6567 -1.8276
 2213TIP3   OH228053   2.187   2.997  12.097 -0.3815  0.0585  0.5881
 2213TIP3    H128054   2.228   3.013  12.182  2.7373 -2.7626 -0.2053
 2213TIP3    H228055   2.229   3.058  12.037  0.6722 -0.8998  0.3169
 2214TIP3   OH228056   1.035   4.094   3.630 -0.2952 -0.1123 -0.5204
 2214TIP3    H128057   0.988   4.142   3.698 -0.2488  1.8232 -1.7614
 2214TIP3    H228058   1.010   4.138   3.549  1.8324 -0.5129 -1.4517
 2215TIP3   OH228059   3.757   3.956   2.008  0.4393 -0.1699 -0.1456
 2215TIP3    H128060   3.719   4.043   2.021 -3.0889 -1.7409  1.0720
 2215TIP3    H228061   3.812   3.943   2.086 -0.1303  0.4228  0.3670
 2216TIP3   OH228062   0.082   6.701   2.750  0.1625 -0.1298 -0.1476
 2216TIP3    H128063   0.145   6.773   2.758 -1.1856  0.8955  2.5904
 2216TIP3    H228064   0.028   6.725   2.674  1.8421 -0.0706 -1.3678
 2217TIP3   OH228065   4.552   5.238  12.277 -0.2028 -0.1477 -0.8082
 2217TIP3    H128066   4.622   5.300  12.256  1.0861 -1.8970 -1.9197
 2217TIP3    H228067   4.533   5.193  12.195 -0.8180 -1.5021  0.0283
 2218TIP3   OH228068   5.120   2.584   1.955  0.9466  0.3198  0.0902
 2218TIP3    H128069   5.200   2.628   1.927  0.8780  0.2143 -0.2857
 2218TIP3    H228070   5.149   2.500   1.989  0.9335 -0.0205 -0.7283
 2219TIP3   OH228071   0.839   1.379  14.732 -0.2151  0.6158 -0.1697
 2219TIP3    H128072   0.897   1.423  14.669 -1.0587  0.9246 -0.7490
 2219TIP3    H228073   0.806   1.450  14.787  1.6566  0.1900  1.6327
 2220TIP3   OH228074   1.289   6.360  15.263 -0.5635  0.0305 -0.2414
 2220TIP3    H128075   1.218   6.417  15.231  0.6471  1.1849 -0.9729
 2220TIP3    H228076   1.299   6.294  15.194 -0.7270  0.0491 -0.2836
 2221TIP3   OH228077   4.516   0.611  15.013  0.6001 -0.3099 -0.3713
 2221TIP3    H128078   4.602   0.620  14.973  0.2806 -1.0380 -1.2393
 2221TIP3    H228079   4.461   0.675  14.968  1.0554  1.4624  1.3970
 2222TIP3   OH228080   0.902   2.112  11.490 -0.3177  0.1592  0.3363
 2222TIP3    H128081   0.942   2.048  11.549 -1.0302  0.1795  0.8387
 2222TIP3    H228082   0.945   2.095  11.405 -1.2557 -1.7269  0.1870
 2223TIP3   OH228083   4.442   5.878   4.028 -0.3257 -0.2364  0.2390
 2223TIP3    H128084   4.438   5.895   3.934 -1.0708 -0.5076  0.2152
 2223TIP3    H228085   4.380   5.807   4.042 -1.9810  1.3450  1.2898
 2224TIP3   OH228086   4.080   0.588  14.828  0.2914  0.1690 -0.0192
 2224TIP3    H128087   3.986   0.576  14.844  0.0823  0.4925 -0.9586
 2224TIP3    H228088   4.085   0.623  14.739  1.3245 -0.1874 -0.1133
 2225TIP3   OH228089   4.892   2.433   2.514  0.2527  0.6378  0.4530
 2225TIP3    H128090   4.823   2.398   2.459  0.6665  1.3266 -0.5377
 2225TIP3    H228091   4.962   2.457   2.453  1.6645 -0.6682  1.4787
 2226TIP3   OH228092   6.159   6.664   0.432  0.0773 -0.1643  0.7731
 2226TIP3    H128093   6.112   6.582   0.418 -2.4445  1.3869 -0.5522
 2226TIP3    H228094   6.137   6.691   0.521 -0.0239 -0.3639  0.8072
 2227TIP3   OH228095   1.909   2.562  11.748  0.4355 -0.1982 -0.0163
 2227TIP3    H128096   1.898   2.493  11.812  4.0794 -0.4413  0.5537
 2227TIP3    H228097   1.936   2.638  11.799  1.5647  0.1404 -1.0799
 2228TIP3   OH228098   6.648   1.615   3.923  0.5086  0.1715  0.6138
 2228TIP3    H128099   6.622   1.636   4.012 -1.5913  1.9400 -0.3227
 2228TIP3    H228100   6.731   1.569   3.932  0.0418 -0.2742  3.4891
 2229TIP3   OH228101   0.621   4.392  15.121  0.3483  0.6441  0.2778
 2229TIP3    H128102   0.542   4.445  15.129 -0.9262 -1.4972  3.3289
 2229TIP3    H228103   0.594   4.303  15.142  3.5515 -0.2233  1.3501
 2230TIP3   OH228104   1.372   1.075  14.374  0.2468  0.2063 -0.4461
 2230TIP3    H128105   1.307   1.119  14.430 -0.5902 -1.0738 -0.3656
 2230TIP3    H228106   1.320   1.035  14.305  1.0898  0.1232 -1.0445
 2231TIP3   OH228107   3.977   2.993  16.041 -0.6473  0.1927  0.5627
 2231TIP3    H128108   3.978   2.980  16.136 -3.2904 -0.4243  0.5798
 2231TIP3    H228109   3.975   2.905  16.005  0.1708  0.4287 -0.0931
 2232TIP3   OH228110   4.975   5.306   6.268 -0.4428  0.1235 -0.3392
 2232TIP3    H128111   5.069   5.290   6.276 -0.6288 -1.3384 -0.7929
 2232TIP3    H228112   4.960   5.312   6.173 -1.0017 -1.1300 -0.3570
 2233TIP3   OH228113   4.607   3.584   2.773  0.2585 -0.0070  0.0274
 2233TIP3    H128114   4.630   3.637   2.696 -1.3672 -1.0863 -1.2856
 2233TIP3    H228115   4.680   3.523   2.783  0.8749  0.6956 -0.1287
 2234TIP3   OH228116   6.226   1.164  12.252  0.3194 -0.4227  0.1948
 2234TIP3    H128117   6.261   1.245  12.216 -2.3443 -0.1618 -2.1411
 2234TIP3    H228118   6.131   1.176  12.250 -0.1594 -3.4875 -0.0104
 2235TIP3   OH228119   6.558   4.055  17.305 -0.7145 -0.6092 -0.4677
 2235TIP3    H128120   6.489   4.105  17.350 -1.6513 -0.5216 -1.9276
 2235TIP3    H228121   6.620   4.121  17.276 -0.4254 -0.6061  0.1381
 2236TIP3   OH228122   5.371   3.627  15.167  0.1873  0.5926 -0.1200
 2236TIP3    H128123   5.465   3.634  15.184  0.4942  1.8049 -2.0096
 2236TIP3    H228124   5.364   3.583  15.083 -1.0707 -1.3200  0.9023
 2237TIP3   OH228125   5.085   2.552  15.038  0.0241  0.1522 -0.4409
 2237TIP3    H128126   5.021   2.601  14.987  1.8006 -0.0771 -3.0828
 2237TIP3    H228127   5.136   2.620  15.083 -0.2099  0.4904 -0.6780
 2238TIP3   OH228128   1.570   5.168  15.652  0.2890  0.3712  0.0884
 2238TIP3    H128129   1.658   5.136  15.632 -0.5617 -2.8544  0.8843
 2238TIP3    H228130   1.516   5.135  15.580 -0.5701  0.5075  0.6575
 2239TIP3   OH228131   5.122   3.172  12.855  0.3618  0.0028 -0.1177
 2239TIP3    H128132   5.077   3.153  12.773  1.0581  2.1301 -1.0716
 2239TIP3    H228133   5.070   3.127  12.922 -0.4181 -1.5075 -1.6568
 2240TIP3   OH228134   3.206   2.284  13.867  0.1751 -0.3097 -0.2435
 2240TIP3    H128135   3.238   2.235  13.942  0.0813  1.6265  1.1236
 2240TIP3    H228136   3.279   2.340  13.842 -0.1292 -0.2289 -0.9801
 2241TIP3   OH228137   5.077   2.450  15.683 -0.6304 -0.2263  0.4885
 2241TIP3    H128138   5.025   2.442  15.603  0.4604  0.7581 -0.3517
 2241TIP3    H228139   5.157   2.402  15.665 -0.3272  0.0915  0.9476
 2242TIP3   OH228140   5.335   2.717   1.764 -0.4256 -0.0700  0.2705
 2242TIP3    H128141   5.269   2.671   1.711 -1.1597  0.8185  0.3801
 2242TIP3    H228142   5.375   2.779   1.703  0.5379 -0.7961  0.1336
 2243TIP3   OH228143   2.114   5.191   3.318  0.0436  0.0401 -0.0879
 2243TIP3    H128144   2.059   5.270   3.315 -1.3422 -0.8752  0.1297
 2243TIP3    H228145   2.096   5.153   3.404  0.7650 -0.4708 -0.1563
 2244TIP3   OH228146   0.444   6.447  13.210  0.2333  0.0123  0.4721
 2244TIP3    H128147   0.356   6.476  13.184 -0.2276  0.8386  2.7284
 2244TIP3    H228148   0.446   6.354  13.185 -0.9482  0.1800 -0.3759
 2245TIP3   OH228149   6.305   2.955  14.777 -0.2508  0.0317 -0.1697
 2245TIP3    H128150   6.387   2.929  14.734 -1.7586 -3.7997 -1.1267
 2245TIP3    H228151   6.330   2.971  14.868  1.5753 -1.0004 -0.4429
 2246TIP3   OH228152   4.552   5.176  13.116 -0.0445 -0.1389  0.0640
 2246TIP3    H128153   4.558   5.216  13.203  0.9182  0.2416 -0.1689
 2246TIP3    H228154   4.462   5.144  13.111 -0.3114  0.4285  0.9415
 2247TIP3   OH228155   2.805   0.282  13.174 -0.1683  0.5894  0.0581
 2247TIP3    H128156   2.785   0.231  13.096 -1.9239  0.7801  0.3328
 2247TIP3    H228157   2.766   0.233  13.246  0.9881  0.6721  0.7681
 2248TIP3   OH228158   4.683   0.394   5.329 -0.3773  0.4835 -0.2013
 2248TIP3    H128159   4.759   0.418   5.382 -0.6731  3.8996 -1.1182
 2248TIP3    H228160   4.610   0.394   5.392 -0.1079  0.2924  0.1165
 2249TIP3   OH228161   3.375   1.272   3.282 -0.3528  0.1567 -0.0867
 2249TIP3    H128162   3.286   1.250   3.308 -1.1035  1.2348 -1.5811
 2249TIP3    H228163   3.405   1.334   3.348 -0.8214 -0.0015  0.2731
 2250TIP3   OH228164   4.519   2.858   4.264  0.1787 -0.6320  0.0267
 2250TIP3    H128165   4.497   2.767   4.245 -1.5165 -0.3309  0.4366
 2250TIP3    H228166   4.547   2.894   4.180  0.0742 -1.3183 -0.3073
 2251TIP3   OH228167   1.334   5.181   0.071 -0.2519  0.2230  0.9075
 2251TIP3    H128168   1.293   5.260   0.037  0.5984  0.3214  0.0714
 2251TIP3    H228169   1.424   5.184   0.038  0.1165 -0.5269  1.7978
 2252TIP3   OH228170   5.015   1.771   2.442 -0.2442 -0.2336  0.5506
 2252TIP3    H128171   5.047   1.819   2.365  1.0144 -0.3224  1.0010
 2252TIP3    H228172   4.927   1.743   2.417 -1.0576  2.2769  0.2477
 2253TIP3   OH228173   0.262   1.856  16.548  0.9427  0.2877 -0.2277
 2253TIP3    H128174   0.182   1.869  16.598 -0.3063  3.0076 -2.6265
 2253TIP3    H228175   0.257   1.767  16.514 -0.1865 -0.1547  1.0572
 2254TIP3   OH228176   3.428   0.063  16.937  0.0412  0.0055 -0.1651
 2254TIP3    H128177   3.452  -0.029  16.947  3.1880  0.4791 -1.9120
 2254TIP3    H228178   3.425   0.077  16.842 -1.8224  1.4366  0.0479
 2255TIP3   OH228179   1.786   4.527  15.687  0.7917 -0.1464 -0.5279
 2255TIP3    H128180   1.758   4.466  15.618 -0.3641 -1.0919  0.7423
 2255TIP3    H228181   1.870   4.492  15.717  0.3465 -0.8937 -0.1117
 2256TIP3   OH228182   0.140   4.271   3.945 -0.0253  0.2854 -0.1363
 2256TIP3    H128183   0.172   4.210   3.878 -1.0593  0.6958 -1.0506
 2256TIP3    H228184   0.179   4.241   4.026  0.1808 -1.0686 -0.7145
 2257TIP3   OH228185   3.127   1.899  15.887 -0.1382 -0.3833 -0.4640
 2257TIP3    H128186   3.111   1.991  15.865  1.0471 -0.3976 -1.5309
 2257TIP3    H228187   3.057   1.876  15.947 -1.4492  0.7483 -1.4892
 2258TIP3   OH228188   2.445   1.421   3.266  1.0430  0.4323 -0.5900
 2258TIP3    H128189   2.504   1.497   3.261 -0.5252  1.7383  0.0059
 2258TIP3    H228190   2.362   1.453   3.231  0.1755 -0.8291  0.2542
 2259TIP3   OH228191   2.209   4.598   4.165  0.0573 -0.0939 -0.5723
 2259TIP3    H128192   2.210   4.541   4.089  0.7026 -0.6603 -0.1475
 2259TIP3    H228193   2.127   4.647   4.157 -0.3218 -0.8058 -1.1343
 2260TIP3   OH228194   0.036   4.372  15.720 -0.2629 -0.0342  0.0954
 2260TIP3    H128195  -0.014   4.452  15.707  1.5083  1.0650 -0.3707
 2260TIP3    H228196   0.116   4.400  15.764  0.7358 -1.4078 -0.7216
 2261TIP3   OH228197   3.551   2.738  12.138  0.1255 -0.1328 -0.3038
 2261TIP3    H128198   3.587   2.816  12.181 -0.0722 -0.6926  0.9216
 2261TIP3    H228199   3.495   2.773  12.069  1.0305  0.7843 -0.6034
 2262TIP3   OH228200   2.268   4.353  14.650 -0.2062  0.1000 -0.1273
 2262TIP3    H128201   2.326   4.423  14.619 -1.1150  0.9960  0.1640
 2262TIP3    H228202   2.267   4.363  14.745 -0.7198 -0.0060 -0.1193
 2263TIP3   OH228203   5.364   1.534   2.261  0.3198 -0.0578  0.3766
 2263TIP3    H128204   5.427   1.569   2.323  1.1385  1.8405 -1.3930
 2263TIP3    H228205   5.312   1.471   2.311  1.7693  0.4215  2.5912
 2264TIP3   OH228206   4.736   6.728  15.313 -0.5194  0.3145 -0.0612
 2264TIP3    H128207   4.739   6.746  15.219 -1.1083 -0.1204 -0.1688
 2264TIP3    H228208   4.651   6.685  15.327  0.3579 -1.3633  0.3672
 2265TIP3   OH228209   2.613   3.260   1.065  0.6446  0.2437 -0.1523
 2265TIP3    H128210   2.643   3.173   1.091  1.7219  0.9012  0.9016
 2265TIP3    H228211   2.565   3.292   1.141  0.1410  0.5312 -0.5857
 2266TIP3   OH228212   3.697   1.511  11.367 -0.1497 -0.8094 -0.1417
 2266TIP3    H128213   3.667   1.517  11.277  0.0037 -0.6233 -0.1822
 2266TIP3    H228214   3.621   1.480  11.416 -1.0207  1.4808  0.0772
 2267TIP3   OH228215   6.430   6.174   1.732  0.4071  0.0034  0.0896
 2267TIP3    H128216   6.523   6.175   1.754  0.7376  0.8140 -1.2389
 2267TIP3    H228217   6.415   6.257   1.687 -0.8766 -0.2960 -0.0720
 2268TIP3   OH228218   4.568   0.386  10.584 -0.5447  0.1832 -0.5334
 2268TIP3    H128219   4.563   0.401  10.490 -0.3827  0.0281 -0.5657
 2268TIP3    H228220   4.622   0.308  10.594 -1.1581 -0.2312 -0.3487
 2269TIP3   OH228221   4.158   0.943  14.078 -0.2638 -0.0214 -0.3378
 2269TIP3    H128222   4.239   0.947  14.129 -0.9565  0.9498  0.7218
 2269TIP3    H228223   4.118   0.859  14.102 -0.9744  0.7729  1.3549
 2270TIP3   OH228224   4.034   0.726   4.812 -0.7963  0.2371 -0.2470
 2270TIP3    H128225   4.068   0.776   4.886  1.4947 -0.3037 -0.8305
 2270TIP3    H228226   4.023   0.637   4.846 -2.5505  0.5747  0.1570
 2271TIP3   OH228227   4.878   5.452  13.773 -0.2375 -0.3505 -0.3252
 2271TIP3    H128228   4.899   5.361  13.754  0.3861 -0.0872 -0.9294
 2271TIP3    H228229   4.949   5.502  13.733 -0.3043  0.3767  0.4304
 2272TIP3   OH228230   4.232   5.665  17.061 -0.1036  0.2100 -0.3624
 2272TIP3    H128231   4.145   5.631  17.080 -0.0876  0.6831  0.5821
 2272TIP3    H228232   4.254   5.719  17.136  0.2469  1.5935 -1.4185
 2273TIP3   OH228233   3.409   5.101   3.603 -0.1728 -0.6404  0.2322
 2273TIP3    H128234   3.361   5.149   3.671  1.1415 -1.7466  2.0336
 2273TIP3    H228235   3.464   5.168   3.561 -0.1404 -0.1396  1.0522
 2274TIP3   OH228236   1.806   3.830  12.303 -0.3515 -0.2289  0.2641
 2274TIP3    H128237   1.867   3.763  12.271 -1.1906 -0.8910  0.0094
 2274TIP3    H228238   1.790   3.805  12.395 -2.8488 -2.1307 -0.5582
 2275TIP3   OH228239   6.279   0.758   6.528  0.7907  0.1422 -0.0362
 2275TIP3    H128240   6.247   0.667   6.525 -2.2480  1.0244  1.5067
 2275TIP3    H228241   6.216   0.803   6.584  2.2032  3.2335 -0.7659
 2276TIP3   OH228242   6.196   1.296   4.627 -0.4261 -0.1512 -0.4177
 2276TIP3    H128243   6.251   1.370   4.655 -2.3651  1.9254 -1.6904
 2276TIP3    H228244   6.107   1.325   4.647 -1.2452 -2.4091 -0.5399
 2277TIP3   OH228245   6.535   5.737  10.507 -0.3406  0.4855  0.6838
 2277TIP3    H128246   6.526   5.829  10.532 -0.2514  0.3730  1.1258
 2277TIP3    H228247   6.619   5.710  10.542  0.3827  0.6733 -0.8121
 2278TIP3   OH228248   2.394   4.847  17.110  0.1819  0.3369 -0.0536
 2278TIP3    H128249   2.384   4.752  17.109  3.0196 -0.0462  0.2691
 2278TIP3    H228250   2.370   4.873  17.199  0.0271 -0.1711  0.0527
 2279TIP3   OH228251   1.419   6.568   4.722 -0.2786 -0.0897  0.4823
 2279TIP3    H128252   1.509   6.556   4.753 -0.1983 -0.3976  0.1367
 2279TIP3    H228253   1.391   6.480   4.695 -0.8944 -0.1097  1.1436
 2280TIP3   OH228254   5.275   1.817   0.488 -0.1150 -0.2030 -0.4131
 2280TIP3    H128255   5.253   1.876   0.416  0.7715 -1.3110 -1.6397
 2280TIP3    H228256   5.277   1.730   0.447 -0.6615 -1.0065  1.1882
 2281TIP3   OH228257   4.827   0.486   2.529 -0.1681  0.5421 -0.5470
 2281TIP3    H128258   4.745   0.445   2.500 -0.6392  0.7827  0.3990
 2281TIP3    H228259   4.847   0.443   2.613  0.7528  0.3855 -0.8365
 2282TIP3   OH228260   4.075   6.783   4.843 -0.4856 -0.1805 -0.4432
 2282TIP3    H128261   4.016   6.717   4.879 -0.7307 -0.6002 -1.5473
 2282TIP3    H228262   4.123   6.817   4.918 -0.4026 -1.5792  0.1691
 2283TIP3   OH228263   6.673   3.493  16.982 -0.0247 -0.5135 -0.0055
 2283TIP3    H128264   6.663   3.529  16.894 -1.6437  1.8887  1.0486
 2283TIP3    H228265   6.722   3.560  17.030  1.7064 -2.2138  0.7493
 2284TIP3   OH228266   0.987   5.882   5.461 -0.6104  0.2129  0.0740
 2284TIP3    H128267   1.079   5.866   5.441 -0.4768 -0.0832  0.8635
 2284TIP3    H228268   0.976   5.977   5.454 -0.2169  0.2598  0.0798
 2285TIP3   OH228269   0.079   1.351   5.074 -0.2213  0.3072 -0.0595
 2285TIP3    H128270   0.004   1.293   5.086  0.4164 -0.3095  1.1939
 2285TIP3    H228271   0.084   1.401   5.155  0.4466  0.6632 -0.3138
 2286TIP3   OH228272   0.223   6.738   0.274  0.0278  0.3179 -0.3851
 2286TIP3    H128273   0.131   6.745   0.250  0.1208  0.4672 -0.6963
 2286TIP3    H228274   0.252   6.829   0.286 -0.4403  0.2266  1.8957
 2287TIP3   OH228275   2.552   2.408  14.918 -0.1111  0.1788  0.0254
 2287TIP3    H128276   2.617   2.371  14.858 -1.2739 -1.1641 -0.4793
 2287TIP3    H228277   2.479   2.347  14.913 -0.5611  0.4753  2.2330
 2288TIP3   OH228278   3.395   6.026   5.541 -0.3034 -0.0761  0.5177
 2288TIP3    H128279   3.364   6.098   5.596 -0.5258  0.5662 -0.4226
 2288TIP3    H228280   3.316   5.990   5.501 -0.4782 -2.3171  2.6368
 2289TIP3   OH228281   6.565   4.800   4.723 -0.0596  0.6521  0.5472
 2289TIP3    H128282   6.564   4.705   4.716  3.8412  0.4982  0.2152
 2289TIP3    H228283   6.567   4.816   4.818  0.2736  0.3553  0.5933
 2290TIP3   OH228284   4.622   2.092   4.025  0.3157 -0.5031  0.7999
 2290TIP3    H128285   4.660   2.075   4.111 -1.2201 -1.1308  1.3968
 2290TIP3    H228286   4.632   2.186   4.013 -0.1711 -0.2698  2.0365
 2291TIP3   OH228287   1.232   1.985   4.727  0.4311  0.0360  0.4811
 2291TIP3    H128288   1.199   1.939   4.650  1.3887 -0.6408  0.4682
 2291TIP3    H228289   1.235   2.077   4.700  0.7650 -0.1968 -0.2947
 2292TIP3   OH228290   4.918   4.954   1.453 -0.1625  0.2496  0.0893
 2292TIP3    H128291   4.892   4.863   1.469 -1.0829  0.7242  1.5183
 2292TIP3    H228292   4.945   4.986   1.539  0.1325  1.3427 -0.3923
 2293TIP3   OH228293   1.779   6.041   4.157 -0.2860  0.6737 -0.3236
 2293TIP3    H128294   1.845   6.091   4.109 -0.9422  1.7363 -0.1273
 2293TIP3    H228295   1.827   5.963   4.187  1.4836  2.3704  1.6018
 2294TIP3   OH228296   5.048   6.286   0.497  0.6263 -0.1160  0.3465
 2294TIP3    H128297   5.122   6.283   0.557 -0.1588 -1.6766  1.3055
 2294TIP3    H228298   4.983   6.226   0.535 -0.6120  0.2030 -1.1363
 2295TIP3   OH228299   6.169   3.915  17.300  0.5142  0.6656 -0.4055
 2295TIP3    H128300   6.210   3.987  17.348  0.5161  1.8519 -2.1217
 2295TIP3    H228301   6.216   3.911  17.217 -0.5011 -0.3203 -0.9605
 2296TIP3   OH228302   3.026   4.663   4.703 -0.0902 -0.0093  0.5082
 2296TIP3    H128303   2.971   4.694   4.775  1.0809 -2.2495  2.5093
 2296TIP3    H228304   2.970   4.603   4.654 -1.0015  1.7880 -0.7317
 2297TIP3   OH228305   4.566   0.088   0.165  0.0169  0.2758  0.0650
 2297TIP3    H128306   4.617   0.103   0.085 -0.2375  1.9456  0.1784
 2297TIP3    H228307   4.587   0.163   0.220 -1.5359  0.3060  0.6576
 2298TIP3   OH228308   2.222   4.816  15.101 -0.8982 -0.1877  0.6008
 2298TIP3    H128309   2.155   4.757  15.136 -1.2420  0.6195  1.3266
 2298TIP3    H228310   2.173   4.879  15.048 -1.1973  2.2526  3.5088
 2299TIP3   OH228311   5.971   1.590  16.743  0.5045 -0.0049 -0.0984
 2299TIP3    H128312   6.000   1.504  16.714 -1.1472 -1.1416  1.3778
 2299TIP3    H228313   5.940   1.575  16.833  0.0704  2.1097  0.1505
 2300TIP3   OH228314   0.217   4.060   4.722  0.2622  0.0797 -0.5157
 2300TIP3    H128315   0.168   4.105   4.791 -0.6858  0.3827 -1.3731
 2300TIP3    H228316   0.184   4.098   4.640  1.5678 -0.0672 -1.1385
 2301TIP3   OH228317   0.080   3.481  13.474 -0.3952 -0.3331  0.1118
 2301TIP3    H128318   0.000   3.479  13.421 -0.2732 -0.3736 -0.0717
 2301TIP3    H228319   0.050   3.504  13.562 -0.4126  1.4797 -0.3156
 2302TIP3   OH228320   1.460   2.600  11.827  0.0574 -0.7070 -0.0651
 2302TIP3    H128321   1.386   2.592  11.888 -0.2507  1.3130 -0.1298
 2302TIP3    H228322   1.537   2.596  11.884 -0.1949 -0.0380  0.3385
 2303TIP3   OH228323   4.888   1.448  12.346  0.2887 -0.2060 -0.0301
 2303TIP3    H128324   4.870   1.494  12.264 -1.0517  1.0564  0.9133
 2303TIP3    H228325   4.912   1.517  12.407  0.8576 -1.0842  0.7551
 2304TIP3   OH228326   1.339   2.796  12.577 -0.2560  0.1710 -0.3639
 2304TIP3    H128327   1.268   2.777  12.516 -0.6931  0.2987  0.0946
 2304TIP3    H228328   1.372   2.710  12.602 -0.7512  0.0787 -0.0064
 2305TIP3   OH228329   6.062   0.127   3.732  0.0370 -0.6589  0.5300
 2305TIP3    H128330   6.000   0.054   3.734  0.8519 -1.4353 -0.9452
 2305TIP3    H228331   6.087   0.140   3.824  1.0711 -3.3245  0.7024
 2306TIP3   OH228332   1.386   2.836   2.741  0.5487  0.4272  0.4271
 2306TIP3    H128333   1.410   2.745   2.722 -0.2085  0.1894  0.5698
 2306TIP3    H228334   1.449   2.888   2.690 -0.7385 -0.1873 -1.9693
 2307TIP3   OH228335   1.424   1.704   1.420  0.3835 -0.1608 -0.2222
 2307TIP3    H128336   1.489   1.644   1.383  0.2852 -0.3814 -0.0402
 2307TIP3    H228337   1.450   1.716   1.511 -0.2638 -0.8643  0.0664
 2308TIP3   OH228338   1.035   2.568  14.166  0.2124  0.2125  0.0461
 2308TIP3    H128339   1.033   2.527  14.253  0.8145  0.8671  0.3729
 2308TIP3    H228340   0.953   2.541  14.126 -0.4008  0.4636  1.0818
 2309TIP3   OH228341   3.585   1.633  16.262 -0.0542  0.3521  0.4665
 2309TIP3    H128342   3.572   1.680  16.180 -1.1625  0.3181  0.6073
 2309TIP3    H228343   3.507   1.577  16.271  1.2776 -1.6695  0.2090
 2310TIP3   OH228344   1.796   1.933   0.494  0.7340 -0.5041 -0.7988
 2310TIP3    H128345   1.730   1.900   0.556 -0.4537 -1.2015 -2.3685
 2310TIP3    H228346   1.800   1.865   0.426  2.8577 -0.3092 -0.9136
 2311TIP3   OH228347   1.443   4.614   1.945 -0.4495 -0.0039  0.6117
 2311TIP3    H128348   1.369   4.578   1.896 -0.1407 -0.0162  0.1491
 2311TIP3    H228349   1.416   4.703   1.967  0.0293  0.5644 -0.9624
 2312TIP3   OH228350   1.803   0.304  16.557 -0.0864  0.9703 -0.4056
 2312TIP3    H128351   1.847   0.240  16.501 -1.9669  0.3548 -1.2488
 2312TIP3    H228352   1.793   0.381  16.502 -0.1467  1.0788 -0.2417
 2313TIP3   OH228353   5.708   5.879  17.139  0.0790  0.5400  0.3488
 2313TIP3    H128354   5.760   5.928  17.075 -0.5108 -0.3672 -0.8518
 2313TIP3    H228355   5.714   5.932  17.219  2.3017  0.8136  0.0867
 2314TIP3   OH228356   4.650   4.331  14.235 -0.3530  0.6002 -0.0903
 2314TIP3    H128357   4.661   4.358  14.143  2.5349  2.3420  0.6447
 2314TIP3    H228358   4.619   4.410  14.279  1.0871  0.6488  0.8887
 2315TIP3   OH228359   2.330   0.011  13.822  0.2861  0.0364 -0.2184
 2315TIP3    H128360   2.293  -0.074  13.844 -1.2602  0.8206  0.4024
 2315TIP3    H228361   2.294   0.031  13.736 -1.7831  1.2932  0.8516
 2316TIP3   OH228362   4.579   2.731  15.769  0.3250 -0.4896  0.1202
 2316TIP3    H128363   4.625   2.669  15.826  0.2169 -1.0627 -0.3973
 2316TIP3    H228364   4.549   2.800  15.827  1.3426 -0.3941  0.5636
 2317TIP3   OH228365   5.743   6.072   5.766  0.1669 -0.2532  0.3401
 2317TIP3    H128366   5.718   5.979   5.760 -0.4119 -0.2893  2.4799
 2317TIP3    H228367   5.662   6.119   5.746  0.4163 -0.2016 -0.5692
 2318TIP3   OH228368   2.169   2.949  13.386 -1.2172  0.3327  0.1730
 2318TIP3    H128369   2.228   2.912  13.451 -1.2445 -1.5259 -0.7862
 2318TIP3    H228370   2.088   2.967  13.434 -0.8434  0.1107  0.8941
 2319TIP3   OH228371   3.473   5.459   2.223 -0.1779 -0.0325  0.0915
 2319TIP3    H128372   3.510   5.533   2.270  0.3195 -0.1862 -0.0492
 2319TIP3    H228373   3.507   5.382   2.270 -1.3304 -0.1717  0.7288
 2320TIP3   OH228374   2.607   1.581  17.224  0.1197 -0.3375 -0.2910
 2320TIP3    H128375   2.572   1.604  17.310  0.0153  0.2412 -0.4815
 2320TIP3    H228376   2.530   1.560  17.171  0.1958 -0.8561 -0.1971
 2321TIP3   OH228377   6.616   1.146  16.480 -0.0977 -0.0733  0.0113
 2321TIP3    H128378   6.554   1.105  16.540 -1.1200  1.9133  0.4018
 2321TIP3    H228379   6.565   1.214  16.435  1.0034 -0.5545 -2.0841
 2322TIP3   OH228380   5.516   5.024   5.546 -0.2917 -0.2540 -0.1781
 2322TIP3    H128381   5.465   5.081   5.604  1.4299  0.7895  0.4109
 2322TIP3    H228382   5.602   5.020   5.588  0.9296  0.2707 -2.4739
 2323TIP3   OH228383   4.714   2.399   1.921  0.5226 -0.2205  0.8087
 2323TIP3    H128384   4.760   2.379   2.003  0.3548 -1.6060  0.5937
 2323TIP3    H228385   4.632   2.350   1.928  0.5096 -0.3538 -0.1936
 2324TIP3   OH228386   4.090   5.489   5.168  0.6679  0.8626  0.1156
 2324TIP3    H128387   4.083   5.429   5.242  0.1024  0.6254 -0.1278
 2324TIP3    H228388   4.111   5.574   5.209  2.5122  0.3242  0.3816
 2325TIP3   OH228389   0.144   3.662   4.657 -0.3475 -0.7257  0.9287
 2325TIP3    H128390   0.065   3.622   4.621 -0.7683  1.1649 -0.3897
 2325TIP3    H228391   0.120   3.753   4.672  1.7474  0.0682 -0.1117
 2326TIP3   OH228392   1.320   0.475  13.514 -0.3026 -0.3578 -1.1620
 2326TIP3    H128393   1.359   0.421  13.583  0.8673  2.6804  0.7435
 2326TIP3    H228394   1.388   0.483  13.448 -0.5548 -1.2978 -1.5576
 2327TIP3   OH228395   4.305   1.246  12.109  0.0646  0.0797 -0.3559
 2327TIP3    H128396   4.241   1.188  12.069 -1.0481  0.3739  0.9203
 2327TIP3    H228397   4.362   1.273  12.037  0.4221 -2.3049 -1.0217
 2328TIP3   OH228398   6.269   0.997   2.207 -0.2430 -0.1674 -0.0524
 2328TIP3    H128399   6.338   0.932   2.196  0.3171  0.2766  0.7115
 2328TIP3    H228400   6.238   0.984   2.296  0.1420  0.8427  0.2493
 2329TIP3   OH228401   4.224   3.906   4.874 -0.0158  0.1193  0.4077
 2329TIP3    H128402   4.189   3.975   4.818  0.7689  0.0525 -0.1836
 2329TIP3    H228403   4.305   3.943   4.910 -1.2190  0.7360  2.7129
 2330TIP3   OH228404   3.179   1.451  12.208  0.1879 -0.6385  0.5133
 2330TIP3    H128405   3.138   1.418  12.288  1.8694 -3.5144  0.3230
 2330TIP3    H228406   3.264   1.407  12.204  1.6668  2.0297 -1.1389
 2331TIP3   OH228407   1.940   6.743   3.744 -0.0778 -0.1045 -0.1442
 2331TIP3    H128408   1.851   6.708   3.750 -0.0691 -0.1734 -0.4023
 2331TIP3    H228409   1.943   6.810   3.811 -0.6774  0.6566 -0.8473
 2332TIP3   OH228410   2.255   2.024  12.359  0.1858 -0.3593  0.3234
 2332TIP3    H128411   2.255   2.054  12.450 -1.7608 -1.6086  0.8035
 2332TIP3    H228412   2.193   1.951  12.358  0.7106 -0.8522 -1.8742
 2333TIP3   OH228413   3.948   4.646  12.805 -0.2694  0.0057 -0.3271
 2333TIP3    H128414   4.027   4.698  12.792 -1.0902  0.7546 -2.8337
 2333TIP3    H228415   3.891   4.701  12.858  0.5736 -0.2385  0.8647
 2334TIP3   OH228416   5.542   5.386   0.238 -0.3206  0.0463 -0.0649
 2334TIP3    H128417   5.594   5.310   0.215 -0.5157 -0.1314  0.0763
 2334TIP3    H228418   5.474   5.391   0.171  0.0523  0.4560 -0.4230
 2335TIP3   OH228419   6.253   4.931  16.438 -0.3734  0.4645 -0.5435
 2335TIP3    H128420   6.282   4.940  16.529 -1.7544  0.6024 -0.0950
 2335TIP3    H228421   6.169   4.885  16.444  0.6635 -1.8069 -1.9354
 2336TIP3   OH228422   2.466   0.342   2.554  0.2800 -0.0459 -0.3066
 2336TIP3    H128423   2.488   0.250   2.535  0.4004 -0.0143 -0.3257
 2336TIP3    H228424   2.521   0.365   2.629  0.6130  0.1533 -0.6033
 2337TIP3   OH228425   6.104   1.147  11.726 -0.3692  0.1604  0.9059
 2337TIP3    H128426   6.093   1.076  11.790 -0.9388 -0.0998  0.5292
 2337TIP3    H228427   6.022   1.147  11.676  0.3879 -0.2078 -0.3915
 2338TIP3   OH228428   6.779   1.200  11.956  0.0690  0.0590 -0.2329
 2338TIP3    H128429   6.766   1.117  12.002 -1.0078 -0.3185 -1.1623
 2338TIP3    H228430   6.691   1.231  11.936  0.4711  1.0686 -0.5336
 2339TIP3   OH228431   6.680   3.454   2.212 -0.2653  0.0488 -0.2750
 2339TIP3    H128432   6.613   3.488   2.153  0.8015 -0.5002 -1.8608
 2339TIP3    H228433   6.632   3.436   2.294 -1.7221  1.1007 -0.8464
 2340TIP3   OH228434   4.779   0.947  11.898  0.2362  0.4935  0.2634
 2340TIP3    H128435   4.830   0.908  11.827  2.1565  0.3912  1.6149
 2340TIP3    H228436   4.737   1.024  11.859  0.5322 -0.0521 -1.1722
 2341TIP3   OH228437   3.937   4.293  12.415  0.0679  0.0299 -0.5110
 2341TIP3    H128438   3.871   4.227  12.437  1.6652 -1.0925  1.1913
 2341TIP3    H228439   3.931   4.357  12.485 -0.7852  1.2343 -1.6266
 2342TIP3   OH228440   6.773   4.023   0.432 -0.0765  0.8165 -0.2739
 2342TIP3    H128441   6.793   4.063   0.347  0.0870 -0.3607 -0.8100
 2342TIP3    H228442   6.686   4.057   0.454 -0.8304 -0.0651 -1.6960
 2343TIP3   OH228443   4.640   3.722   4.267 -0.5571  0.3070 -0.1605
 2343TIP3    H128444   4.718   3.668   4.261  0.1767  1.3507 -0.3504
 2343TIP3    H228445   4.607   3.708   4.356  0.5432  0.7619  0.3452
 2344TIP3   OH228446   5.118   2.045   5.438 -0.8047 -0.3774 -0.0506
 2344TIP3    H128447   5.161   2.012   5.517 -3.4317 -0.2765  1.5691
 2344TIP3    H228448   5.150   1.990   5.367  0.9515 -1.0836  1.2294
 2345TIP3   OH228449   5.323   6.537  14.710  0.0241  0.6715  0.4802
 2345TIP3    H128450   5.240   6.493  14.731 -0.1958  0.7677 -0.1515
 2345TIP3    H228451   5.330   6.529  14.615  0.7545  0.6464  0.5369
 2346TIP3   OH228452   2.938   5.288   5.785  0.1695 -0.3038 -0.0937
 2346TIP3    H128453   2.854   5.250   5.760  0.0671  1.4544 -2.7496
 2346TIP3    H228454   2.998   5.263   5.715  0.9674  1.3594 -0.0519
 2347TIP3   OH228455   1.513   5.766  17.057 -0.3021  0.5850 -0.0653
 2347TIP3    H128456   1.572   5.779  17.132  0.0278 -1.1614  0.0154
 2347TIP3    H228457   1.568   5.784  16.981 -0.0181  0.2123  0.0500
 2348TIP3   OH228458   2.342   0.120  15.090  0.5647 -0.3765  0.0803
 2348TIP3    H128459   2.427   0.076  15.097 -0.1927 -1.6119  2.3900
 2348TIP3    H228460   2.316   0.105  14.999  1.1537 -3.2731  0.2860
 2349TIP3   OH228461   5.436   2.704   5.135  0.3970 -0.6014  0.7897
 2349TIP3    H128462   5.374   2.725   5.205 -0.3696 -0.6009  0.1118
 2349TIP3    H228463   5.522   2.718   5.176 -0.0351  1.3527  1.1622
 2350TIP3   OH228464   6.685   5.649   0.924  0.1181  0.2567  0.0137
 2350TIP3    H128465   6.603   5.673   0.880  1.0363 -1.4032 -2.8427
 2350TIP3    H228466   6.660   5.581   0.986 -0.8991  1.0644  0.5221
 2351TIP3   OH228467   0.926   1.583  12.045  1.0164 -0.2267 -0.0635
 2351TIP3    H128468   0.876   1.622  11.974  0.0631 -1.4222 -0.0811
 2351TIP3    H228469   0.898   1.491  12.046  2.3781 -0.6647  0.6640
 2352TIP3   OH228470   1.156   5.982   1.565 -0.1531  0.5454 -0.2077
 2352TIP3    H128471   1.098   6.036   1.620 -1.0653 -0.2293 -0.3818
 2352TIP3    H228472   1.109   5.973   1.483  0.6946  0.7448 -0.7289
 2353TIP3   OH228473   4.006   0.395  16.957  0.6523  0.7652 -0.1036
 2353TIP3    H128474   3.937   0.335  16.985  0.7879  0.5738 -0.1836
 2353TIP3    H228475   4.065   0.402  17.032 -0.0893  1.8674  0.4130
 2354TIP3   OH228476   0.241   0.042   3.009 -0.1027 -0.2460 -0.2590
 2354TIP3    H128477   0.251   0.101   2.934 -1.5288 -0.8858 -0.9878
 2354TIP3    H228478   0.147   0.032   3.019  0.0979 -1.4925  0.5827
 2355TIP3   OH228479   5.663   0.291   5.474 -0.2390  0.4532 -0.0041
 2355TIP3    H128480   5.621   0.342   5.543 -0.2026  0.2908  0.1360
 2355TIP3    H228481   5.602   0.220   5.455 -0.6016  0.9296 -0.6696
 2356TIP3   OH228482   5.090   6.189   4.307  0.4133  0.7007  0.3424
 2356TIP3    H128483   4.995   6.200   4.300 -0.0303 -2.6388 -0.2486
 2356TIP3    H228484   5.107   6.180   4.401 -0.1362 -0.4492  0.3458
 2357TIP3   OH228485   2.100   4.930  11.915 -0.4746 -0.2857 -0.2645
 2357TIP3    H128486   2.054   4.906  11.834 -1.2920 -1.3427  0.4837
 2357TIP3    H228487   2.150   4.852  11.938  0.5017  0.3326 -0.2375
 2358TIP3   OH228488   4.195   4.859   1.271 -0.3099 -0.9138  0.0385
 2358TIP3    H128489   4.151   4.789   1.317 -0.0181  0.3551  2.3811
 2358TIP3    H228490   4.125   4.921   1.248 -0.2491 -0.7422  0.3089
 2359TIP3   OH228491   2.192   3.693   4.747 -0.2611  0.0986 -0.6673
 2359TIP3    H128492   2.259   3.660   4.688 -1.5298 -0.9819 -1.5495
 2359TIP3    H228493   2.109   3.672   4.704 -1.2070  0.0472  1.0795
 2360TIP3   OH228494   1.277   0.657   4.904  0.6829  0.0562  0.0491
 2360TIP3    H128495   1.332   0.608   4.843 -1.1326 -1.8520 -0.1843
 2360TIP3    H228496   1.286   0.611   4.987  0.1822  0.3047  0.2471
 2361TIP3   OH228497   2.635   2.682   4.493  0.0292  0.5940 -0.1647
 2361TIP3    H128498   2.625   2.776   4.505  2.0966  0.7126  1.2618
 2361TIP3    H228499   2.546   2.647   4.496 -0.9965  2.6529 -2.8449
 2362TIP3   OH228500   2.917   3.518   5.004  0.6748 -0.2413 -0.0316
 2362TIP3    H128501   2.877   3.435   4.977  0.3339 -0.3772  0.8859
 2362TIP3    H228502   2.865   3.585   4.959 -0.3677 -0.4335  0.8574
 2363TIP3   OH228503   5.694   3.212  12.091  0.0789  0.0309  0.5066
 2363TIP3    H128504   5.605   3.230  12.123  0.3185  2.1911  0.1197
 2363TIP3    H228505   5.704   3.117  12.100 -2.3743 -0.3153  0.2864
 2364TIP3   OH228506   3.529   2.196   0.704  0.1311  0.1838  0.2474
 2364TIP3    H128507   3.445   2.195   0.749  0.1136  3.6005  0.5328
 2364TIP3    H228508   3.531   2.280   0.658  2.6453 -0.5928 -1.2787
 2365TIP3   OH228509   2.927   1.721   6.858  0.3590  0.1223  0.5504
 2365TIP3    H128510   2.996   1.716   6.792  0.3154  0.2410  0.4945
 2365TIP3    H228511   2.886   1.635   6.858  1.3627 -0.3783  1.5211
 2366TIP3   OH228512   1.666   5.598  13.675  0.0225  0.7694  0.5194
 2366TIP3    H128513   1.662   5.503  13.662  0.3273  0.7094  0.8559
 2366TIP3    H228514   1.624   5.612  13.760 -1.8607  1.1453 -0.4215
 2367TIP3   OH228515   5.616   0.564  10.264 -0.1736 -0.4250 -0.0951
 2367TIP3    H128516   5.594   0.658  10.263  0.3996 -0.2873 -0.7009
 2367TIP3    H228517   5.541   0.523  10.307 -1.6650  0.0161 -2.0927
 2368TIP3   OH228518   0.157   1.327  12.921 -0.1177 -0.4538 -0.2404
 2368TIP3    H128519   0.129   1.243  12.886  0.3174 -1.1605  1.0472
 2368TIP3    H228520   0.125   1.392  12.858 -1.8483 -1.4549 -0.4275
 2369TIP3   OH228521   4.681   2.784  11.784 -0.2210 -0.7361  0.2885
 2369TIP3    H128522   4.646   2.794  11.873 -0.3085 -0.9284  0.2762
 2369TIP3    H228523   4.609   2.810  11.727  0.7167  2.2646  0.2886
 2370TIP3   OH228524   4.664   6.449   0.860  0.3736 -0.0943 -0.2967
 2370TIP3    H128525   4.748   6.486   0.834  0.5616 -0.9382 -0.9374
 2370TIP3    H228526   4.601   6.483   0.796  0.5708 -0.9497 -0.9730
 2371TIP3   OH228527   1.265   4.681   0.872 -0.4681 -0.5440 -0.3522
 2371TIP3    H128528   1.199   4.627   0.915 -2.5520  1.0484 -1.3629
 2371TIP3    H228529   1.235   4.687   0.781  1.2226  0.0432 -0.8985
 2372TIP3   OH228530   0.388   0.077  15.880 -0.4713  0.3405  0.0468
 2372TIP3    H128531   0.374  -0.015  15.906 -2.6234  0.1808 -1.3886
 2372TIP3    H228532   0.342   0.127  15.948  0.9348  0.4323  0.9834
 2373TIP3   OH228533   4.079   1.105  15.714  0.0463  0.3803  0.1929
 2373TIP3    H128534   4.049   1.106  15.623 -0.7115 -1.9460  0.3540
 2373TIP3    H228535   4.172   1.079  15.707  0.0988  0.6026  0.0597
 2374TIP3   OH228536   4.519   4.724   4.711  0.0806 -0.4263 -0.0903
 2374TIP3    H128537   4.509   4.776   4.791  2.6564  1.0892 -0.6482
 2374TIP3    H228538   4.452   4.758   4.652  0.2584  0.7292  0.3413
 2375TIP3   OH228539   6.422   2.088   4.350 -0.0906  0.2677  0.1563
 2375TIP3    H128540   6.461   2.003   4.370 -0.6521  0.3894  1.9670
 2375TIP3    H228541   6.398   2.125   4.435 -0.7218  1.8361 -0.6423
 2376TIP3   OH228542   3.280   6.404  13.027  0.0919 -0.4454  0.4796
 2376TIP3    H128543   3.351   6.467  13.017 -0.2698  0.0922  1.2113
 2376TIP3    H228544   3.213   6.451  13.076 -1.8567 -0.0486 -2.3155
 2377TIP3   OH228545   0.189   2.265   0.149 -0.5336  0.3024  0.4296
 2377TIP3    H128546   0.165   2.266   0.242  0.5052 -1.9944  0.7922
 2377TIP3    H228547   0.252   2.194   0.141  0.3239  1.2231 -1.8507
 2378TIP3   OH228548   2.891   5.937  12.479  0.1994  0.1844 -0.3853
 2378TIP3    H128549   2.876   6.021  12.436  0.5572  0.6001  0.2896
 2378TIP3    H228550   2.830   5.877  12.436  0.3416  0.6498 -1.2721
 2379TIP3   OH228551   2.655   4.729   2.287  0.2992 -0.3271  0.3963
 2379TIP3    H128552   2.608   4.722   2.204  1.2158  0.3096 -0.1994
 2379TIP3    H228553   2.732   4.782   2.267  0.5832 -0.2217  1.6419
 2380TIP3   OH228554   4.819   1.217   0.040 -0.6035 -0.0902 -0.2863
 2380TIP3    H128555   4.881   1.287   0.059  0.3315 -1.1558  0.7716
 2380TIP3    H228556   4.733   1.258   0.049 -0.0963  1.4274 -1.8249
 2381TIP3   OH228557   4.930   4.614  12.676 -0.1584 -0.1594 -0.3998
 2381TIP3    H128558   4.968   4.684  12.728 -0.5519 -0.2236 -0.0197
 2381TIP3    H228559   4.977   4.535  12.703 -0.2140 -0.1584 -0.3026
 2382TIP3   OH228560   0.918   5.717   2.714  0.1031  0.1924  0.1102
 2382TIP3    H128561   0.995   5.693   2.765  0.9886  0.0088 -1.2566
 2382TIP3    H228562   0.897   5.806   2.743  0.0181 -0.2330  1.4169
 2383TIP3   OH228563   5.283   1.622  15.260  0.7067 -0.7436 -0.0272
 2383TIP3    H128564   5.297   1.528  15.262  1.6542 -0.6340 -0.5878
 2383TIP3    H228565   5.366   1.659  15.292  0.6716 -0.0909 -0.6635
 2384TIP3   OH228566   4.897   2.117  11.694  0.0389 -0.0468  0.5716
 2384TIP3    H128567   4.986   2.136  11.721  0.2050  0.1976 -0.1200
 2384TIP3    H228568   4.849   2.199  11.706  0.4187  0.4552 -1.0525
 2385TIP3   OH228569   2.354   1.864  11.007  0.1862 -0.5612  0.1359
 2385TIP3    H128570   2.260   1.862  11.025 -0.1113 -2.3603 -1.2463
 2385TIP3    H228571   2.383   1.774  11.024  1.4604 -0.2501 -0.3031
 2386TIP3   OH228572   0.129   2.142  12.182 -0.6999  0.4640  0.3590
 2386TIP3    H128573   0.042   2.131  12.143 -0.1796 -3.7793 -0.0941
 2386TIP3    H228574   0.183   2.175  12.110 -0.4790 -4.1621 -2.0197
 2387TIP3   OH228575   3.008   1.264  12.451  0.3499 -1.5183  0.2450
 2387TIP3    H128576   2.951   1.338  12.432  1.8427 -0.4203 -0.0963
 2387TIP3    H228577   3.018   1.265  12.546  3.7549  1.4913  0.0875
 2388TIP3   OH228578   0.634   1.944  16.307  0.0696 -0.5378  0.1599
 2388TIP3    H128579   0.592   2.014  16.356 -0.6522 -0.4250 -0.5921
 2388TIP3    H228580   0.688   1.897  16.371 -0.8141 -0.3676  1.0339
 2389TIP3   OH228581   5.207   6.491  17.278 -0.1298 -0.4506 -0.0369
 2389TIP3    H128582   5.251   6.437  17.212 -1.3423  0.8638 -2.0022
 2389TIP3    H228583   5.257   6.572  17.280 -1.2589  0.2942 -0.8622
 2390TIP3   OH228584   5.117   3.438  15.347  0.2101 -0.4171  0.0580
 2390TIP3    H128585   5.112   3.534  15.353 -0.3200 -0.3976 -0.6527
 2390TIP3    H228586   5.093   3.408  15.435  0.7772  0.1080  0.4054
 2391TIP3   OH228587   2.261   0.834  12.848 -0.2073 -0.2547  0.1582
 2391TIP3    H128588   2.211   0.859  12.926  1.1484  1.0564  0.6557
 2391TIP3    H228589   2.313   0.758  12.876 -0.5792 -0.5036  0.1789
 2392TIP3   OH228590   2.130   4.822   5.377 -0.4337  0.1962 -0.1593
 2392TIP3    H128591   2.166   4.840   5.290  0.7094 -1.6440 -0.1166
 2392TIP3    H228592   2.035   4.830   5.365 -0.2218  3.1279 -0.7525
 2393TIP3   OH228593   4.181   0.408  17.211 -0.3907 -0.5507  0.3262
 2393TIP3    H128594   4.149   0.474  17.272 -2.5053 -0.5274 -0.7292
 2393TIP3    H228595   4.203   0.333  17.267 -2.1950 -0.5128  1.1556
 2394TIP3   OH228596   4.906   4.447  14.018 -0.0758  0.7621  0.6011
 2394TIP3    H128597   4.954   4.371  13.984 -0.6214  0.4993  0.4061
 2394TIP3    H228598   4.822   4.445  13.972 -0.4612  0.9391  1.2914
 2395TIP3   OH228599   2.154   5.067  16.706  0.1765  0.2820  0.5320
 2395TIP3    H128600   2.170   4.973  16.719 -0.1665  0.2483  0.7475
 2395TIP3    H228601   2.059   5.076  16.720  0.1122  0.5627 -0.0934
 2396TIP3   OH228602   1.366   6.130   4.826 -0.3699  0.3961 -0.2280
 2396TIP3    H128603   1.347   6.096   4.738 -1.5321 -0.3056  0.2754
 2396TIP3    H228604   1.424   6.065   4.865 -1.8077 -0.5779  0.3783
 2397TIP3   OH228605   3.553   0.167  14.410 -0.3746 -0.0965  0.5695
 2397TIP3    H128606   3.543   0.146  14.503 -0.9590 -0.0368  0.5198
 2397TIP3    H228607   3.590   0.087  14.371  0.3869  0.0614  0.9435
 2398TIP3   OH228608   1.420   1.572   5.125  0.2559  0.1603  0.5661
 2398TIP3    H128609   1.504   1.588   5.168  0.1518  2.7448  0.0143
 2398TIP3    H228610   1.418   1.635   5.053 -1.3046 -1.2558 -0.7163
 2399TIP3   OH228611   2.712   5.586   4.068 -0.1493  0.8345 -0.0489
 2399TIP3    H128612   2.766   5.507   4.076 -1.2331  0.0863  0.2085
 2399TIP3    H228613   2.730   5.618   3.980  0.2213  0.2223 -0.2049
 2400TIP3   OH228614   4.278   5.799   0.981 -0.7664  0.6035 -0.0944
 2400TIP3    H128615   4.218   5.780   1.053  0.7608 -0.1236  1.0667
 2400TIP3    H228616   4.365   5.780   1.017  0.0333 -0.1601 -2.2649
 2401TIP3   OH228617   0.589   3.802   0.969 -0.1971 -0.2348 -0.4369
 2401TIP3    H128618   0.547   3.847   0.896  0.9583  0.7278 -0.5374
 2401TIP3    H228619   0.551   3.714   0.968 -0.4158 -0.1498 -2.0087
 2402TIP3   OH228620   6.633   6.529  13.501  0.5763  0.4220  0.0579
 2402TIP3    H128621   6.703   6.552  13.562  0.2074  0.0598  0.6292
 2402TIP3    H228622   6.673   6.466  13.442  0.9668  0.8538 -0.1372
 2403TIP3   OH228623   0.077   0.191   3.927 -0.3694 -0.0430 -0.0734
 2403TIP3    H128624   0.086   0.254   3.856 -2.2282  0.5261  0.1429
 2403TIP3    H228625   0.052   0.109   3.884  1.3980 -0.5092 -0.2933
 2404TIP3   OH228626   4.649   6.701   1.172  0.4230 -0.3806  0.1526
 2404TIP3    H128627   4.637   6.606   1.160  1.2434 -0.2100 -2.7275
 2404TIP3    H228628   4.579   6.741   1.121  1.3340  0.5395 -0.4173
 2405TIP3   OH228629   5.269   5.831   4.494  0.3721  0.4514 -0.4063
 2405TIP3    H128630   5.355   5.861   4.522  0.0942  0.5660  0.3280
 2405TIP3    H228631   5.207   5.892   4.535 -0.0726  0.2253 -0.7306
 2406TIP3   OH228632   5.791   4.342   5.038 -0.6218  0.2669  0.0194
 2406TIP3    H128633   5.712   4.315   4.991 -1.3629  0.7067  1.0000
 2406TIP3    H228634   5.810   4.269   5.097  1.8264 -1.5006 -2.6713
 2407TIP3   OH228635   2.677   5.511  17.043  0.0272 -0.5191  0.4989
 2407TIP3    H128636   2.610   5.535  16.979  0.3021 -1.8836 -0.3509
 2407TIP3    H228637   2.629   5.471  17.115 -0.2968  1.1438  1.2503
 2408TIP3   OH228638   6.673   3.295  13.067 -0.3127 -0.2726  0.2481
 2408TIP3    H128639   6.714   3.224  13.117  1.0199  1.0548  1.1427
 2408TIP3    H228640   6.594   3.317  13.117 -1.1898 -1.6481 -0.4920
 2409TIP3   OH228641   2.435   1.057   5.756 -0.3036  0.1850  0.0307
 2409TIP3    H128642   2.481   1.118   5.813 -0.5423  0.5264 -0.1413
 2409TIP3    H228643   2.408   1.109   5.681 -0.3375 -0.1757 -0.2097
 2410TIP3   OH228644   6.693   5.081   5.467 -1.0116 -0.2064 -0.2623
 2410TIP3    H128645   6.652   4.995   5.455  1.3870 -1.4128 -0.5577
 2410TIP3    H228646   6.740   5.073   5.550 -0.5794  0.7356 -0.4051
 2411TIP3   OH228647   1.463   3.592   4.278 -0.2183 -0.1224  0.1227
 2411TIP3    H128648   1.537   3.640   4.314 -0.2242 -0.5009  0.6537
 2411TIP3    H228649   1.467   3.506   4.321 -1.7779  0.3144  1.2386
 2412TIP3   OH228650   2.790   4.142  13.864 -0.0176  0.5263 -0.3612
 2412TIP3    H128651   2.776   4.063  13.812  1.3736 -0.1727  0.2477
 2412TIP3    H228652   2.861   4.188  13.820  1.7014 -0.4472  1.1943
 2413TIP3   OH228653   0.169   4.403  13.844 -0.0525 -0.7862 -0.0199
 2413TIP3    H128654   0.167   4.308  13.842 -0.1265 -0.7784 -1.7312
 2413TIP3    H228655   0.166   4.429  13.752  0.7292  0.8530  0.3789
 2414TIP3   OH228656   4.186   2.420   6.016  0.3528 -0.5330 -0.0406
 2414TIP3    H128657   4.199   2.418   6.111  0.9431 -0.1445 -0.1009
 2414TIP3    H228658   4.096   2.451   6.004  1.2120  2.5069  0.3914
 2415TIP3   OH228659   6.274   4.119   4.390 -0.7230 -0.0337 -0.4975
 2415TIP3    H128660   6.244   4.101   4.479  0.2183 -0.4389 -0.2520
 2415TIP3    H228661   6.227   4.056   4.336  0.1548 -1.1304 -0.0301
 2416TIP3   OH228662   4.275   0.782  14.583 -0.2452 -0.2520 -0.0604
 2416TIP3    H128663   4.231   0.710  14.538 -1.1336  1.4055 -2.0139
 2416TIP3    H228664   4.368   0.763  14.573 -0.4133 -2.4265  1.7942
 2417TIP3   OH228665   2.382   2.691   6.038  0.0806 -0.3843 -0.1073
 2417TIP3    H128666   2.453   2.653   6.091 -0.8038 -2.3994 -0.2905
 2417TIP3    H228667   2.302   2.663   6.082 -0.6490  0.7229 -0.6808
 2418TIP3   OH228668   0.491   4.263   0.521  0.5779 -0.4525  0.1604
 2418TIP3    H128669   0.402   4.277   0.490  0.4078 -1.7317  0.0167
 2418TIP3    H228670   0.539   4.233   0.444  1.3023  0.7926  0.0930
 2419TIP3   OH228671   6.241   6.150  17.108 -0.2478 -0.1690 -0.4691
 2419TIP3    H128672   6.285   6.153  17.193 -0.3240  1.9652 -0.4629
 2419TIP3    H228673   6.219   6.241  17.089 -0.4642 -0.6324 -2.6692
 2420TIP3   OH228674   2.974   2.988  12.204  0.3262 -0.2885 -0.1889
 2420TIP3    H128675   2.898   3.032  12.166 -0.3047 -1.7967 -0.7571
 2420TIP3    H228676   2.954   2.982  12.297  0.0405 -0.0815 -0.2363
 2421TIP3   OH228677   6.452   3.387   3.453 -0.2510 -0.2906  0.3800
 2421TIP3    H128678   6.479   3.375   3.362 -1.2349 -2.0978  0.2766
 2421TIP3    H228679   6.357   3.374   3.451 -0.5105  1.2178  1.4441
 2422TIP3   OH228680   4.895   2.125   1.909  0.5635 -0.2648  0.0740
 2422TIP3    H128681   4.889   2.177   1.989 -0.5735  0.1447 -0.2456
 2422TIP3    H228682   4.834   2.052   1.923  0.5372 -0.3206 -0.3151
 2423TIP3   OH228683   5.538   4.215   3.738 -0.0668 -0.1761 -0.0406
 2423TIP3    H128684   5.498   4.264   3.810  1.2730  1.1747 -0.1722
 2423TIP3    H228685   5.484   4.237   3.661 -0.3639 -0.1089  0.1868
 2424TIP3   OH228686   0.347   6.760  13.741  0.0266  0.1663  0.2609
 2424TIP3    H128687   0.326   6.839  13.692 -0.6062 -0.7769 -1.0340
 2424TIP3    H228688   0.304   6.773  13.826  0.6336  1.5575  0.3837
 2425TIP3   OH228689   3.115   1.881  11.670 -0.1197 -0.7000  0.5523
 2425TIP3    H128690   3.022   1.903  11.668 -0.6099 -2.6243 -0.0851
 2425TIP3    H228691   3.132   1.859  11.762 -0.8974 -2.4714  0.3237
 2426TIP3   OH228692   0.970   1.772  12.827 -0.4241  0.9584 -0.3920
 2426TIP3    H128693   1.010   1.791  12.742  0.8441 -1.5538 -0.4260
 2426TIP3    H228694   0.908   1.701  12.809  1.6438 -1.3780  1.0780
 2427TIP3   OH228695   3.169   0.112   1.204 -0.1738 -0.0909  0.5624
 2427TIP3    H128696   3.131   0.199   1.218  0.0654  0.0872  0.1271
 2427TIP3    H228697   3.264   0.126   1.210 -0.0876 -0.1266 -0.5107
 2428TIP3   OH228698   2.917   1.810  16.037  0.2337 -0.2959 -0.2053
 2428TIP3    H128699   2.825   1.787  16.025 -0.6750  2.5050  0.7360
 2428TIP3    H228700   2.936   1.789  16.128 -0.2257  1.3599  0.2935
 2429TIP3   OH228701   3.050   2.774   3.393  0.5503  0.4987  0.4145
 2429TIP3    H128702   2.991   2.699   3.379  0.8962  0.4037 -0.6576
 2429TIP3    H228703   3.070   2.772   3.486  0.3806 -0.6218  0.4434
 2430TIP3   OH228704   1.363   3.872   4.092 -0.4088 -0.5295  0.7281
 2430TIP3    H128705   1.328   3.825   4.016  0.9309 -2.2432  1.1029
 2430TIP3    H228706   1.452   3.840   4.101 -0.4475 -0.1934  2.8899
 2431TIP3   OH228707   5.963   5.973  14.040 -0.3959 -0.2187 -0.2026
 2431TIP3    H128708   5.868   5.982  14.054 -0.3048  1.4916 -0.4694
 2431TIP3    H228709   6.002   6.045  14.090  0.6312  0.0621 -1.3461
 2432TIP3   OH228710   0.347   5.774  13.789 -0.2180  0.5353  0.7660
 2432TIP3    H128711   0.335   5.860  13.750 -0.3463  0.2957  0.2599
 2432TIP3    H228712   0.417   5.786  13.853 -0.7114  1.1635  1.1897
 2433TIP3   OH228713   2.396   0.610   5.343 -0.4864 -0.4171 -0.3345
 2433TIP3    H128714   2.337   0.685   5.339  0.4318  0.5359  2.0034
 2433TIP3    H228715   2.481   0.645   5.316  0.2984 -0.1163  2.2958
 2434TIP3   OH228716   5.783   4.921   6.228 -0.6452  0.3121  0.0414
 2434TIP3    H128717   5.753   4.979   6.158 -0.0748  0.7969  0.1842
 2434TIP3    H228718   5.706   4.906   6.282 -1.0625  0.0188 -0.6352
 2435TIP3   OH228719   0.838   5.005   6.022  0.0740  0.2926  0.0610
 2435TIP3    H128720   0.869   5.036   6.106 -1.9770  0.6431  0.7410
 2435TIP3    H228721   0.816   4.913   6.036  1.3833 -0.1406 -0.5898
 2436TIP3   OH228722   1.021   3.354  11.863  0.2182  0.2348  0.4563
 2436TIP3    H128723   0.975   3.373  11.945 -0.7508 -2.2401  0.5794
 2436TIP3    H228724   1.111   3.336  11.890 -0.0885 -0.5389  0.9919
 2437TIP3   OH228725   5.067   3.157  13.427 -0.5033  0.0964 -1.0938
 2437TIP3    H128726   5.005   3.124  13.491  2.5205 -1.5185  1.2295
 2437TIP3    H228727   5.108   3.233  13.469 -0.1826  0.5204 -2.1305
 2438TIP3   OH228728   2.450   3.574  15.220 -0.8440 -0.0353 -0.0772
 2438TIP3    H128729   2.386   3.606  15.156 -1.9493  1.4843  1.6732
 2438TIP3    H228730   2.397   3.539  15.292  0.2228  1.2258  1.4062
 2439TIP3   OH228731   2.136   4.592  14.157 -0.3223  0.3024  0.1687
 2439TIP3    H128732   2.054   4.550  14.130  0.1757 -0.6628  0.1031
 2439TIP3    H228733   2.142   4.574  14.251 -0.7265  1.3335  0.3995
 2440TIP3   OH228734   6.601   3.876   3.838 -0.1888  0.2673 -0.2788
 2440TIP3    H128735   6.546   3.807   3.875  0.5323 -0.2626 -0.1965
 2440TIP3    H228736   6.544   3.953   3.839 -1.1649 -0.4226 -0.8195
 2441TIP3   OH228737   3.924   2.133  13.012  0.1061 -0.0639  0.0495
 2441TIP3    H128738   3.882   2.213  13.044 -0.8802 -0.8702  0.8126
 2441TIP3    H228739   4.016   2.158  12.998  0.2018  0.7750  1.9204
 2442TIP3   OH228740   2.410   4.759  10.876  0.0388 -0.7823  0.0104
 2442TIP3    H128741   2.378   4.847  10.895 -0.1269 -0.9701  0.6007
 2442TIP3    H228742   2.332   4.710  10.849  0.4930 -0.0501 -3.0597
 2443TIP3   OH228743   3.877   3.654  10.871  0.2664 -0.5152  0.4879
 2443TIP3    H128744   3.830   3.627  10.950  1.0001 -1.2202  0.6919
 2443TIP3    H228745   3.815   3.711  10.825 -1.2897 -2.3817  0.1128
 2444TIP3   OH228746   2.947   5.995  11.719  0.0191 -0.0122  0.3251
 2444TIP3    H128747   2.893   5.999  11.640 -0.1999 -0.8200  0.4208
 2444TIP3    H228748   2.953   5.901  11.738  0.9157  0.1124  0.6876
 2445TIP3   OH228749   2.902   0.025  12.601 -0.0244 -0.1846 -0.3025
 2445TIP3    H128750   2.933  -0.027  12.527 -2.6468  1.4064 -2.7380
 2445TIP3    H228751   2.815  -0.010  12.619  0.3732 -0.1962  1.7472
 2446TIP3   OH228752   4.719   2.103   0.070 -0.2581  0.5630 -0.2387
 2446TIP3    H128753   4.687   2.037   0.009  2.2774 -1.0681  0.0549
 2446TIP3    H228754   4.777   2.158   0.018  1.5151 -0.5239  0.5021
 2447TIP3   OH228755   0.351   1.536  12.536 -0.5544  0.1687  0.0574
 2447TIP3    H128756   0.307   1.564  12.456 -2.5796  0.9445  1.3608
 2447TIP3    H228757   0.323   1.599  12.603  0.5709 -0.8097  1.5261
 2448TIP3   OH228758   0.968   0.986   4.269 -0.0197 -0.0931 -0.5039
 2448TIP3    H128759   0.902   0.975   4.201 -0.1207  1.2099 -0.6421
 2448TIP3    H228760   1.052   0.972   4.224 -0.1290 -0.1550 -0.6869
 2449TIP3   OH228761   6.209   5.739  13.432  0.1398  0.5345  0.0526
 2449TIP3    H128762   6.173   5.821  13.465  0.7099  1.1517 -0.8022
 2449TIP3    H228763   6.299   5.738  13.463  0.3057  0.5271 -0.4116
 2450TIP3   OH228764   0.661   1.598   2.495 -0.2064  0.2877 -0.0322
 2450TIP3    H128765   0.646   1.607   2.589 -2.2456 -0.0352 -0.2844
 2450TIP3    H228766   0.714   1.674   2.471 -0.0397  0.6072  1.2956
 2451TIP3   OH228767   3.136   2.926  16.939  0.2072 -0.5202 -0.0655
 2451TIP3    H128768   3.076   2.985  16.984  0.0051 -1.3846  0.8550
 2451TIP3    H228769   3.106   2.925  16.849 -0.8766 -0.5731  0.2849
 2452TIP3   OH228770   6.655   1.436  14.560  0.3875 -0.1482 -0.0152
 2452TIP3    H128771   6.561   1.425  14.545  0.4230  0.4610 -0.7444
 2452TIP3    H228772   6.690   1.462  14.475  1.0637  0.6213  0.4854
 2453TIP3   OH228773   6.690   0.240  16.774  0.4851 -0.5857 -0.2723
 2453TIP3    H128774   6.599   0.219  16.792  0.1634  0.9415  0.0064
 2453TIP3    H228775   6.722   0.281  16.855  1.8776 -2.4076  0.1818
 2454TIP3   OH228776   2.575   4.395   1.792  0.0860  0.1005  0.3242
 2454TIP3    H128777   2.517   4.325   1.823 -0.0032  0.1639  0.2983
 2454TIP3    H228778   2.663   4.357   1.799  0.1034  0.2598  1.0436
 2455TIP3   OH228779   1.597   5.584  12.140  0.5043  0.2805 -0.2999
 2455TIP3    H128780   1.527   5.617  12.197 -1.7965 -0.7508 -2.3461
 2455TIP3    H228781   1.659   5.657  12.134  0.1995  0.8762  2.3899
 2456TIP3   OH228782   1.476   3.742  15.535 -0.3704  0.2706  0.2785
 2456TIP3    H128783   1.445   3.762  15.446 -0.7857 -1.0239  0.1028
 2456TIP3    H228784   1.400   3.755  15.591 -0.3906  0.1044  0.2918
 2457TIP3   OH228785   3.756   1.379  15.980  0.2542  0.0730 -0.5686
 2457TIP3    H128786   3.774   1.389  15.887  2.4517 -2.6436 -0.5413
 2457TIP3    H228787   3.711   1.295  15.988 -1.6144  1.0997  0.7249
 2458TIP3   OH228788   4.587   1.815  10.791  0.0257 -0.3228  0.3795
 2458TIP3    H128789   4.546   1.901  10.803 -1.4373 -0.6385 -1.7342
 2458TIP3    H228790   4.665   1.832  10.738 -0.0218 -0.2315  0.3387
 2459TIP3   OH228791   2.325   4.638  13.038 -0.4649 -0.1174  0.3188
 2459TIP3    H128792   2.298   4.634  13.130 -0.6472  0.8144  0.3104
 2459TIP3    H228793   2.281   4.563  12.997  1.9417 -2.4071  1.5475
 2460TIP3   OH228794   3.722   3.473   1.314  0.4015 -0.1680  0.3742
 2460TIP3    H128795   3.794   3.464   1.251 -0.0034 -1.5015  0.0759
 2460TIP3    H228796   3.740   3.556   1.358  1.8259 -0.2080 -0.0684
 2461TIP3   OH228797   4.428   6.042  13.125  0.7458 -0.0254 -0.3800
 2461TIP3    H128798   4.340   6.013  13.149  1.0458 -1.5839 -1.0129
 2461TIP3    H228799   4.417   6.131  13.094 -0.4509  0.1345  0.4577
 2462TIP3   OH228800   4.398   1.623  13.055 -0.1346  0.4042  0.3113
 2462TIP3    H128801   4.320   1.679  13.062 -0.6710 -0.2859  0.0166
 2462TIP3    H228802   4.418   1.623  12.961 -2.8750 -3.4188 -0.5505
 2463TIP3   OH228803   2.995   3.847  16.584 -0.5946 -0.2152  0.0591
 2463TIP3    H128804   3.026   3.936  16.603  0.9691 -0.6887 -0.1370
 2463TIP3    H228805   2.900   3.856  16.578 -0.4906  1.4004  0.2790
 2464TIP3   OH228806   1.542   5.011   4.954 -0.3653  0.4258 -0.2963
 2464TIP3    H128807   1.564   5.062   4.877 -0.2028 -0.2425 -0.6998
 2464TIP3    H228808   1.468   4.957   4.927  0.8350 -1.1483 -0.5644
 2465TIP3   OH228809   1.803   0.520  14.221  0.5605  0.1530 -0.2003
 2465TIP3    H128810   1.735   0.528  14.154 -0.0048  1.0437  0.4540
 2465TIP3    H228811   1.885   0.526  14.174  0.1681  1.3821 -0.7593
 2466TIP3   OH228812   6.408   0.302  16.846  0.5892 -0.1566 -0.0670
 2466TIP3    H128813   6.370   0.370  16.791 -0.6241 -0.5069  0.2876
 2466TIP3    H228814   6.451   0.349  16.917  0.7033  0.2649 -0.4158
 2467TIP3   OH228815   1.149   4.277   4.923  0.0860 -0.4021  0.3141
 2467TIP3    H128816   1.091   4.234   4.861 -1.2440 -0.2970  1.4353
 2467TIP3    H228817   1.166   4.211   4.990  1.3764 -0.4679 -0.0528
 2468TIP3   OH228818   0.265   5.211   2.072  0.1917  0.7713 -0.4775
 2468TIP3    H128819   0.180   5.167   2.066  1.1671 -1.0177 -3.0193
 2468TIP3    H228820   0.279   5.226   2.166 -2.5316  0.3965  0.0467
 2469TIP3   OH228821   3.940   2.151   3.108  0.3895 -0.5267  0.1175
 2469TIP3    H128822   3.950   2.056   3.103  0.8089 -0.4275 -3.1594
 2469TIP3    H228823   3.879   2.173   3.037  0.7229  1.6892  0.4365
 2470TIP3   OH228824   4.746   0.404   4.241  0.0427  0.0775 -0.4164
 2470TIP3    H128825   4.796   0.352   4.178 -0.5201 -0.2236 -0.6181
 2470TIP3    H228826   4.810   0.466   4.277  0.8089 -0.9427  0.0593
 2471TIP3   OH228827   0.028   0.066  17.121 -0.3839 -0.7886  0.1620
 2471TIP3    H128828   0.064   0.013  17.049  1.2096  0.7071 -0.2120
 2471TIP3    H228829  -0.020   0.003  17.176 -0.7058 -2.1615 -1.5882
 2472TIP3   OH228830   1.548   5.521   4.050  0.0404 -0.5355  0.5313
 2472TIP3    H128831   1.614   5.483   3.991  1.4248  1.0397  0.9716
 2472TIP3    H228832   1.599   5.558   4.122 -1.3108  0.8636  0.8301
 2473TIP3   OH228833   6.372   6.202  11.271  0.2471 -0.2192 -0.4210
 2473TIP3    H128834   6.444   6.158  11.316  0.1467 -0.2860 -0.3237
 2473TIP3    H228835   6.303   6.208  11.337  0.4057  0.4485 -0.3157
 2474TIP3   OH228836   5.887   5.619  16.222  0.1308 -0.4211  0.1779
 2474TIP3    H128837   5.878   5.652  16.132 -0.3569  1.2390  0.7921
 2474TIP3    H228838   5.819   5.552  16.229  0.2920 -0.6979 -0.7444
 2475TIP3   OH228839   1.365   0.665  13.894 -0.0236  0.1554 -0.1256
 2475TIP3    H128840   1.391   0.656  13.802  1.1862  0.4759  0.1717
 2475TIP3    H228841   1.272   0.641  13.895 -0.3501  1.2571 -1.6081
 2476TIP3   OH228842   5.322   0.022  11.714 -0.0961 -0.1770  0.0285
 2476TIP3    H128843   5.404  -0.025  11.733  0.3707  1.1537  1.5686
 2476TIP3    H228844   5.302   0.068  11.796 -0.9030  1.7095 -1.1677
 2477TIP3   OH228845   0.420   4.544  11.726 -0.0215 -0.5964  0.3222
 2477TIP3    H128846   0.340   4.575  11.768 -0.5672  1.1611 -1.8347
 2477TIP3    H228847   0.480   4.618  11.730 -0.0446 -0.4170 -1.7623
 2478TIP3   OH228848   4.222   1.094   2.560 -0.1530  0.5804 -0.1141
 2478TIP3    H128849   4.177   1.030   2.614 -1.7286  1.0840 -0.7710
 2478TIP3    H228850   4.277   1.041   2.502 -0.8525 -0.1456 -0.1375
 2479TIP3   OH228851   4.155   4.559   4.471  0.9725 -0.2821  0.2236
 2479TIP3    H128852   4.242   4.569   4.433  1.1800  2.1855  1.1665
 2479TIP3    H228853   4.156   4.613   4.549 -1.5075  0.0824  0.1050
 2480TIP3   OH228854   3.457   4.850   3.361  0.1660  0.5988 -0.3891
 2480TIP3    H128855   3.520   4.893   3.418  0.2915  0.6915 -0.5953
 2480TIP3    H228856   3.424   4.919   3.304  0.5320  0.3873 -0.8693
 2481TIP3   OH228857   1.704   3.408  16.558  0.3380 -0.3131  0.4500
 2481TIP3    H128858   1.697   3.317  16.587 -0.0260 -1.1728 -2.1056
 2481TIP3    H228859   1.751   3.404  16.475 -0.3614  1.7696 -0.1147
 2482TIP3   OH228860   5.809   2.219  13.297  0.1767 -0.0781 -0.4406
 2482TIP3    H128861   5.757   2.214  13.377  0.1363  1.2230 -0.3595
 2482TIP3    H228862   5.745   2.216  13.226 -0.4129  3.9499 -0.3325
 2483TIP3   OH228863   5.108   0.292   6.276 -0.7251 -0.2455  0.0251
 2483TIP3    H128864   5.014   0.297   6.297 -0.7584 -2.0691  0.4433
 2483TIP3    H228865   5.147   0.249   6.352  0.5373  0.8323  0.0176
 2484TIP3   OH228866   3.036   5.583  13.593  0.1421 -0.2424 -0.9281
 2484TIP3    H128867   2.972   5.653  13.600  1.3337  0.7453  1.0828
 2484TIP3    H228868   3.005   5.529  13.520 -3.8436 -0.7795  0.9091
 2485TIP3   OH228869   0.104   2.067   6.769  0.1986  0.6362  0.0497
 2485TIP3    H128870   0.037   2.113   6.717 -1.0488 -1.1394 -0.0097
 2485TIP3    H228871   0.057   2.036   6.846  1.4281  0.9645  0.9561
 2486TIP3   OH228872   4.258   3.987  11.983  0.2924  0.3078 -0.3078
 2486TIP3    H128873   4.346   4.005  11.949 -0.1769 -1.6618 -2.7499
 2486TIP3    H228874   4.209   4.068  11.966  1.3500  1.0848  0.2171
 2487TIP3   OH228875   5.583   6.433  15.895  0.1750  0.6099  0.0169
 2487TIP3    H128876   5.659   6.386  15.930  0.4479  1.0383  0.0167
 2487TIP3    H228877   5.563   6.498  15.962 -0.9682 -0.2937  0.5795
 2488TIP3   OH228878   1.268   3.723   3.840  0.0218 -0.2309 -0.5978
 2488TIP3    H128879   1.203   3.714   3.910 -0.3863 -1.1993 -1.0837
 2488TIP3    H228880   1.327   3.649   3.852  0.3632 -0.0020 -0.8497
 2489TIP3   OH228881   3.089   4.643   0.928 -0.8378  0.3292 -0.1419
 2489TIP3    H128882   3.101   4.550   0.945 -2.6523  0.1747  0.5339
 2489TIP3    H228883   3.177   4.681   0.937  0.1644 -1.4717 -1.7000
 2490TIP3   OH228884   6.242   5.088  14.861  0.2823  0.8573 -0.3148
 2490TIP3    H128885   6.282   5.069  14.946 -1.5512  0.3022  0.4677
 2490TIP3    H228886   6.210   5.178  14.869  1.2386  1.2731 -0.9126
 2491TIP3   OH228887   6.612   2.337   5.713 -0.4460 -0.4242 -0.1526
 2491TIP3    H128888   6.536   2.373   5.759  0.0827  1.9228 -0.9917
 2491TIP3    H228889   6.669   2.305   5.783 -0.9723  0.3430  0.6453
 2492TIP3   OH228890   0.315   1.064  16.412  0.0224  0.5351  0.0767
 2492TIP3    H128891   0.227   1.033  16.392  0.2172  1.1276 -1.9140
 2492TIP3    H228892   0.302   1.151  16.449 -0.2932 -0.0900  1.4889
 2493TIP3   OH228893   6.073   3.529  16.750 -0.2779  0.3546  0.0286
 2493TIP3    H128894   6.115   3.559  16.830  1.5774  0.0587 -0.7954
 2493TIP3    H228895   6.044   3.609  16.706  1.2476  0.7381 -0.3363
 2494TIP3   OH228896   1.877   0.230  12.971  0.0797 -0.4281  0.0425
 2494TIP3    H128897   1.875   0.311  13.022  0.1447 -1.0143  0.9968
 2494TIP3    H228898   1.935   0.249  12.898 -1.2816  0.9535 -0.7452
 2495TIP3   OH228899   4.751   6.172   5.049  0.2942 -0.8866 -0.0121
 2495TIP3    H128900   4.707   6.110   5.108 -0.2690  0.3781  0.9631
 2495TIP3    H228901   4.682   6.201   4.989 -0.1042  0.5488  1.0573
 2496TIP3   OH228902   5.663   4.138  12.130  0.3411  0.0125 -0.0250
 2496TIP3    H128903   5.679   4.081  12.055  0.8172  0.2273 -0.0880
 2496TIP3    H228904   5.683   4.085  12.206  0.3898 -0.0357 -0.0709
 2497TIP3   OH228905   3.847   5.775   1.830  0.3571 -0.3273 -0.0851
 2497TIP3    H128906   3.898   5.725   1.766  0.0858 -1.6804  0.7109
 2497TIP3    H228907   3.805   5.708   1.884  1.0489  0.7551  1.8727
 2498TIP3   OH228908   0.690   2.081   0.173  0.6007 -0.5406 -0.2774
 2498TIP3    H128909   0.665   2.059   0.263  0.2254 -0.6038 -0.3915
 2498TIP3    H228910   0.775   2.039   0.160  1.5704  1.0356  0.6637
 2499TIP3   OH228911   6.227   2.401   4.810  0.2202  0.0253 -0.2062
 2499TIP3    H128912   6.220   2.413   4.905 -1.2540 -2.4846  0.0826
 2499TIP3    H228913   6.139   2.376   4.783  0.1348  2.5497 -2.6162
 2500TIP3   OH228914   6.435   0.588  13.629 -0.0682 -0.0509  0.9247
 2500TIP3    H128915   6.482   0.642  13.693 -0.3180  1.6531 -0.2670
 2500TIP3    H228916   6.351   0.631  13.618  0.1261 -0.0434 -0.8473
 2501TIP3   OH228917   1.484   1.412   2.131 -0.2328  0.4420 -0.4167
 2501TIP3    H128918   1.476   1.386   2.222  0.8515  1.0908 -0.1269
 2501TIP3    H228919   1.458   1.504   2.129 -1.5752  0.0773 -1.0091
 2502TIP3   OH228920   5.671   0.676   1.500  0.0726 -0.1872  0.0088
 2502TIP3    H128921   5.662   0.585   1.528 -1.0159  0.5644  2.4298
 2502TIP3    H228922   5.680   0.725   1.582  4.5943  1.5919 -1.2822
 2503TIP3   OH228923   2.559   4.576  11.072 -0.3236 -0.0364  0.0258
 2503TIP3    H128924   2.643   4.540  11.100  0.4991  1.2980 -0.6157
 2503TIP3    H228925   2.577   4.669  11.057 -2.2624  0.5683  1.2105
 2504TIP3   OH228926   4.071   2.973   5.942  0.0522 -0.1790  0.8189
 2504TIP3    H128927   4.111   2.912   5.880  2.3251  1.3616  0.6352
 2504TIP3    H228928   3.998   2.924   5.980 -0.1605 -1.8787 -1.5570
 2505TIP3   OH228929   3.934   2.681   1.306 -0.0223  0.2410 -0.4445
 2505TIP3    H128930   4.002   2.704   1.243 -2.7358  2.0086 -3.0003
 2505TIP3    H228931   3.934   2.585   1.306  1.9685  0.1955 -0.8692
 2506TIP3   OH228932   5.479   4.554   0.071  0.1371 -0.1166 -0.0534
 2506TIP3    H128933   5.445   4.468   0.045 -0.8184 -0.0869  1.0240
 2506TIP3    H228934   5.402   4.603   0.098  0.9927  0.0213  2.3168
 2507TIP3   OH228935   6.022   3.442  15.824 -0.4155 -0.0374 -0.3045
 2507TIP3    H128936   5.986   3.459  15.737 -0.9874 -1.9061 -0.4860
 2507TIP3    H228937   6.008   3.523  15.872 -2.0422  0.3471 -1.3387
 2508TIP3   OH228938   1.373   4.019   3.372 -0.5420 -0.1920 -0.1220
 2508TIP3    H128939   1.299   4.004   3.431 -0.8460 -0.7381 -0.6279
 2508TIP3    H228940   1.442   4.053   3.428 -1.2184  0.4481  0.3404
 2509TIP3   OH228941   1.087   4.022  11.032 -0.1913  0.3101  0.1275
 2509TIP3    H128942   1.137   4.065  10.962 -0.2774 -0.2334 -0.2713
 2509TIP3    H228943   1.068   4.093  11.094  0.6127  0.6284  0.0259
 2510TIP3   OH228944   5.091   1.102   4.011 -0.5606 -0.5128  0.1873
 2510TIP3    H128945   5.069   1.011   3.988  0.9292 -1.2903  1.6159
 2510TIP3    H228946   5.136   1.095   4.095  0.4973  1.4482 -0.1554
 2511TIP3   OH228947   0.425   2.020   0.778 -0.1066 -0.1582 -0.2695
 2511TIP3    H128948   0.370   2.051   0.707  0.5136 -1.4168 -1.3453
 2511TIP3    H228949   0.369   1.960   0.827 -0.6148  0.9060  0.4929
 2512TIP3   OH228950   3.612   0.995  16.336  0.1437  0.1475 -0.0347
 2512TIP3    H128951   3.644   1.038  16.415  0.6665  0.2308 -0.2873
 2512TIP3    H228952   3.517   1.010  16.337  0.2378  0.7595  0.2067
 2513TIP3   OH228953   2.781   4.109   4.807 -0.5770 -0.1603 -0.8728
 2513TIP3    H128954   2.734   4.034   4.770 -0.6196  0.2561 -1.6845
 2513TIP3    H228955   2.839   4.138   4.737  0.0051  0.0899 -0.2963
 2514TIP3   OH228956   4.399   4.283   4.776  0.8772  0.1555  0.2725
 2514TIP3    H128957   4.354   4.362   4.804 -1.1906 -0.6272 -0.6523
 2514TIP3    H228958   4.423   4.239   4.858 -0.7119  0.2692  0.8398
 2515TIP3   OH228959   2.913   6.256   0.108  0.1905 -0.2918 -0.0101
 2515TIP3    H128960   2.870   6.316   0.169  1.1852  0.5462 -0.1177
 2515TIP3    H228961   2.995   6.299   0.085  0.1215 -0.8835 -1.4672
 2516TIP3   OH228962   3.494   0.355  11.348  0.1947 -0.6309 -0.0664
 2516TIP3    H128963   3.574   0.391  11.308 -1.0296  1.4556 -0.8311
 2516TIP3    H228964   3.424   0.411  11.314 -1.2117 -0.0166  3.4377
 2517TIP3   OH228965   0.965   2.476  15.753  0.8858 -0.0494  0.0312
 2517TIP3    H128966   0.895   2.434  15.704  0.6216  0.7737 -0.3077
 2517TIP3    H228967   0.954   2.445  15.843 -0.1846  0.4084  0.0681
 2518TIP3   OH228968   3.173   1.606  13.806 -0.2377 -0.7082 -0.2708
 2518TIP3    H128969   3.121   1.560  13.872 -0.4939 -0.1375 -0.0638
 2518TIP3    H228970   3.198   1.688  13.849 -2.3165  0.7209 -1.6211
 2519TIP3   OH228971   1.452   2.756  16.576  0.3888 -0.1990  0.1108
 2519TIP3    H128972   1.468   2.671  16.617 -1.3521 -0.8713 -0.5385
 2519TIP3    H228973   1.530   2.772  16.523  1.1126 -0.9653  0.9185
 2520TIP3   OH228974   3.945   4.810   3.382 -0.4106 -0.0319  0.0091
 2520TIP3    H128975   3.911   4.735   3.431  0.2112 -1.5359 -1.7468
 2520TIP3    H228976   4.011   4.773   3.323  1.8387  2.2900  0.8703
 2521TIP3   OH228977   2.771   1.654  13.699 -0.7542 -0.5962  0.3060
 2521TIP3    H128978   2.712   1.589  13.659 -1.0035 -0.0010 -0.3250
 2521TIP3    H228979   2.836   1.671  13.631 -0.7275 -0.1405  0.4459
 2522TIP3   OH228980   2.228   5.577   1.583 -0.6747 -0.3698 -0.1234
 2522TIP3    H128981   2.307   5.551   1.535 -0.9720  0.2637 -0.9958
 2522TIP3    H228982   2.164   5.509   1.562 -0.7932 -0.1127 -0.6160
 2523TIP3   OH228983   1.416   1.504  16.518 -0.2982  0.5337 -0.4437
 2523TIP3    H128984   1.396   1.532  16.607  2.4964  0.1515  0.3959
 2523TIP3    H228985   1.429   1.586  16.469  1.6085  0.7942  0.4223
 2524TIP3   OH228986   1.578   6.670   1.363  0.1583  0.0200 -0.3531
 2524TIP3    H128987   1.556   6.585   1.325  2.4111 -1.3755  1.2015
 2524TIP3    H228988   1.637   6.711   1.300  1.7015 -1.0878  0.3082
 2525TIP3   OH228989   0.891   4.134   5.139 -0.0171 -0.6149 -0.1593
 2525TIP3    H128990   0.873   4.216   5.094  0.7987 -0.8920 -1.0167
 2525TIP3    H228991   0.830   4.071   5.101 -1.9015 -0.0570  1.7479
 2526TIP3   OH228992   3.236   0.357   2.931  1.0192 -0.5185 -0.2261
 2526TIP3    H128993   3.206   0.380   2.843 -1.7987 -0.3026  0.6827
 2526TIP3    H228994   3.160   0.317   2.973  2.2334 -0.5385  2.1509
 2527TIP3   OH228995   4.470   5.404   5.729 -0.1221 -0.5711  0.5390
 2527TIP3    H128996   4.522   5.482   5.742  0.9014 -1.2036  0.3673
 2527TIP3    H228997   4.387   5.436   5.693  0.6392  0.3552 -0.4543
 2528TIP3   OH228998   0.241   3.191  16.436  0.0924  0.1912 -0.3183
 2528TIP3    H128999   0.258   3.136  16.513  0.5397  0.7738  0.0040
 2528TIP3    H229000   0.303   3.263  16.444 -0.5970  0.8318 -0.6511
 2529TIP3   OH229001   2.830   1.471  15.274  0.1127  0.0025  0.1807
 2529TIP3    H129002   2.844   1.514  15.358  0.3470 -2.0466  1.2654
 2529TIP3    H229003   2.910   1.487  15.224  1.2277 -1.1749  1.5098
 2530TIP3   OH229004   4.750   6.204  13.254 -0.2329 -0.4253 -0.1982
 2530TIP3    H129005   4.705   6.125  13.283 -1.1107 -0.3252 -1.2062
 2530TIP3    H229006   4.726   6.213  13.162 -0.6964  1.3440  0.0378
 2531TIP3   OH229007   2.138   6.332  12.302  0.3796  0.1893  0.1492
 2531TIP3    H129008   2.102   6.262  12.247 -0.2360 -0.6843  1.6152
 2531TIP3    H229009   2.226   6.348  12.266  1.1517 -2.4180  0.6992
 2532TIP3   OH229010   6.173   5.507   2.434 -0.5825 -0.2121 -0.1093
 2532TIP3    H129011   6.078   5.504   2.445 -0.7330 -2.5010 -1.4234
 2532TIP3    H229012   6.199   5.415   2.425  2.1176  0.1234  2.6729
 2533TIP3   OH229013   4.494   4.028   4.959 -1.0094 -0.0262  0.1208
 2533TIP3    H129014   4.419   4.072   4.999 -1.3986 -1.1512  0.6623
 2533TIP3    H229015   4.531   3.975   5.029  0.6500  0.9419  0.0144
 2534TIP3   OH229016   1.523   5.370   2.645 -0.3810 -0.3129 -0.1877
 2534TIP3    H129017   1.469   5.446   2.668 -1.9891 -1.0538 -1.3417
 2534TIP3    H229018   1.468   5.294   2.666  0.5789 -1.1188 -0.5161
 2535TIP3   OH229019   4.326   4.689   3.866 -0.1741 -0.4654  0.3398
 2535TIP3    H129020   4.263   4.649   3.927  0.2277  1.7934  2.4012
 2535TIP3    H229021   4.411   4.655   3.894 -0.1672 -1.0912 -0.4121
 2536TIP3   OH229022   6.068   1.098  13.113 -0.4815  0.1253 -0.3540
 2536TIP3    H129023   6.121   1.176  13.095 -1.1988  0.3115 -1.7314
 2536TIP3    H229024   6.075   1.087  13.208  0.3891  1.3100 -0.2478
 2537TIP3   OH229025   1.734   2.190  12.055  0.4941  0.2164 -0.1856
 2537TIP3    H129026   1.694   2.103  12.061 -1.1628  1.0487  2.7937
 2537TIP3    H229027   1.765   2.208  12.143 -1.2392  3.4830 -0.0935
 2538TIP3   OH229028   3.072   1.114   0.028  0.0406 -0.2264  0.1353
 2538TIP3    H129029   3.062   1.145  -0.063  0.6564  0.3301  0.2469
 2538TIP3    H229030   3.065   1.193   0.081  4.6115  0.3961  0.2692
 2539TIP3   OH229031   6.141   3.249  12.681 -0.7914  0.5332 -0.0899
 2539TIP3    H129032   6.086   3.235  12.604  0.0565  0.3777 -0.6871
 2539TIP3    H229033   6.100   3.322  12.728 -2.2599 -0.4589  0.2110
 2540TIP3   OH229034   6.392   3.499   6.501 -0.2191 -0.2109  0.1648
 2540TIP3    H129035   6.356   3.585   6.522  0.0104 -0.4024  1.4849
 2540TIP3    H229036   6.424   3.507   6.411 -0.7849  0.8769  0.0418
 2541TIP3   OH229037   1.410   0.944  14.666 -0.6909 -0.3475 -0.2208
 2541TIP3    H129038   1.452   0.929  14.581 -1.0320 -0.5656 -0.3528
 2541TIP3    H229039   1.465   0.896  14.728  0.3087  0.8733 -0.1216
 2542TIP3   OH229040   2.308   6.499  13.900 -0.6719  0.7809 -0.5664
 2542TIP3    H129041   2.219   6.464  13.897 -1.6114  2.9276  0.0480
 2542TIP3    H229042   2.360   6.436  13.850 -2.7096 -0.0428 -1.8058
 2543TIP3   OH229043   5.408   4.256  15.545  0.6078 -0.7054  0.0713
 2543TIP3    H129044   5.324   4.253  15.498  1.0004 -1.2785 -0.6137
 2543TIP3    H229045   5.403   4.336  15.597 -0.3701 -0.7399  0.0474
 2544TIP3   OH229046   6.195   4.205   5.213  0.0801  0.4336 -0.1804
 2544TIP3    H129047   6.242   4.137   5.261 -0.2211  1.5457  1.7985
 2544TIP3    H229048   6.192   4.173   5.123  2.7072 -0.6779  0.0353
 2545TIP3   OH229049   2.829   1.908   5.588 -0.1449 -0.5621  0.2111
 2545TIP3    H129050   2.896   1.962   5.546 -0.4941 -0.9619 -0.8819
 2545TIP3    H229051   2.746   1.944   5.560 -0.4104 -0.2665  1.3153
 2546TIP3   OH229052   4.300   5.385   4.941 -0.4196  0.7078 -0.0107
 2546TIP3    H129053   4.393   5.396   4.920 -0.0235  0.6267  1.5955
 2546TIP3    H229054   4.271   5.473   4.968 -0.8141  0.7321 -0.5043
 2547TIP3   OH229055   4.714   1.421   3.771  0.4428  0.2020  0.1496
 2547TIP3    H129056   4.772   1.359   3.814 -1.2757 -0.7200  1.2152
 2547TIP3    H229057   4.732   1.410   3.677  0.4722 -1.6223  0.3418
 2548TIP3   OH229058   6.644   1.642   3.129 -0.3220  0.8616 -0.0176
 2548TIP3    H129059   6.626   1.735   3.111 -0.0286  0.9443  0.1222
 2548TIP3    H229060   6.627   1.599   3.045  0.4790  1.1726 -0.3479
 2549TIP3   OH229061   4.320   1.594  17.088  0.8989  0.2174 -0.2902
 2549TIP3    H129062   4.314   1.499  17.077  2.2530 -0.0010  0.5698
 2549TIP3    H229063   4.334   1.627  16.999 -1.3182 -0.1846 -0.8429
 2550TIP3   OH229064   0.029   2.672   1.869  0.2099 -0.6224  0.2089
 2550TIP3    H129065  -0.062   2.693   1.851  0.4816  0.4903  0.0999
 2550TIP3    H229066   0.037   2.677   1.964 -0.1165 -1.9165  0.3220
 2551TIP3   OH229067   0.659   4.745  11.765  0.2876 -0.5429  0.6942
 2551TIP3    H129068   0.694   4.832  11.748 -4.2686  1.6081  0.7915
 2551TIP3    H229069   0.650   4.741  11.860 -0.5940 -0.6365  0.6106
 2552TIP3   OH229070   6.236   2.281   4.016 -0.1892 -0.2192  0.0129
 2552TIP3    H129071   6.236   2.321   3.929 -0.9290 -0.0425  0.0861
 2552TIP3    H229072   6.326   2.253   4.030 -0.5031 -2.3601 -1.7588
 2553TIP3   OH229073   6.747   5.371  16.735  0.1046 -0.1445 -0.1833
 2553TIP3    H129074   6.811   5.376  16.663  1.3572 -0.4217  0.8705
 2553TIP3    H229075   6.800   5.378  16.814 -1.3003  0.6560  0.7216
 2554TIP3   OH229076   0.970   5.188   1.836 -0.3659  0.2661 -0.1640
 2554TIP3    H129077   0.983   5.094   1.848 -0.3489  0.2794 -0.0758
 2554TIP3    H229078   0.914   5.195   1.759  1.9664  0.2883 -1.9611
 2555TIP3   OH229079   1.559   4.787   5.196 -0.4369 -0.5702 -0.1926
 2555TIP3    H129080   1.498   4.834   5.139 -0.0913 -0.6374 -0.6289
 2555TIP3    H229081   1.640   4.782   5.144  0.0136 -0.2639  0.4645
 2556TIP3   OH229082   0.024   1.987  13.348 -0.3180  0.0051  0.4231
 2556TIP3    H129083   0.100   2.003  13.404  0.6889  0.1476 -0.9378
 2556TIP3    H229084  -0.048   1.972  13.410  0.2034  2.5628  1.7773
 2557TIP3   OH229085   4.138   5.800  11.127  0.1842  0.0100  0.0383
 2557TIP3    H129086   4.057   5.841  11.156 -0.5501 -0.9839 -0.5547
 2557TIP3    H229087   4.111   5.739  11.059  1.3044 -1.0962  0.5572
 2558TIP3   OH229088   3.207   6.209  14.963  0.3598 -0.2554 -0.0177
 2558TIP3    H129089   3.179   6.119  14.944  0.9706 -1.2930  3.3062
 2558TIP3    H229090   3.288   6.220  14.915  1.3779 -2.3327  1.0888
 2559TIP3   OH229091   6.596   2.117   2.447 -0.0680  0.2662 -0.7660
 2559TIP3    H129092   6.594   2.076   2.360 -2.5657 -2.3566  0.3644
 2559TIP3    H229093   6.515   2.168   2.451 -0.8945 -1.0625  0.5451
 2560TIP3   OH229094   2.363   1.111  15.015 -0.2867  0.3425 -0.2622
 2560TIP3    H129095   2.440   1.071  14.973  0.0008  0.7784 -0.1604
 2560TIP3    H229096   2.355   1.197  14.973 -1.6701 -0.3091 -1.4042
 2561TIP3   OH229097   4.712   2.515   6.125  0.2444  0.0718 -0.2374
 2561TIP3    H129098   4.641   2.461   6.088  1.4235 -0.9084 -1.1734
 2561TIP3    H229099   4.738   2.572   6.053 -1.4388  2.4692  0.9457
 2562TIP3   OH229100   5.019   1.581   1.153 -0.5781  0.2441  0.3709
 2562TIP3    H129101   4.974   1.530   1.085  3.2628 -1.1622 -1.4457
 2562TIP3    H229102   5.058   1.655   1.105  0.0609  0.6993  1.5568
 2563TIP3   OH229103   5.667   0.532  12.397 -0.6133  0.3988 -0.1456
 2563TIP3    H129104   5.581   0.568  12.377 -0.8697  0.8951  1.6393
 2563TIP3    H229105   5.724   0.608  12.407 -0.6697  0.2746  1.5331
 2564TIP3   OH229106   1.620   5.295  11.081 -0.2341 -0.3345 -0.0366
 2564TIP3    H129107   1.647   5.314  10.991  1.1645 -0.6107  0.3042
 2564TIP3    H229108   1.626   5.379  11.126  1.2273 -0.5987  0.3079
 2565TIP3   OH229109   6.391   4.679  12.162  0.9068  0.1843 -0.2912
 2565TIP3    H129110   6.303   4.656  12.136 -0.4623  0.5776  3.3562
 2565TIP3    H229111   6.440   4.597  12.159 -0.5417 -0.7590  0.8061
 2566TIP3   OH229112   3.474   1.905   2.319 -0.3497  0.5332 -0.5289
 2566TIP3    H129113   3.445   1.819   2.347  3.3196 -0.6188  0.2502
 2566TIP3    H229114   3.499   1.894   2.227  0.7970  0.5047 -0.2352
 2567TIP3   OH229115   1.408   2.849  12.169  0.2634  0.1289  0.0304
 2567TIP3    H129116   1.352   2.788  12.121 -0.7226 -0.0761  1.3866
 2567TIP3    H229117   1.479   2.868  12.108 -0.4972 -0.7499 -1.2006
 2568TIP3   OH229118   6.007   0.743   3.838 -0.3375  0.2986 -0.3340
 2568TIP3    H129119   6.096   0.737   3.804 -0.5105 -1.4044 -0.5719
 2568TIP3    H229120   5.951   0.721   3.764 -0.7971 -1.6793  0.5445
 2569TIP3   OH229121   0.957   0.874   1.457 -0.1031  0.6393  0.5192
 2569TIP3    H129122   0.927   0.959   1.421  0.9821  0.5134 -0.7731
 2569TIP3    H229123   0.913   0.809   1.402 -0.0255  0.3814  0.7626
 2570TIP3   OH229124   6.048   0.729  14.242 -0.6546 -0.0943  0.1243
 2570TIP3    H129125   5.965   0.761  14.206 -0.8967 -0.0165  0.7403
 2570TIP3    H229126   6.086   0.805  14.285  0.0597  0.0409 -0.7086
 2571TIP3   OH229127   5.118   4.380   1.445  0.2279 -0.6857  0.1428
 2571TIP3    H129128   5.122   4.418   1.357 -1.3593 -0.7240  0.0277
 2571TIP3    H229129   5.169   4.441   1.499  1.1232 -0.6034 -0.7668
 2572TIP3   OH229130   5.627   3.258   2.160  0.1286  0.1199  0.3144
 2572TIP3    H129131   5.601   3.227   2.073  2.2568  1.2288 -0.7983
 2572TIP3    H229132   5.684   3.189   2.194 -0.4053 -0.1467  0.6652
 2573TIP3   OH229133   2.119   1.713  14.599 -0.1879  0.4669 -0.1906
 2573TIP3    H129134   2.214   1.713  14.607 -0.3358 -0.3979  2.6560
 2573TIP3    H229135   2.090   1.789  14.649 -1.0214 -0.3387  0.6109
 2574TIP3   OH229136   5.973   2.643   5.246 -0.1993  0.3559 -0.1648
 2574TIP3    H129137   5.967   2.556   5.284 -4.0673  0.6220  0.2725
 2574TIP3    H229138   5.945   2.632   5.155 -3.7128  1.3524  0.6348
 2575TIP3   OH229139   3.616   5.354   0.543 -0.0925  0.1139  0.1541
 2575TIP3    H129140   3.673   5.380   0.470 -1.2792  2.3880 -0.0793
 2575TIP3    H229141   3.670   5.365   0.621  0.3556  0.4572 -0.1949
 2576TIP3   OH229142   2.571   1.587  11.836 -0.4036 -0.3612 -0.4138
 2576TIP3    H129143   2.660   1.601  11.869 -1.1181  0.5374  1.2556
 2576TIP3    H229144   2.564   1.648  11.762  0.2623 -0.2155 -0.3716
 2577TIP3   OH229145   4.487   4.600  16.270 -0.4040  0.0828  0.6823
 2577TIP3    H129146   4.439   4.531  16.314 -0.7975  0.3060  0.6067
 2577TIP3    H229147   4.423   4.669  16.255 -0.2617  0.0516 -0.1527
 2578TIP3   OH229148   3.752   0.087   1.538 -0.2769  0.5398 -0.1401
 2578TIP3    H129149   3.735  -0.008   1.542 -0.4378  0.1869 -4.4302
 2578TIP3    H229150   3.671   0.127   1.569 -0.7247 -0.7733  0.4419
 2579TIP3   OH229151   6.409   2.566   6.576 -0.0276 -0.4012  0.2250
 2579TIP3    H129152   6.353   2.643   6.585 -0.5856 -0.8291  0.4914
 2579TIP3    H229153   6.397   2.538   6.485  0.1398 -0.2019  0.1414
 2580TIP3   OH229154   6.549   6.764  14.928 -0.3312 -0.0413  0.7943
 2580TIP3    H129155   6.466   6.788  14.886 -1.4033 -2.6263  1.2740
 2580TIP3    H229156   6.615   6.816  14.882 -2.2610  2.8516  1.0534
 2581TIP3   OH229157   2.472   5.966   4.335  0.1021  0.5408 -0.0614
 2581TIP3    H129158   2.474   5.957   4.430  0.3146  1.6546  0.0542
 2581TIP3    H229159   2.548   5.917   4.305  0.0350  0.1866  0.3452
 2582TIP3   OH229160   5.039   2.201   1.194 -0.5208  0.3887  0.2647
 2582TIP3    H129161   4.944   2.185   1.196 -0.6245  0.9550  0.0712
 2582TIP3    H229162   5.077   2.116   1.176 -1.1113  0.5327 -1.8751
 2583TIP3   OH229163   4.044   0.157  15.777  0.3602  0.2999  0.1990
 2583TIP3    H129164   4.087   0.073  15.758 -0.4001 -0.0687  0.0512
 2583TIP3    H229165   4.004   0.183  15.694 -1.2644 -0.3066  0.7363
 2584TIP3   OH229166   6.182   3.524  12.894 -0.0569  0.2692  0.6105
 2584TIP3    H129167   6.165   3.617  12.908 -1.1890  0.3941 -1.2602
 2584TIP3    H229168   6.160   3.482  12.977 -2.8890  1.2997  0.4594
 2585TIP3   OH229169   0.308   4.105  16.969 -0.9107  0.1525 -0.4429
 2585TIP3    H129170   0.254   4.125  16.892  0.7608  0.3004 -1.6194
 2585TIP3    H229171   0.393   4.144  16.949 -0.5041  0.4185  1.6196
 2586TIP3   OH229172   2.706   3.251   5.703 -0.4966  0.4597 -1.0031
 2586TIP3    H129173   2.733   3.213   5.620  4.3789 -1.9226  1.2908
 2586TIP3    H229174   2.751   3.335   5.707  1.7102 -0.7004  0.2365
 2587TIP3   OH229175   4.235   4.927   2.556  0.3233 -0.2591 -0.1276
 2587TIP3    H129176   4.240   4.831   2.563 -0.3230 -0.2708  0.1721
 2587TIP3    H229177   4.285   4.958   2.632 -0.0320 -0.3620  0.1496
 2588TIP3   OH229178   2.913   0.903  10.719 -0.2443  0.6533 -0.8379
 2588TIP3    H129179   2.891   0.979  10.774 -0.6451 -0.3626  0.4466
 2588TIP3    H229180   2.953   0.840  10.779  1.2196  0.2921 -2.1103
 2589TIP3   OH229181   0.255   1.768   2.447  1.0726 -0.1898  0.7283
 2589TIP3    H129182   0.209   1.851   2.440  1.0450 -0.3056 -1.0501
 2589TIP3    H229183   0.343   1.786   2.412  0.7397 -1.1052 -0.6806
 2590TIP3   OH229184   1.401   3.183  16.899  0.9694 -0.7536 -0.5017
 2590TIP3    H129185   1.307   3.199  16.893  1.0227  1.0243  1.7553
 2590TIP3    H229186   1.421   3.126  16.825 -1.4740  0.6793 -2.4167
 2591TIP3   OH229187   2.745   6.730   2.578 -0.2550  0.0617 -0.0617
 2591TIP3    H129188   2.708   6.646   2.554  0.1193  0.3063 -1.5778
 2591TIP3    H229189   2.838   6.714   2.590 -0.4184 -0.0368  1.2110
 2592TIP3   OH229190   0.062   4.779  12.527  0.3971 -0.2068 -0.2889
 2592TIP3    H129191  -0.028   4.771  12.557  0.5899  2.5410  1.4325
 2592TIP3    H229192   0.112   4.721  12.583 -0.3464 -2.9191 -2.2320
 2593TIP3   OH229193   2.374   6.610   1.985 -0.1479  0.1013  0.1959
 2593TIP3    H129194   2.309   6.678   1.966  2.5839  2.2315 -2.5718
 2593TIP3    H229195   2.432   6.650   2.050  1.6634  0.6754 -1.6782
 2594TIP3   OH229196   6.431   5.384  12.821  0.7893 -0.1236  0.5091
 2594TIP3    H129197   6.353   5.331  12.810  1.2949 -0.6491 -0.6355
 2594TIP3    H229198   6.451   5.418  12.734  1.1994  0.9152  0.9921
 2595TIP3   OH229199   6.014   5.238   0.252 -0.3134  0.0142  0.5149
 2595TIP3    H129200   6.081   5.243   0.320  1.0129  0.9630 -0.7998
 2595TIP3    H229201   6.057   5.269   0.173 -2.0112 -0.3797 -0.6311
 2596TIP3   OH229202   4.974   1.693  12.499 -0.4203  0.0128  0.2803
 2596TIP3    H129203   4.923   1.756  12.448 -0.1571  0.5826  0.7114
 2596TIP3    H229204   5.004   1.742  12.575  2.0399  0.1622 -0.6805
 2597TIP3   OH229205   5.690   4.353  13.266 -0.2290  0.5072 -0.0130
 2597TIP3    H129206   5.658   4.408  13.194  1.1688 -0.0428 -1.0949
 2597TIP3    H229207   5.656   4.395  13.345 -2.3442  0.7845 -0.9941
 2598TIP3   OH229208   4.846   4.709  13.021  0.6218 -0.4111  0.2812
 2598TIP3    H129209   4.842   4.797  13.057 -0.8817  0.6259 -2.1417
 2598TIP3    H229210   4.910   4.714  12.950  2.5170 -2.0290  1.7597
 2599TIP3   OH229211   4.953   2.735   4.543  0.4090  0.3268  0.0946
 2599TIP3    H129212   4.987   2.654   4.581  0.7596 -0.0591 -0.9860
 2599TIP3    H229213   5.031   2.786   4.521  0.3685 -0.5084 -2.2843
 2600TIP3   OH229214   2.118   6.279   1.075 -0.0460 -0.0780  0.4056
 2600TIP3    H129215   2.055   6.318   1.136  1.2543  0.8997  1.1616
 2600TIP3    H229216   2.078   6.291   0.988 -0.7031  0.9085  0.8296
 2601TIP3   OH229217   2.823   5.127   6.084 -0.4044  0.4114  0.7211
 2601TIP3    H129218   2.756   5.065   6.116  0.7380 -0.6463  1.1476
 2601TIP3    H229219   2.850   5.175   6.162 -0.7847  0.9648  0.5151
 2602TIP3   OH229220   4.505   4.056  11.150 -0.1878  0.5055  0.3714
 2602TIP3    H129221   4.536   4.129  11.203  0.7711  1.2599 -1.1524
 2602TIP3    H229222   4.567   4.050  11.078 -2.4211  0.7487 -1.7141
 2603TIP3   OH229223   3.633   5.264   2.296  0.1231 -0.5335 -0.2918
 2603TIP3    H129224   3.641   5.208   2.373 -0.3928  0.1117  0.2485
 2603TIP3    H229225   3.721   5.300   2.284 -0.3242  1.5017  1.6963
 2604TIP3   OH229226   2.883   1.176   2.189 -0.2519 -0.2258 -0.4100
 2604TIP3    H129227   2.873   1.161   2.283  1.9599  0.1874 -0.0699
 2604TIP3    H229228   2.830   1.254   2.172  0.4952  0.5833  0.8112
 2605TIP3   OH229229   2.066   0.911  16.431  0.0139 -0.1212 -0.2763
 2605TIP3    H129230   2.074   0.845  16.500  1.1641  0.0622 -0.2117
 2605TIP3    H229231   1.999   0.877  16.373 -2.1263  0.4377  1.7252
 2606TIP3   OH229232   6.224   3.029  15.528 -0.5105  0.2616  0.2005
 2606TIP3    H129233   6.203   3.015  15.620 -0.5575 -0.6698  0.0622
 2606TIP3    H229234   6.160   3.093  15.498 -0.7655  0.2495  0.7113
 2607TIP3   OH229235   6.633   1.834   2.585  0.2180  0.0322  0.0108
 2607TIP3    H129236   6.568   1.845   2.655 -0.5304  1.0724 -0.8278
 2607TIP3    H229237   6.649   1.922   2.553 -0.0831 -0.5079 -1.6996
 2608TIP3   OH229238   2.838   2.444   3.666 -0.5712 -0.6732  0.4592
 2608TIP3    H129239   2.895   2.476   3.596 -0.9671 -0.7870  0.0797
 2608TIP3    H229240   2.844   2.510   3.734 -2.0168  0.6769 -0.6470
 2609TIP3   OH229241   6.091   3.939  13.120  0.0473  0.3095  0.5068
 2609TIP3    H129242   6.109   3.997  13.195 -0.0454  0.7079  0.2265
 2609TIP3    H229243   6.010   3.974  13.082  0.6706  0.7892 -0.4285
 2610TIP3   OH229244   6.091   6.650  15.604  0.4070  0.0195 -0.0687
 2610TIP3    H129245   6.034   6.618  15.674 -2.1197  0.0842 -1.9540
 2610TIP3    H229246   6.090   6.745  15.615 -2.5071  0.2915 -1.8708
 2611TIP3   OH229247   4.340   3.662  12.137  0.9301  0.1255  0.0545
 2611TIP3    H129248   4.277   3.732  12.123  1.6798  1.0039  0.9660
 2611TIP3    H229249   4.294   3.582  12.109  0.2336  1.0078 -1.4311
 2612TIP3   OH229250   1.740   4.237   2.194 -0.1641 -0.0235 -0.0174
 2612TIP3    H129251   1.693   4.280   2.123  1.4995  0.0096 -1.1527
 2612TIP3    H229252   1.819   4.289   2.205  0.6594 -1.3150  0.3391
 2613TIP3   OH229253   3.584   3.082  13.738 -0.0098  0.5330 -0.4860
 2613TIP3    H129254   3.529   3.138  13.793  1.0005  2.0969 -0.9894
 2613TIP3    H229255   3.524   3.044  13.674 -1.1998 -1.2338  1.5203
 2614TIP3   OH229256   4.507   1.097   3.168  0.0840 -0.0899 -0.2380
 2614TIP3    H129257   4.528   1.156   3.095  0.4040 -0.6107 -0.5759
 2614TIP3    H229258   4.439   1.040   3.133 -2.4293  1.9280  1.0122
 2615TIP3   OH229259   4.728   2.411  16.735  0.2000 -0.0343 -0.2413
 2615TIP3    H129260   4.669   2.474  16.693  0.6058  0.4352 -0.1218
 2615TIP3    H229261   4.716   2.330  16.687  0.3625  0.3878 -1.0093
 2616TIP3   OH229262   3.772   4.702   3.610 -0.2541 -0.0014  0.5725
 2616TIP3    H129263   3.735   4.615   3.602 -0.5237  0.2076 -0.5966
 2616TIP3    H229264   3.771   4.720   3.704 -3.0673 -0.0232  0.6139
 2617TIP3   OH229265   4.139   3.506   3.850 -0.8465 -0.9294  0.2551
 2617TIP3    H129266   4.134   3.593   3.810  1.4163 -0.3378  1.1640
 2617TIP3    H229267   4.053   3.494   3.892 -0.8114  1.3587  1.0997
 2618TIP3   OH229268   4.091   0.761   2.173 -0.5814  0.3053 -0.0004
 2618TIP3    H129269   4.178   0.798   2.180  0.5214 -2.0499 -0.3035
 2618TIP3    H229270   4.039   0.829   2.130  1.0868  1.7411  0.1540
 2619TIP3   OH229271   5.324   6.481  15.151 -0.1149 -0.7395  0.3345
 2619TIP3    H129272   5.410   6.441  15.144  0.9877  1.2218  1.7786
 2619TIP3    H229273   5.302   6.475  15.244 -0.6968  0.3679  0.2910
 2620TIP3   OH229274   5.135   0.845  15.816  0.0604  0.0189 -0.1305
 2620TIP3    H129275   5.184   0.882  15.743 -0.1639 -0.1797 -0.3855
 2620TIP3    H229276   5.194   0.780  15.855 -0.3310 -0.8926 -1.0146
 2621TIP3   OH229277   4.447   5.510   0.091 -0.3652  0.3668  0.8392
 2621TIP3    H129278   4.514   5.471   0.148  0.5495 -1.7355 -1.4948
 2621TIP3    H229279   4.496   5.575   0.040 -0.0574 -1.0327 -0.7291
 2622TIP3   OH229280   2.897   6.687  12.363  0.3217  0.0347  0.8894
 2622TIP3    H129281   2.900   6.592  12.369  1.6118 -0.0012  0.0874
 2622TIP3    H229282   2.977   6.711  12.316 -0.4432  1.4549  0.2293
 2623TIP3   OH229283   1.036   5.634   1.527  0.0074 -0.1521  0.1351
 2623TIP3    H129284   0.944   5.650   1.508  0.0475 -1.0997 -1.0448
 2623TIP3    H229285   1.053   5.547   1.489  1.3017 -0.1283  0.6044
 2624TIP3   OH229286   6.576   2.270   4.809 -0.4510  0.3431  0.6092
 2624TIP3    H129287   6.651   2.215   4.787 -1.4879 -0.5223 -0.9727
 2624TIP3    H229288   6.613   2.357   4.824  0.6830  0.5382 -2.6057
 2625TIP3   OH229289   1.908   3.786   1.826 -0.3141  0.3745 -0.6615
 2625TIP3    H129290   1.881   3.763   1.915 -0.9284  0.3522 -0.8525
 2625TIP3    H229291   1.988   3.838   1.838  0.5602 -1.0090 -0.1749
 2626TIP3   OH229292   4.281   5.512   1.246  0.7173  0.2257  0.6560
 2626TIP3    H129293   4.313   5.593   1.284  1.5242 -0.3783  1.2989
 2626TIP3    H229294   4.186   5.516   1.258  0.6574  1.4124 -0.0356
 2627TIP3   OH229295   5.388   2.332  13.770 -0.2491  0.6167 -0.3772
 2627TIP3    H129296   5.450   2.264  13.796 -0.6309  0.4748  0.1895
 2627TIP3    H229297   5.352   2.364  13.853 -0.5075  1.1029 -0.6696
 2628TIP3   OH229298   3.116   5.053  11.306 -0.1200 -0.0787 -0.0392
 2628TIP3    H129299   3.097   4.960  11.314  1.3389 -0.3693  0.4193
 2628TIP3    H229300   3.211   5.059  11.315 -0.1879  1.4598 -0.0216
 2629TIP3   OH229301   5.107   4.196  16.137 -0.7820 -0.3085 -0.5610
 2629TIP3    H129302   5.032   4.217  16.193  0.5055  0.8736  0.7866
 2629TIP3    H229303   5.070   4.192  16.048 -2.2734  1.2682 -0.0730
 2630TIP3   OH229304   4.772   3.024  16.577 -0.0826 -0.1148  0.2181
 2630TIP3    H129305   4.827   2.970  16.520  1.1589  0.7912  0.5121
 2630TIP3    H229306   4.683   2.994  16.560  0.4743 -1.4597 -0.4574
 2631TIP3   OH229307   3.428   5.674   1.278 -0.7874 -0.0754  0.0176
 2631TIP3    H129308   3.416   5.721   1.360 -0.1001  0.7063 -0.3119
 2631TIP3    H229309   3.521   5.653   1.276 -0.7866 -0.0307 -0.5892
 2632TIP3   OH229310   4.731   1.338   1.643 -0.0147  0.3355 -0.7829
 2632TIP3    H129311   4.804   1.281   1.668 -0.0393  0.2518 -0.9031
 2632TIP3    H229312   4.682   1.288   1.578 -1.0196 -0.2279  0.3649
 2633TIP3   OH229313   3.280   3.997   5.495  0.3334  0.2663 -0.4316
 2633TIP3    H129314   3.219   3.944   5.444  0.0540  1.0419 -0.9297
 2633TIP3    H229315   3.226   4.035   5.565  0.0024  1.6918 -1.4109
 2634TIP3   OH229316   3.503   3.554  15.004  0.1179 -0.3090 -0.0793
 2634TIP3    H129317   3.534   3.479  14.952  1.2019  0.2563 -0.2763
 2634TIP3    H229318   3.568   3.622  14.988 -1.1626  0.8902 -0.3727
 2635TIP3   OH229319   4.162   1.440  12.817 -0.2623 -0.3498  0.1645
 2635TIP3    H129320   4.105   1.386  12.872 -1.2259  0.9646  0.5084
 2635TIP3    H229321   4.103   1.482  12.754  0.6018 -0.4837 -0.7603
 2636TIP3   OH229322   6.000   5.588  11.345 -0.0880 -0.0173 -0.2244
 2636TIP3    H129323   6.024   5.657  11.282  0.0557  1.2929  1.1995
 2636TIP3    H229324   5.998   5.508  11.293  1.4739  0.7728 -1.6091
 2637TIP3   OH229325   5.760   5.335  17.169  0.5442  0.0513  0.1124
 2637TIP3    H129326   5.768   5.428  17.149 -1.2067  0.3264  0.5260
 2637TIP3    H229327   5.828   5.293  17.116  0.6754  1.4521 -0.8793
 2638TIP3   OH229328   6.078   5.063   1.292 -0.0533 -0.0772  0.1312
 2638TIP3    H129329   6.125   5.041   1.373  0.5807  1.0199  0.0711
 2638TIP3    H229330   6.119   5.008   1.226  1.1690  0.8479  0.0842
 2639TIP3   OH229331   4.977   0.438  12.611  0.0999 -0.2192 -0.1209
 2639TIP3    H129332   5.060   0.482  12.627 -0.0026 -0.3842  0.9239
 2639TIP3    H229333   4.911   0.503  12.633 -0.0946  0.5099 -2.5912
 2640TIP3   OH229334   1.092   3.160  16.241 -0.6903 -0.1514  0.1979
 2640TIP3    H129335   1.001   3.165  16.213 -1.5740 -0.7972  2.6879
 2640TIP3    H229336   1.123   3.076  16.206 -1.1907 -0.1305 -0.3019
 2641TIP3   OH229337   5.923   1.880  13.964  0.1319 -0.2993  0.2927
 2641TIP3    H129338   5.957   1.917  14.046 -1.0991 -1.0752  1.1777
 2641TIP3    H229339   6.000   1.840  13.923  0.7257 -0.1014  1.1713
 2642TIP3   OH229340   2.449   4.416  15.203  0.0014  0.1536  0.7572
 2642TIP3    H129341   2.390   4.347  15.231 -0.8518  0.4032 -0.3247
 2642TIP3    H229342   2.536   4.388  15.232 -0.1104 -2.0391 -0.7626
 2643TIP3   OH229343   4.353   0.228   3.511  0.0470 -0.1730  0.0391
 2643TIP3    H129344   4.434   0.279   3.503 -1.0245  1.5267 -0.4263
 2643TIP3    H229345   4.303   0.250   3.433 -2.1788  1.2788  1.7515
 2644TIP3   OH229346   3.886   1.118   1.489  0.2189  0.0288 -0.4004
 2644TIP3    H129347   3.975   1.135   1.457  1.1020 -1.2787  1.2030
 2644TIP3    H229348   3.880   1.168   1.570 -1.7093  2.6545 -1.9863
 2645TIP3   OH229349   3.413   4.633  13.685  0.0716 -0.1914  0.0092
 2645TIP3    H129350   3.393   4.539  13.680 -0.6679 -0.0116 -0.6104
 2645TIP3    H229351   3.414   4.652  13.778 -1.5976 -0.4558  0.1090
 2646TIP3   OH229352   3.668   4.170  14.776  0.7199  0.1738  0.1845
 2646TIP3    H129353   3.595   4.191  14.718  1.0651  0.3829 -0.1805
 2646TIP3    H229354   3.643   4.087  14.816  0.5310 -0.0421 -0.3621
 2647TIP3   OH229355   2.564   0.572  16.019  0.2754 -0.0140  0.6521
 2647TIP3    H129356   2.628   0.504  16.040 -0.5482 -0.6707  1.1253
 2647TIP3    H229357   2.486   0.524  15.990 -0.0756  0.7544  0.2861
 2648TIP3   OH229358   5.007   6.265   0.188  0.0884  0.4101 -0.4737
 2648TIP3    H129359   5.102   6.269   0.182  0.0054  2.2077 -1.0801
 2648TIP3    H229360   4.988   6.289   0.279  0.2337 -1.1574  0.0008
 2649TIP3   OH229361   3.478   2.474   0.604  0.2140 -0.3951 -0.3661
 2649TIP3    H129362   3.434   2.507   0.526 -1.3227  0.1713  0.7052
 2649TIP3    H229363   3.518   2.551   0.644 -0.1129 -0.4576  0.0903
 2650TIP3   OH229364   6.681   2.419  11.129 -0.3643 -0.4918  0.1862
 2650TIP3    H129365   6.775   2.425  11.110 -0.2999 -2.2147 -0.1901
 2650TIP3    H229366   6.661   2.326  11.123 -1.7794 -0.3547  1.8740
 2651TIP3   OH229367   0.049   6.704  11.487  0.0591  0.2431 -0.1566
 2651TIP3    H129368   0.084   6.707  11.398  0.8822  0.4660  0.1608
 2651TIP3    H229369  -0.022   6.768  11.487 -1.1799 -1.0504 -1.1318
 2652TIP3   OH229370   0.391   0.763  11.748 -0.2535  1.1229 -0.2058
 2652TIP3    H129371   0.433   0.746  11.663  0.2146 -0.5937  0.3201
 2652TIP3    H229372   0.325   0.829  11.729 -0.8467  0.0735 -2.1307
 2653TIP3   OH229373   4.972   0.065   1.334 -0.4149 -0.9052 -0.2243
 2653TIP3    H129374   4.980   0.160   1.328  0.1776 -1.0045 -1.4503
 2653TIP3    H229375   5.027   0.041   1.408 -0.5314 -0.2953  0.0650
 2654TIP3   OH229376   6.120   4.233  14.188  0.0591  0.2935  0.1068
 2654TIP3    H129377   6.096   4.253  14.098  0.4241  0.3953  0.0273
 2654TIP3    H229378   6.199   4.285  14.203 -0.3343  0.7407  0.6798
 2655TIP3   OH229379   3.887   5.587  11.717 -0.4104  0.1068 -0.3208
 2655TIP3    H129380   3.803   5.631  11.707 -0.8774  0.0096  2.3465
 2655TIP3    H229381   3.864   5.494  11.728  0.4261 -0.6785 -3.7891
 2656TIP3   OH229382   4.596   4.195   0.242  0.0212  0.1858 -0.6597
 2656TIP3    H129383   4.668   4.162   0.295 -0.9832 -0.1477  0.5656
 2656TIP3    H229384   4.519   4.187   0.299 -1.0070  0.4061 -1.9603
 2657TIP3   OH229385   4.350   5.777   1.373 -0.4432 -0.4300 -0.0559
 2657TIP3    H129386   4.429   5.742   1.414 -0.0642 -0.7240 -1.0169
 2657TIP3    H229387   4.364   5.872   1.371 -0.2947 -0.4472  0.1357
 2658TIP3   OH229388   4.315   1.657   2.362 -0.4409 -0.6278  0.0521
 2658TIP3    H129389   4.346   1.567   2.351 -1.5900 -0.9137 -1.0085
 2658TIP3    H229390   4.394   1.710   2.361  0.0615 -1.1607 -4.1892
 2659TIP3   OH229391   4.013   6.209  14.559  0.0006  0.4367  0.1309
 2659TIP3    H129392   4.003   6.131  14.614 -1.5090 -1.0614 -2.0940
 2659TIP3    H229393   3.952   6.272  14.597 -1.4689 -0.7795 -0.1117
 2660TIP3   OH229394   2.435   3.644   5.075  0.1628 -0.1063  0.1666
 2660TIP3    H129395   2.437   3.722   5.019  1.1325  0.0474  0.3892
 2660TIP3    H229396   2.354   3.599   5.051 -1.1983  1.7002  1.0312
 2661TIP3   OH229397   1.911   6.403   1.819  0.0145  0.2845  0.0679
 2661TIP3    H129398   1.953   6.485   1.844 -1.2960  0.9165  0.2656
 2661TIP3    H229399   1.872   6.422   1.734 -0.4919 -0.0663  0.2211
 2662TIP3   OH229400   0.765   5.047  11.389 -0.3484  0.4749 -0.5439
 2662TIP3    H129401   0.703   5.100  11.339  0.7096  1.1829 -1.1427
 2662TIP3    H229402   0.851   5.079  11.362  0.3156  1.8218  2.6898
 2663TIP3   OH229403   2.954   1.701   1.718  0.3985  1.1822  0.0660
 2663TIP3    H129404   2.879   1.686   1.660 -1.5494 -1.0012  2.9106
 2663TIP3    H229405   3.031   1.683   1.663 -1.2194  0.9183 -2.2547
 2664TIP3   OH229406   6.381   2.064  13.450  0.3504 -0.0036  0.3332
 2664TIP3    H129407   6.454   2.006  13.473  1.8286  1.9910  0.9184
 2664TIP3    H229408   6.386   2.135  13.514 -0.9921  1.1196 -0.7600
 2665TIP3   OH229409   5.648   4.572  11.554 -0.0056 -0.1992  0.1734
 2665TIP3    H129410   5.587   4.644  11.540 -1.0773 -1.4459 -2.2873
 2665TIP3    H229411   5.594   4.498  11.581  0.5841 -0.9196 -0.5366
 2666TIP3   OH229412   6.060   3.725   5.524  0.8143  0.0233 -0.5824
 2666TIP3    H129413   6.075   3.714   5.430  0.4587 -0.2911 -0.6053
 2666TIP3    H229414   6.076   3.639   5.562  0.6412  0.0677 -0.3996
 2667TIP3   OH229415   5.338   0.232   1.926 -0.4992 -0.1284  0.1106
 2667TIP3    H129416   5.338   0.231   1.831  0.3201  2.8226 -0.0383
 2667TIP3    H229417   5.246   0.222   1.950 -1.0636  1.4350 -1.1658
 2668TIP3   OH229418   1.336   6.290   0.680  0.6821  0.3577  0.6987
 2668TIP3    H129419   1.283   6.342   0.741  0.5325  0.7812  0.2140
 2668TIP3    H229420   1.394   6.239   0.737  0.1737  0.3374  1.2160
 2669TIP3   OH229421   2.834   1.140   4.135  0.0772 -0.6615  0.2632
 2669TIP3    H129422   2.812   1.112   4.046  0.2771  0.5694 -0.1946
 2669TIP3    H229423   2.928   1.159   4.131 -0.4748  2.6001 -0.2363
 2670TIP3   OH229424   1.670   4.750  15.059 -0.1323  0.9263 -0.0245
 2670TIP3    H129425   1.655   4.821  15.121 -1.2179  2.0116 -1.4352
 2670TIP3    H229426   1.664   4.792  14.973 -2.9821 -1.1674 -1.0155
 2671TIP3   OH229427   0.849   2.802   5.022  0.3891 -0.3388  0.0674
 2671TIP3    H129428   0.756   2.798   5.044  0.5861 -0.3792  0.9285
 2671TIP3    H229429   0.882   2.714   5.038  0.0718 -1.0602 -2.7164
 2672TIP3   OH229430   2.939   2.663   0.578  0.8892  0.4070 -0.1456
 2672TIP3    H129431   2.922   2.584   0.528 -2.1821  0.0916  1.2051
 2672TIP3    H229432   3.019   2.644   0.627  0.9961 -1.2860 -0.9248
 2673TIP3   OH229433   2.115   3.731   0.985 -0.4081  0.1540  0.0466
 2673TIP3    H129434   2.070   3.789   1.047  0.7369  0.8906  0.2092
 2673TIP3    H229435   2.207   3.739   1.007 -0.2245 -2.1944  0.4556
 2674TIP3   OH229436   0.467   2.127  16.498 -0.3205  0.4295  0.3724
 2674TIP3    H129437   0.531   2.162  16.559  0.4664 -0.2253 -0.0605
 2674TIP3    H229438   0.391   2.105  16.552 -0.5869  2.1422  0.7407
 2675TIP3   OH229439   2.022   0.788   1.305 -0.4460  0.1454 -0.4260
 2675TIP3    H129440   2.092   0.723   1.311  0.2576  0.9314  0.1028
 2675TIP3    H229441   2.068   0.871   1.298 -1.3387  0.5677 -1.3673
 2676TIP3   OH229442   4.025   0.508   4.507  0.2167  0.6797  0.5124
 2676TIP3    H129443   3.972   0.582   4.538 -0.6653  1.0511 -1.6580
 2676TIP3    H229444   4.111   0.522   4.547 -0.2525  2.2478  1.0765
 2677TIP3   OH229445   4.222   4.723  13.276 -0.2244 -0.2471  0.8084
 2677TIP3    H129446   4.306   4.744  13.317 -0.3027  0.3934  0.6492
 2677TIP3    H229447   4.158   4.774  13.326 -0.3712  0.2201  0.1562
 2678TIP3   OH229448   4.533   3.704  15.480 -0.1336  0.3321  0.1648
 2678TIP3    H129449   4.536   3.609  15.467  0.1564  0.5060 -1.1089
 2678TIP3    H229450   4.491   3.714  15.566  0.8029 -0.9649  0.8115
 2679TIP3   OH229451   0.093   6.226   5.259  0.0809 -0.1832  0.4520
 2679TIP3    H129452   0.048   6.147   5.289  1.6056 -0.7859  1.2935
 2679TIP3    H229453   0.039   6.299   5.291  0.4156 -0.8571  2.7308
 2680TIP3   OH229454   6.166   1.091   0.080  0.1218  0.1145 -0.0741
 2680TIP3    H129455   6.186   1.184   0.068  0.3616  0.0521 -0.1802
 2680TIP3    H229456   6.189   1.074   0.171  1.2431 -0.1169 -0.3855
 2681TIP3   OH229457   5.712   2.171   4.363  0.1093 -0.0814 -0.0780
 2681TIP3    H129458   5.648   2.145   4.430 -0.4198  0.7918 -0.2377
 2681TIP3    H229459   5.688   2.261   4.341 -0.1409 -0.5718 -1.9182
 2682TIP3   OH229460   5.908   2.952   3.970 -0.3014 -0.6791  0.1564
 2682TIP3    H129461   5.896   2.861   3.997 -2.1376 -0.8226 -0.9820
 2682TIP3    H229462   5.841   3.000   4.019 -1.8129 -0.5347 -1.9510
 2683TIP3   OH229463   6.121   4.220  16.095  0.2677  0.2483 -0.1372
 2683TIP3    H129464   6.086   4.278  16.028  1.7193  1.7876  0.3572
 2683TIP3    H229465   6.143   4.279  16.168  3.5612 -0.5442 -0.3190
 2684TIP3   OH229466   6.020   2.209  15.647  0.1749 -0.6849  0.4664
 2684TIP3    H129467   6.021   2.301  15.676 -1.0902 -0.5998  0.2833
 2684TIP3    H229468   6.112   2.183  15.650  0.4770  0.3655  1.2338
 2685TIP3   OH229469   6.007   4.174  12.348  0.3078 -0.4084 -0.1307
 2685TIP3    H129470   6.084   4.135  12.389  0.1371  0.0213  0.6272
 2685TIP3    H229471   6.011   4.146  12.257  0.3324 -1.9671  0.3161
 2686TIP3   OH229472   5.951   3.674   0.647  0.1047  0.1352  0.5612
 2686TIP3    H129473   6.013   3.747   0.645  1.8379 -1.2875 -0.4766
 2686TIP3    H229474   5.999   3.600   0.608 -1.6072 -1.5400  1.4525
 2687TIP3   OH229475   0.732   2.479  12.424 -0.2066  0.5386 -0.3256
 2687TIP3    H129476   0.709   2.546  12.360  1.7579  1.3828 -0.2132
 2687TIP3    H229477   0.711   2.396  12.380 -2.5658  1.1396 -0.5009
 2688TIP3   OH229478   3.563   6.538   3.405  0.4503 -0.4287 -0.0292
 2688TIP3    H129479   3.477   6.498   3.394 -0.3006  0.5385  1.8049
 2688TIP3    H229480   3.566   6.607   3.338 -0.9520  0.6460  0.9434
 2689TIP3   OH229481   0.582   4.654   3.475 -0.5859 -0.2017  0.1038
 2689TIP3    H129482   0.675   4.633   3.485 -0.1217  1.4373 -0.3681
 2689TIP3    H229483   0.541   4.572   3.450  0.9308 -0.7255 -0.7919
 2690TIP3   OH229484   5.001   4.455   2.193  0.5433 -0.0851  0.1039
 2690TIP3    H129485   4.942   4.431   2.265  0.4388 -0.4849 -0.1103
 2690TIP3    H229486   4.976   4.397   2.121  1.8558 -0.9849  0.3165
 2691TIP3   OH229487   6.514   3.471   3.753  0.6989 -0.5754  0.5947
 2691TIP3    H129488   6.490   3.382   3.779  2.3448 -0.5385  2.5097
 2691TIP3    H229489   6.490   3.477   3.661 -0.2980 -2.6809  0.6641
 2692TIP3   OH229490   4.009   5.197   1.248 -0.1711 -0.4500  0.4120
 2692TIP3    H129491   4.058   5.244   1.315 -1.8165  2.4549 -0.2469
 2692TIP3    H229492   4.064   5.202   1.170 -0.7541  1.5140  0.0610
 2693TIP3   OH229493   6.073   3.726  15.873 -0.4458 -0.1685  0.3040
 2693TIP3    H129494   6.068   3.801  15.933  0.1615 -0.7644  1.1337
 2693TIP3    H229495   6.020   3.751  15.798 -1.3341  0.5678  1.1446
 2694TIP3   OH229496   4.818   2.041   5.061 -0.2996  0.6481  0.4793
 2694TIP3    H129497   4.827   1.958   5.013  2.8825  0.2626  1.5168
 2694TIP3    H229498   4.763   2.018   5.136  0.5868 -0.5953  0.7906
 2695TIP3   OH229499   0.255   4.728   0.817 -0.2174 -0.0594 -0.0944
 2695TIP3    H129500   0.334   4.758   0.862 -0.9495  1.7701  0.0673
 2695TIP3    H229501   0.284   4.654   0.764  1.1557 -0.7483  1.5276
 2696TIP3   OH229502   5.671   3.201  12.397  0.5046 -0.2542  0.5569
 2696TIP3    H129503   5.665   3.264  12.325  1.3922 -0.6158  0.1508
 2696TIP3    H229504   5.582   3.196  12.432 -0.4784 -1.6897 -1.9014
 2697TIP3   OH229505   3.405   2.442  13.796 -0.3511  0.1257  0.5763
 2697TIP3    H129506   3.498   2.436  13.778 -0.2419 -0.5904  1.3135
 2697TIP3    H229507   3.378   2.527  13.760  0.4734  0.1096 -0.0837
 2698TIP3   OH229508   2.147   0.562  13.532  0.4798  0.2345  0.1089
 2698TIP3    H129509   2.151   0.475  13.573 -0.9146  0.2040  0.2231
 2698TIP3    H229510   2.180   0.621  13.600 -1.8944  0.1943  1.4077
 2699TIP3   OH229511   4.106   2.789   2.886  0.9628  0.3184  0.3419
 2699TIP3    H129512   4.104   2.881   2.858 -0.4528  0.2716  0.2213
 2699TIP3    H229513   4.108   2.739   2.804  0.9803  0.2276  0.3977
 2700TIP3   OH229514   1.912   1.094  12.718 -0.2941  0.6100  0.3998
 2700TIP3    H129515   1.905   1.006  12.756 -0.2355  1.5671  2.7503
 2700TIP3    H229516   1.851   1.147  12.768  1.0500  2.3208  0.3061
 2701TIP3   OH229517   0.673   6.523  15.994 -0.1905  0.1918 -0.0163
 2701TIP3    H129518   0.665   6.465  16.069  1.0125  0.6803  0.5233
 2701TIP3    H229519   0.742   6.483  15.940 -0.0507  0.5830 -0.1352
 2702TIP3   OH229520   6.677   4.464   2.931 -0.9272  0.3803 -0.0660
 2702TIP3    H129521   6.714   4.385   2.972  0.7294  0.9146 -0.4692
 2702TIP3    H229522   6.711   4.536   2.984 -0.5396  0.9477 -1.0688
 2703TIP3   OH229523   0.107   0.552  12.151  0.3167  0.1553 -0.4258
 2703TIP3    H129524   0.175   0.593  12.205 -0.2006  0.8711 -0.3054
 2703TIP3    H229525   0.025   0.573  12.197 -0.0236 -0.3035 -0.8197
 2704TIP3   OH229526   2.038   5.340   1.505  0.0415 -0.3388 -0.4815
 2704TIP3    H129527   2.053   5.378   1.418  0.7270 -1.3513 -0.8265
 2704TIP3    H229528   1.980   5.265   1.489  0.6111 -0.8582 -0.1485
 2705TIP3   OH229529   6.647   6.179  12.535  0.1765 -0.0075 -0.1482
 2705TIP3    H129530   6.593   6.207  12.609 -0.3529 -0.3905 -0.3851
 2705TIP3    H229531   6.633   6.085  12.529 -0.9306  0.2227 -1.6371
 2706TIP3   OH229532   0.463   6.012  12.255 -0.1957  0.2646  0.4750
 2706TIP3    H129533   0.418   6.078  12.202  1.1438 -0.0111 -1.1312
 2706TIP3    H229534   0.452   5.931  12.205  2.8551  0.3775 -0.6147
 2707TIP3   OH229535   2.592   1.935   4.898 -0.0757  0.2935  0.0686
 2707TIP3    H129536   2.502   1.912   4.919 -0.1720  0.6551  0.0642
 2707TIP3    H229537   2.644   1.891   4.966 -0.4130  1.7619  1.3510
 2708TIP3   OH229538   4.362   2.786   3.844 -0.3734 -0.0777  0.4917
 2708TIP3    H129539   4.271   2.779   3.817 -0.2607  0.9442 -0.2030
 2708TIP3    H229540   4.406   2.827   3.769  0.3565  0.8668  1.4128
 2709TIP3   OH229541   2.473   3.287   0.797  0.5001  0.7918  0.0731
 2709TIP3    H129542   2.555   3.318   0.757 -0.3383  1.3162 -1.3057
 2709TIP3    H229543   2.461   3.342   0.874  1.4099  0.7295  0.2785
 2710TIP3   OH229544   0.421   6.048  13.747 -0.3831 -0.0049 -0.1357
 2710TIP3    H129545   0.508   6.041  13.788 -0.4991 -1.8092 -0.1001
 2710TIP3    H229546   0.385   6.130  13.780  0.6010 -0.1074  1.2723
 2711TIP3   OH229547   3.159   2.393   4.897  0.4038 -0.2220  0.7058
 2711TIP3    H129548   3.196   2.403   4.984  1.7839  2.3530 -0.0730
 2711TIP3    H229549   3.226   2.428   4.838 -1.5467  0.5861 -1.1496
 2712TIP3   OH229550   4.739   3.500   5.187 -0.0693  0.1628  0.8208
 2712TIP3    H129551   4.800   3.474   5.118 -0.6945 -1.4535  0.8364
 2712TIP3    H229552   4.775   3.463   5.267 -0.2974  0.4641  1.0637
 2713TIP3   OH229553   2.718   0.301  15.121 -0.2324  0.0212 -0.2367
 2713TIP3    H129554   2.771   0.319  15.199 -0.8219 -1.0191  0.4411
 2713TIP3    H229555   2.656   0.374  15.117  1.0653  1.1232 -0.9036
 2714TIP3   OH229556   3.562   4.514  16.429  0.2528 -0.0050 -0.0682
 2714TIP3    H129557   3.615   4.456  16.484  1.7747  2.1490  0.8639
 2714TIP3    H229558   3.486   4.535  16.483  0.7590  0.5212  0.4584
 2715TIP3   OH229559   1.073   5.113  11.712 -0.2462 -0.5645  0.7074
 2715TIP3    H129560   1.069   5.023  11.743  1.6741 -1.3157 -1.0584
 2715TIP3    H229561   1.101   5.163  11.789  3.0870 -2.1713  0.7242
 2716TIP3   OH229562   2.316   1.887  15.411 -0.0983  0.1138 -0.6505
 2716TIP3    H129563   2.296   1.846  15.326 -0.8856 -0.2715 -0.2966
 2716TIP3    H229564   2.274   1.830  15.475  1.8541 -0.4970  0.1424
 2717TIP3   OH229565   2.914   6.415   5.826 -0.0527  0.0924 -0.5593
 2717TIP3    H129566   2.870   6.461   5.897 -0.7788  1.9374 -2.1234
 2717TIP3    H229567   3.005   6.447   5.829  0.0060 -0.0976 -0.2637
 2718TIP3   OH229568   0.722   5.126   5.754 -0.1323  0.4630  0.6007
 2718TIP3    H129569   0.741   5.108   5.846  0.9711 -0.8064  0.1622
 2718TIP3    H229570   0.641   5.177   5.755 -1.6069 -1.7180  2.1930
 2719TIP3   OH229571   3.094   3.789   5.433  0.3736  0.2923 -0.4050
 2719TIP3    H129572   3.085   3.757   5.523 -0.2267 -1.2105 -0.9599
 2719TIP3    H229573   3.024   3.745   5.385  1.0750  0.5608 -1.7366
 2720TIP3   OH229574   0.832   5.972   0.810  0.0468  0.5068  0.3394
 2720TIP3    H129575   0.910   5.987   0.758 -0.2497  0.5883 -0.0875
 2720TIP3    H229576   0.786   6.056   0.810 -0.8884  0.0301 -0.8353
 2721TIP3   OH229577   1.186   0.685   0.975  0.3513 -0.2624  0.0686
 2721TIP3    H129578   1.185   0.592   0.954 -2.7307 -0.4550  0.6692
 2721TIP3    H229579   1.180   0.688   1.071  1.2177  0.5942  0.1162
 2722TIP3   OH229580   5.249   5.104   3.477 -0.2327  0.2189  0.0884
 2722TIP3    H129581   5.157   5.098   3.452 -0.6487  0.8887  1.3779
 2722TIP3    H229582   5.295   5.053   3.411 -1.5602 -0.4130 -0.3775
 2723TIP3   OH229583   3.766   2.665   4.874 -0.6802  0.5781 -0.1233
 2723TIP3    H129584   3.673   2.686   4.888 -1.1029 -2.3991  2.6154
 2723TIP3    H229585   3.808   2.691   4.956  0.2583 -1.1703 -0.0206
 2724TIP3   OH229586   5.070   2.212   4.490  0.0774  0.1898 -0.3202
 2724TIP3    H129587   5.114   2.205   4.575  0.7314  0.3433 -0.6378
 2724TIP3    H229588   4.977   2.215   4.511  0.1517 -1.1258  0.3181
 2725TIP3   OH229589   4.951   0.019   6.342 -0.0865  0.0757 -0.3897
 2725TIP3    H129590   4.916   0.100   6.305  0.3722 -0.1559 -1.3700
 2725TIP3    H229591   4.972   0.041   6.433  2.2936  1.7787 -1.2645
 2726TIP3   OH229592   1.587   1.215   1.971  0.3650 -0.3679  0.0443
 2726TIP3    H129593   1.528   1.143   1.994 -1.7961  1.1362 -0.3796
 2726TIP3    H229594   1.559   1.287   2.028  2.2749  0.2537  0.2656
 2727TIP3   OH229595   3.541   0.169  17.175  0.4479 -0.4056 -0.3045
 2727TIP3    H129596   3.500   0.164  17.089  0.0069 -1.6147 -0.0383
 2727TIP3    H229597   3.468   0.180  17.237  0.6956 -0.3102 -0.0237
 2728TIP3   OH229598   4.529   2.596   3.978 -0.3667 -0.1148 -0.4211
 2728TIP3    H129599   4.453   2.653   3.973  0.1615  0.6649  0.1023
 2728TIP3    H229600   4.547   2.570   3.888 -0.0999  1.2722 -0.7855
 2729TIP3   OH229601   4.295   4.780   6.654 -0.0644  0.2195  0.2909
 2729TIP3    H129602   4.235   4.705   6.656 -2.1080  1.7237 -1.0463
 2729TIP3    H229603   4.377   4.744   6.622 -0.3307 -1.8429  1.7662
 2730TIP3   OH229604   1.234   0.485   6.183  0.0484  0.2342  0.1358
 2730TIP3    H129605   1.302   0.441   6.232 -1.0420 -1.4052  0.2492
 2730TIP3    H229606   1.158   0.427   6.190 -0.6363  0.7847 -2.0382
 2731TIP3   OH229607   2.956   0.639  16.300  0.3381 -0.0115  0.3042
 2731TIP3    H129608   3.015   0.712  16.318  1.2637 -0.8942  1.0251
 2731TIP3    H229609   3.013   0.562  16.302 -1.0149 -1.0547  2.3056
 2732TIP3   OH229610   1.924   1.179  16.565 -0.4180 -0.6931 -0.1738
 2732TIP3    H129611   1.905   1.247  16.500  0.0880 -0.7793 -0.4135
 2732TIP3    H229612   1.934   1.099  16.515 -0.3924 -0.8295  0.0467
 2733TIP3   OH229613   2.315   6.595  12.730  0.1699 -0.4488 -0.5920
 2733TIP3    H129614   2.266   6.555  12.657 -0.1798 -1.0747 -0.0211
 2733TIP3    H229615   2.374   6.657  12.687  1.1147 -1.9561 -1.5557
 2734TIP3   OH229616   5.963   0.882   4.431  0.2088 -0.4074 -0.1048
 2734TIP3    H129617   5.883   0.830   4.433 -0.3230  0.4089  1.7721
 2734TIP3    H229618   5.934   0.970   4.407  0.5666 -0.1560  0.3718
 2735TIP3   OH229619   2.964   0.018  16.684 -0.2872 -0.3407  0.2545
 2735TIP3    H129620   3.044   0.066  16.705 -0.0995 -0.2581 -0.6068
 2735TIP3    H229621   2.899   0.050  16.747  0.5122 -0.8686  1.3729
 2736TIP3   OH229622   1.638   3.917  14.310 -0.3587  0.3621  0.1323
 2736TIP3    H129623   1.634   3.881  14.222  0.6832 -0.7916  0.5378
 2736TIP3    H229624   1.609   3.846  14.367  1.8423  0.0341  0.9559
 2737TIP3   OH229625   4.568   4.730   2.669 -0.0531 -0.1898  0.3417
 2737TIP3    H129626   4.540   4.755   2.581 -0.1931 -1.2489  0.0690
 2737TIP3    H229627   4.660   4.757   2.674  0.1090 -0.5865 -0.3269
 2738TIP3   OH229628   0.711   0.377   1.228  0.0723 -0.1709  0.5494
 2738TIP3    H129629   0.778   0.426   1.274  0.1277  0.2817 -0.0097
 2738TIP3    H229630   0.631   0.393   1.278 -0.0193  0.9214  0.0806
 2739TIP3   OH229631   5.521   5.941   3.024 -0.3490 -0.1046 -0.3568
 2739TIP3    H129632   5.462   5.884   2.975  0.6443 -0.0531 -1.6693
 2739TIP3    H229633   5.559   5.885   3.092 -0.2449 -0.7139 -0.9111
 2740TIP3   OH229634   3.033   1.934   6.367  0.9489  0.0064 -0.0952
 2740TIP3    H129635   3.046   1.875   6.293 -1.5574 -1.1748  0.2808
 2740TIP3    H229636   2.962   1.992   6.339  1.0580  0.5810  0.7876
 2741TIP3   OH229637   0.779   3.711  14.716  0.5994 -0.1282 -0.1329
 2741TIP3    H129638   0.752   3.627  14.752  0.1022 -0.3142 -0.8967
 2741TIP3    H229639   0.828   3.688  14.636  1.3444  0.2765  0.1952
 2742TIP3   OH229640   5.394   2.864  12.854 -0.1784  0.2794  0.5717
 2742TIP3    H129641   5.373   2.831  12.941  0.4147  0.8169  0.9339
 2742TIP3    H229642   5.354   2.802  12.793  1.6911 -1.6355  1.2048
 2743TIP3   OH229643   6.566   4.140   4.602 -0.3064 -0.4867  0.0584
 2743TIP3    H129644   6.483   4.123   4.645 -1.0245  1.0101 -0.6582
 2743TIP3    H229645   6.600   4.219   4.644  0.0406 -0.2579 -0.6283
 2744TIP3   OH229646   0.859   3.837   3.668  0.0736 -0.8601 -0.2693
 2744TIP3    H129647   0.928   3.897   3.696 -2.4254  2.8754 -1.4046
 2744TIP3    H229648   0.866   3.835   3.573 -1.1825 -0.6791 -0.3799
 2745TIP3   OH229649   4.228   3.317   4.013 -0.1378  0.3517 -0.5698
 2745TIP3    H129650   4.169   3.242   4.018 -0.2281  0.4688  0.3655
 2745TIP3    H229651   4.186   3.377   3.951 -0.3389 -0.1367 -0.9064
 2746TIP3   OH229652   3.219   0.744   6.305  0.2076 -0.7738  0.3804
 2746TIP3    H129653   3.236   0.690   6.382 -1.0409 -0.7036  0.7352
 2746TIP3    H229654   3.218   0.834   6.339 -3.4550 -0.8781  1.0161
 2747TIP3   OH229655   5.754   1.250   5.592 -0.2810 -0.0625  0.1143
 2747TIP3    H129656   5.768   1.185   5.661 -1.2911 -0.8429 -0.3919
 2747TIP3    H229657   5.824   1.232   5.529  0.3939  0.3833  0.7135
 2748TIP3   OH229658   5.231   2.913  16.379 -0.2008  0.0192  0.9133
 2748TIP3    H129659   5.271   2.995  16.407  1.9129 -0.6890  0.2636
 2748TIP3    H229660   5.273   2.846  16.433  1.0632 -0.9587 -1.1159
 2749TIP3   OH229661   1.198   0.520  15.605 -0.3133  0.5332  0.6963
 2749TIP3    H129662   1.157   0.437  15.582 -2.0804  1.9869 -2.1376
 2749TIP3    H229663   1.154   0.548  15.685 -0.9230 -0.4675  0.7207
 2750TIP3   OH229664   5.550   6.689  14.072 -0.6391  0.8046  0.1914
 2750TIP3    H129665   5.565   6.725  13.985  0.1484 -0.2303 -0.1213
 2750TIP3    H229666   5.635   6.652  14.098 -0.7442  1.4784  1.5823
 2751TIP3   OH229667   3.860   2.922  14.396  0.6857 -0.7771  0.5071
 2751TIP3    H129668   3.808   2.990  14.438  1.4706  0.2615 -0.1587
 2751TIP3    H229669   3.925   2.897  14.461 -1.0342 -2.6436  1.6422
 2752TIP3   OH229670   0.687   1.528   1.613  0.3403  0.3943  0.4312
 2752TIP3    H129671   0.598   1.495   1.598 -0.7875  3.3387 -0.0655
 2752TIP3    H229672   0.719   1.553   1.527 -0.0849  3.1903  0.9751
 2753TIP3   OH229673   0.292   3.477   1.309 -0.1764  0.5897 -0.8826
 2753TIP3    H129674   0.287   3.475   1.214 -0.7797 -0.1150 -0.8489
 2753TIP3    H229675   0.257   3.391   1.336 -0.6810  1.0569 -0.0107
 2754TIP3   OH229676   2.570   6.417   4.988 -0.1618  0.0179  0.3591
 2754TIP3    H129677   2.487   6.451   4.956 -0.8331 -0.3956  1.6022
 2754TIP3    H229678   2.575   6.446   5.079  1.2263  0.3320  0.2141
 2755TIP3   OH229679   0.452   3.236   5.219 -0.2978  0.0521  0.8810
 2755TIP3    H129680   0.510   3.309   5.196 -0.2210 -0.2073  0.2194
 2755TIP3    H229681   0.364   3.267   5.194 -0.1528 -0.4237 -0.2829
 2756TIP3   OH229682   4.410   5.397   2.240  0.1252 -0.0739 -0.9356
 2756TIP3    H129683   4.451   5.346   2.309  2.0454  2.3476 -0.1319
 2756TIP3    H229684   4.334   5.438   2.281 -0.4410 -0.9083 -1.1230
 2757TIP3   OH229685   5.201   1.971  15.631  0.0012 -0.2091  0.2149
 2757TIP3    H129686   5.182   1.964  15.538  0.8143  0.4857 -0.0115
 2757TIP3    H229687   5.296   1.973  15.637 -0.0299 -0.6580  1.0983
 2758TIP3   OH229688   2.419   6.638   3.334 -0.4251  0.0788  0.5000
 2758TIP3    H129689   2.441   6.594   3.252 -3.5344  0.0732 -0.4642
 2758TIP3    H229690   2.453   6.580   3.402  1.6046 -0.2707 -0.7480
 2759TIP3   OH229691   2.937   6.199   4.091  0.0392 -0.4435  0.1352
 2759TIP3    H129692   2.884   6.273   4.117  1.7558  1.1903 -0.7742
 2759TIP3    H229693   3.025   6.219   4.126 -0.0217 -3.5420  2.5614
 2760TIP3   OH229694   1.685   1.144   6.767  0.7206 -0.1331  0.1317
 2760TIP3    H129695   1.747   1.151   6.839  0.8480  0.1017 -0.0001
 2760TIP3    H229696   1.599   1.140   6.809  0.8449 -0.8011  0.3286
 2761TIP3   OH229697   0.344   6.733   3.697 -0.3307 -0.2782 -0.2597
 2761TIP3    H129698   0.296   6.806   3.659 -0.7769 -0.8959 -0.9129
 2761TIP3    H229699   0.369   6.679   3.622  0.3962 -0.5617  0.1721
 2762TIP3   OH229700   5.936   3.472  12.052  0.0001  0.1384 -0.3916
 2762TIP3    H129701   6.011   3.529  12.039  0.3120  0.0048  0.6807
 2762TIP3    H229702   5.917   3.436  11.965  2.2323 -1.1322 -0.4231
 2763TIP3   OH229703   1.366   1.776  13.904  0.0790  0.4528 -0.4629
 2763TIP3    H129704   1.420   1.791  13.982 -0.4308 -2.6837  0.6407
 2763TIP3    H229705   1.429   1.753  13.835  0.3999  1.0802 -0.3836
 2764TIP3   OH229706   2.082   1.372   0.939  0.0560  0.1389  0.3425
 2764TIP3    H129707   2.148   1.329   0.886 -0.3994  0.0074 -0.1234
 2764TIP3    H229708   2.131   1.407   1.013  0.5521 -0.5089  0.3379
 2765TIP3   OH229709   1.234   5.172  14.699  0.8289  0.2011 -0.0922
 2765TIP3    H129710   1.190   5.096  14.736 -2.1590  0.9921 -1.7319
 2765TIP3    H229711   1.315   5.138  14.662 -0.4262 -2.2065 -0.8024
 2766TIP3   OH229712   0.372   1.944  13.543 -0.1749 -0.0580  0.1420
 2766TIP3    H129713   0.346   2.012  13.481 -2.4917  0.1356  1.2127
 2766TIP3    H229714   0.384   1.990  13.626 -0.2721 -0.7359  0.5421
 2767TIP3   OH229715   6.366   0.725   4.729 -0.0771 -0.3014 -0.3347
 2767TIP3    H129716   6.340   0.816   4.747 -0.0735 -0.2283 -0.6998
 2767TIP3    H229717   6.306   0.696   4.660  0.1830 -0.4464 -0.5021
 2768TIP3   OH229718   4.963   6.592   3.442 -0.3104  0.2111 -0.1893
 2768TIP3    H129719   4.956   6.688   3.443 -0.2445  0.2202 -0.4900
 2768TIP3    H229720   5.027   6.572   3.511  0.3112  0.4380 -0.6879
 2769TIP3   OH229721   1.293   4.741   2.359 -0.9312 -0.2571 -0.6561
 2769TIP3    H129722   1.287   4.786   2.443 -0.5235  0.1373 -0.8312
 2769TIP3    H229723   1.210   4.759   2.316 -1.0099 -0.1790 -0.4737
 2770TIP3   OH229724   2.043   0.659  15.217 -0.0113 -0.5876  0.5565
 2770TIP3    H129725   2.063   0.582  15.164 -0.4345 -0.8408  0.7623
 2770TIP3    H229726   2.128   0.701  15.230 -0.2312  1.4456 -3.2420
 2771TIP3   OH229727   6.583   4.557   1.038 -0.3938  0.3988  0.3721
 2771TIP3    H129728   6.642   4.563   0.963 -1.3412 -1.3916 -0.5849
 2771TIP3    H229729   6.526   4.634   1.031 -0.8343 -0.0270 -1.1196
 2772TIP3   OH229730   0.712   1.548   0.560  0.2070  0.3291 -0.0932
 2772TIP3    H129731   0.795   1.580   0.595  1.0429 -1.4049 -0.3744
 2772TIP3    H229732   0.653   1.549   0.635  0.3883  1.7974  0.0604
 2773TIP3   OH229733   0.983   6.587   1.622 -0.0384 -0.9582  0.4020
 2773TIP3    H129734   1.016   6.540   1.699 -0.0187 -0.3239  0.7811
 2773TIP3    H229735   0.946   6.518   1.567  0.2847 -1.4629  0.8038
 2774TIP3   OH229736   1.030   4.458  12.108  0.5354 -0.4799 -0.2521
 2774TIP3    H129737   0.976   4.447  12.030  0.5803 -0.5967 -0.2669
 2774TIP3    H229738   1.120   4.443  12.077  0.6188  0.1502 -0.3186
 2775TIP3   OH229739   6.223   1.321  13.073  0.2837  0.0458 -0.4880
 2775TIP3    H129740   6.235   1.415  13.081 -0.6000  0.0683  1.0124
 2775TIP3    H229741   6.292   1.293  13.013  1.6033  1.4181  0.3057
 2776TIP3   OH229742   4.941   4.184  13.736  0.0631 -0.6650 -0.5234
 2776TIP3    H129743   4.907   4.095  13.733 -0.6566 -0.3811 -0.9318
 2776TIP3    H229744   4.992   4.188  13.817  0.2651 -1.4999 -0.5979
 2777TIP3   OH229745   1.151   2.106  16.238 -0.2061 -0.5210  0.0280
 2777TIP3    H129746   1.062   2.075  16.222 -0.3143  0.0323 -0.5038
 2777TIP3    H229747   1.173   2.156  16.159  0.0408  0.5562  0.7553
 2778TIP3   OH229748   6.470   4.444  16.632  0.1019 -0.6502  0.2187
 2778TIP3    H129749   6.484   4.528  16.587 -1.3740  1.3474  3.1499
 2778TIP3    H229750   6.379   4.422  16.613  0.6167 -1.9513 -0.9361
 2779TIP3   OH229751   2.310   0.429   2.151  0.3124  0.2658 -0.1367
 2779TIP3    H129752   2.362   0.349   2.147  0.2636  0.0202  2.6316
 2779TIP3    H229753   2.374   0.500   2.153  0.4014  0.2082 -0.7441
 2780TIP3   OH229754   3.951   5.955   1.388  0.0170 -0.1186  0.1769
 2780TIP3    H129755   4.005   5.978   1.312 -1.1877  1.3339 -0.2863
 2780TIP3    H229756   3.977   6.017   1.456 -3.3286  3.1079 -1.1161
 2781TIP3   OH229757   0.746   6.235   2.866 -0.5997  0.1857  0.1325
 2781TIP3    H129758   0.753   6.330   2.862  0.4595  0.0947 -0.7465
 2781TIP3    H229759   0.653   6.217   2.854 -0.7796  1.0983  0.1006
 2782TIP3   OH229760   1.037   2.158   1.713  0.2521  0.0765 -0.1203
 2782TIP3    H129761   1.043   2.197   1.626 -0.2425 -0.4878 -0.4146
 2782TIP3    H229762   1.046   2.064   1.699 -1.6390 -0.2031  0.1973
 2783TIP3   OH229763   2.761   4.729  11.269  0.4478  0.2988  0.3980
 2783TIP3    H129764   2.831   4.723  11.334 -0.4922 -0.8982  1.3704
 2783TIP3    H229765   2.803   4.764  11.191  2.0007  0.1472  1.1261
 2784TIP3   OH229766   5.274   1.019  11.786  0.1994 -0.2193  0.1201
 2784TIP3    H129767   5.309   1.049  11.703 -2.0148 -1.0602 -1.2001
 2784TIP3    H229768   5.350   1.016  11.845  1.7511  0.7442 -1.7350
 2785TIP3   OH229769   3.229   2.455  12.706  0.0183  0.2565  0.0988
 2785TIP3    H129770   3.239   2.436  12.613 -1.2362  1.6632 -0.3619
 2785TIP3    H229771   3.214   2.369  12.747 -1.0487 -0.2153 -1.2299
 2786TIP3   OH229772   1.549   0.782   3.873 -0.2911  0.0393 -0.1918
 2786TIP3    H129773   1.544   0.721   3.799 -0.3311 -2.1723  1.5563
 2786TIP3    H229774   1.639   0.778   3.903 -0.3299  0.7450  0.0518
 2787TIP3   OH229775   1.762   3.753  10.983  0.2928 -0.1165 -0.2771
 2787TIP3    H129776   1.772   3.817  11.053  2.2087 -0.8476  0.1875
 2787TIP3    H229777   1.763   3.805  10.903 -3.0652  0.8441  0.1852
 2788TIP3   OH229778   4.703   4.465   2.053  0.0753 -0.0199 -0.0431
 2788TIP3    H129779   4.615   4.470   2.091  0.4992  0.5081  0.9261
 2788TIP3    H229780   4.735   4.556   2.056  1.1115 -0.3917  0.7864
 2789TIP3   OH229781   4.433   2.164  14.416  0.3823  0.0777  0.0379
 2789TIP3    H129782   4.389   2.111  14.349  1.1295  0.3785 -0.7196
 2789TIP3    H229783   4.363   2.192  14.474  0.0347 -2.1997  0.8125
 2790TIP3   OH229784   3.190   0.757  15.392  0.1727  0.1462  0.0240
 2790TIP3    H129785   3.152   0.680  15.436 -1.4390  0.4087 -0.8139
 2790TIP3    H229786   3.275   0.727  15.360  0.4627 -0.6627  1.4841
 2791TIP3   OH229787   3.915   1.320   0.727  0.2700 -0.3635 -0.3127
 2791TIP3    H129788   3.874   1.339   0.643  0.2652  1.3222  0.0350
 2791TIP3    H229789   3.999   1.280   0.705 -0.6516 -1.9846 -1.0564
 2792TIP3   OH229790   6.338   6.429  11.501 -0.4541 -0.1698 -0.4068
 2792TIP3    H129791   6.404   6.383  11.554  0.2928 -0.0571 -1.2111
 2792TIP3    H229792   6.282   6.359  11.468 -2.1877 -0.1038  2.1050
 2793TIP3   OH229793   4.720   0.383  13.684 -0.0959 -0.3201 -0.1745
 2793TIP3    H129794   4.766   0.458  13.721 -1.9393 -0.2641  2.2347
 2793TIP3    H229795   4.627   0.403  13.696 -0.6960 -2.1452 -1.2624
 2794TIP3   OH229796   5.401   6.403   3.004  0.3693 -0.9041  0.5017
 2794TIP3    H129797   5.436   6.460   3.072 -1.3601  1.0740 -0.1607
 2794TIP3    H229798   5.460   6.328   3.002  1.6696 -0.0117  2.6949
 2795TIP3   OH229799   6.174   5.272   2.722 -0.3427  0.3137 -0.7015
 2795TIP3    H129800   6.212   5.334   2.785  0.7476  0.5109 -1.5161
 2795TIP3    H229801   6.102   5.231   2.770  0.9552 -0.1409  0.9658
 2796TIP3   OH229802   5.544   3.288   2.949 -0.1451  0.9516  0.1543
 2796TIP3    H129803   5.611   3.319   2.888 -0.8533 -0.8255 -1.6520
 2796TIP3    H229804   5.586   3.217   2.997 -0.2789  0.8475  0.1183
 2797TIP3   OH229805   3.498   1.006   4.220  0.3431 -0.2467  0.4602
 2797TIP3    H129806   3.522   1.051   4.301  1.9983  0.5136 -0.4110
 2797TIP3    H229807   3.413   1.045   4.197  1.7900  2.7836 -0.3776
 2798TIP3   OH229808   0.922   4.230  11.208  0.3870  0.3299 -0.2440
 2798TIP3    H129809   0.966   4.304  11.251  1.0496  0.0856 -0.4893
 2798TIP3    H229810   0.900   4.262  11.121  1.3798  0.0023 -0.6311
 2799TIP3   OH229811   1.911   1.612  15.577 -0.5433  0.1251 -1.3170
 2799TIP3    H129812   1.948   1.651  15.497 -2.9987  1.0396 -2.1003
 2799TIP3    H229813   1.875   1.528  15.548 -0.2926 -0.1423 -0.8626
 2800TIP3   OH229814   3.084   6.145  14.562 -0.3495  0.3954 -0.3750
 2800TIP3    H129815   3.083   6.240  14.554 -0.0536  0.6221  1.7867
 2800TIP3    H229816   3.176   6.122  14.570 -0.5437  0.2692  2.0474
 2801TIP3   OH229817   5.577   1.643   3.145  0.0305 -0.5843 -0.3422
 2801TIP3    H129818   5.623   1.604   3.071  0.8124  0.5764 -0.4922
 2801TIP3    H229819   5.641   1.640   3.217  0.2347  0.7247 -0.4582
 2802TIP3   OH229820   6.393   1.529  10.659  0.5450 -0.2403 -0.1335
 2802TIP3    H129821   6.334   1.530  10.734  0.5920 -0.0666 -0.0987
 2802TIP3    H229822   6.420   1.621  10.648  1.8328 -0.5096  0.6514
 2803TIP3   OH229823   0.151   5.690  14.003  0.1821 -0.2613  1.1788
 2803TIP3    H129824   0.238   5.727  14.015  1.1453 -1.5892 -1.0048
 2803TIP3    H229825   0.163   5.595  14.011 -0.7603 -0.5677 -0.4723
 2804TIP3   OH229826   3.647   3.726  16.392 -0.2660 -0.1075 -0.7351
 2804TIP3    H129827   3.646   3.800  16.452 -1.5866 -2.0726  1.8617
 2804TIP3    H229828   3.737   3.721  16.362  0.2659  1.4462  0.4475
 2805TIP3   OH229829   1.468   3.240   0.765 -0.0741 -0.0604  0.0819
 2805TIP3    H129830   1.427   3.276   0.686  0.8552  1.2888  0.1994
 2805TIP3    H229831   1.486   3.148   0.742  0.0183  0.2627 -1.2132
 2806TIP3   OH229832   3.719   5.380   1.169  0.0015 -0.2704  0.2913
 2806TIP3    H129833   3.787   5.382   1.102 -0.1311 -0.3684  0.1537
 2806TIP3    H229834   3.746   5.447   1.232  0.5435 -0.7319  0.5514
 2807TIP3   OH229835   2.069   2.364   1.879 -0.4768  0.1430 -0.0391
 2807TIP3    H129836   1.998   2.398   1.934 -0.6130  3.3101 -1.9454
 2807TIP3    H229837   2.074   2.425   1.805  1.7433 -2.1337 -1.9644
 2808TIP3   OH229838   1.106   3.922  16.400 -0.0836  0.0326 -0.0069
 2808TIP3    H129839   1.060   3.995  16.358  0.1042  1.1986  1.7012
 2808TIP3    H229840   1.195   3.955  16.415  0.6333 -1.3182 -1.0553
 2809TIP3   OH229841   2.750   1.199  12.097  0.2543 -0.4954 -0.2913
 2809TIP3    H129842   2.758   1.145  12.176 -0.6528  1.0767  0.9499
 2809TIP3    H229843   2.672   1.166  12.053 -0.1402 -0.3871  0.3151
 2810TIP3   OH229844   1.582   2.776   2.185  0.6997 -0.1074 -0.6339
 2810TIP3    H129845   1.582   2.862   2.226  0.1964  0.1507 -1.1601
 2810TIP3    H229846   1.537   2.720   2.248 -0.0415  0.2794 -0.8120
 2811TIP3   OH229847   0.015   3.475  15.999  0.1815 -0.4916  0.3170
 2811TIP3    H129848   0.087   3.529  15.966  0.4179 -1.2016 -0.3845
 2811TIP3    H229849   0.035   3.387  15.966 -1.9279 -0.4073 -1.4568
 2812TIP3   OH229850   6.051   4.680   3.320 -0.0105 -0.5096  0.4877
 2812TIP3    H129851   6.043   4.759   3.268  0.4092 -0.9586 -0.2732
 2812TIP3    H229852   6.102   4.707   3.397  0.3699 -0.1050  0.0995
 2813TIP3   OH229853   4.704   2.021   6.048 -0.5284  0.2009  0.6301
 2813TIP3    H129854   4.665   2.100   6.086 -1.6913  1.1927 -2.3346
 2813TIP3    H229855   4.690   1.953   6.114 -0.0571  2.2811  3.0328
 2814TIP3   OH229856   0.432   1.348   6.822  0.3376  0.2605 -0.2907
 2814TIP3    H129857   0.497   1.279   6.837  1.1327  1.1322  0.3484
 2814TIP3    H229858   0.483   1.424   6.794 -0.4247  0.8983  0.0158
 2815TIP3   OH229859   2.528   2.777   5.125 -0.1754 -0.0895  0.6532
 2815TIP3    H129860   2.578   2.753   5.203  2.3480  1.4715 -0.3885
 2815TIP3    H229861   2.537   2.702   5.066  2.7202  0.8475 -0.2725
 2816TIP3   OH229862   6.567   0.031  11.264  0.2695  0.1934 -0.4700
 2816TIP3    H129863   6.527   0.006  11.347 -0.6929 -0.8859 -1.2323
 2816TIP3    H229864   6.565  -0.049  11.211  1.4732  0.6835 -1.3119
 2817TIP3   OH229865   1.590   3.054   2.287 -0.0244  0.4402  0.4790
 2817TIP3    H129866   1.662   3.108   2.320 -0.0961  0.9342 -0.1409
 2817TIP3    H229867   1.532   3.117   2.244 -1.1683  0.1450  1.5398
 2818TIP3   OH229868   6.549   5.575  16.183 -0.2817  0.5654  0.4046
 2818TIP3    H129869   6.644   5.579  16.186 -0.1454 -1.5238  0.3872
 2818TIP3    H229870   6.526   5.605  16.095  0.2114  2.4988  0.8941
 2819TIP3   OH229871   3.959   4.646   0.879 -0.2559 -0.4877 -0.0816
 2819TIP3    H129872   3.913   4.636   0.963  0.8863  0.0808  0.6361
 2819TIP3    H229873   3.925   4.727   0.842 -0.5165 -0.5573  0.0079
 2820TIP3   OH229874   3.606   0.760   1.268 -0.8123 -0.4329 -0.1841
 2820TIP3    H129875   3.597   0.744   1.362 -1.3030 -2.2908 -0.4939
 2820TIP3    H229876   3.687   0.811   1.259 -0.8974 -0.0307  1.2622
 2821TIP3   OH229877   1.582   3.935   5.563 -0.1002  0.3600  0.2016
 2821TIP3    H129878   1.655   3.966   5.616 -0.6812  2.0698  0.0804
 2821TIP3    H229879   1.614   3.854   5.523  1.4121  0.6285  0.7835
 2822TIP3   OH229880   0.597   1.948   1.413  0.1827  0.0238 -0.0909
 2822TIP3    H129881   0.609   2.002   1.335  0.7726 -0.4129 -0.3072
 2822TIP3    H229882   0.678   1.961   1.463  0.1412 -0.3200  0.0656
 2823TIP3   OH229883   1.772   0.230  13.694  0.2071  0.2137  0.2987
 2823TIP3    H129884   1.777   0.210  13.600  0.2221  0.9123  0.1475
 2823TIP3    H229885   1.826   0.308  13.705 -2.4153  2.1909  0.2662
 2824TIP3   OH229886   3.756   6.699  15.717 -0.0741 -0.0191 -0.0592
 2824TIP3    H129887   3.759   6.729  15.808  1.8084 -0.7749  0.1631
 2824TIP3    H229888   3.711   6.615  15.722  2.6421 -1.5440  0.6973
 2825TIP3   OH229889   2.356   6.669   4.292 -0.3502 -0.2138  0.2263
 2825TIP3    H129890   2.274   6.645   4.250 -1.7202  1.1719  1.9644
 2825TIP3    H229891   2.344   6.759   4.321  1.3717 -0.3251  1.4888
 2826TIP3   OH229892   2.805   1.330  14.644  0.4970 -0.3002 -0.0994
 2826TIP3    H129893   2.739   1.280  14.691  0.2633  1.5240  1.6605
 2826TIP3    H229894   2.757   1.404  14.607  1.4185  0.7321  0.7123
 2827TIP3   OH229895   6.441   3.756   6.049 -0.3239 -0.2864  0.5083
 2827TIP3    H129896   6.392   3.676   6.067  1.7852 -1.3716  1.7838
 2827TIP3    H229897   6.439   3.804   6.132 -2.1428  1.3931 -0.4261
 2828TIP3   OH229898   3.843   2.976   2.221  0.2895  0.2391 -0.3469
 2828TIP3    H129899   3.796   3.032   2.283 -0.1798 -1.6158  1.0538
 2828TIP3    H229900   3.936   2.992   2.240  0.1506 -0.0122  0.5640
 2829TIP3   OH229901   2.289   5.432  14.316  0.6739  0.2148  0.2215
 2829TIP3    H129902   2.355   5.363  14.327 -0.4011 -0.7567  0.8715
 2829TIP3    H229903   2.247   5.438  14.401 -0.0922  0.7863 -0.1863
 2830TIP3   OH229904   1.720   3.518  13.604 -0.6376 -0.0415 -0.0848
 2830TIP3    H129905   1.791   3.572  13.638  1.0469 -2.9724  1.5187
 2830TIP3    H229906   1.730   3.521  13.509  0.7914  0.6993  0.0705
 2831TIP3   OH229907   1.855   3.843   4.914  0.2078  0.1367  0.0329
 2831TIP3    H129908   1.766   3.876   4.899  0.3847  2.0998  2.6860
 2831TIP3    H229909   1.858   3.825   5.008  1.8349 -2.5670 -0.4327
 2832TIP3   OH229910   1.200   1.388  14.898 -0.5295  0.3112  0.7770
 2832TIP3    H129911   1.250   1.427  14.970  0.9457  0.0076 -0.0574
 2832TIP3    H229912   1.233   1.299  14.891  1.4120  1.1019 -2.0117
 2833TIP3   OH229913   2.786   0.321   6.388 -0.3918  0.7828 -0.1757
 2833TIP3    H129914   2.817   0.397   6.339 -0.3919  0.8068 -0.1388
 2833TIP3    H229915   2.691   0.323   6.377 -0.5144  1.4995  0.8305
 2834TIP3   OH229916   3.557   2.791   0.463 -0.2997 -0.1408  0.0372
 2834TIP3    H129917   3.481   2.742   0.431 -2.2163  1.9555  1.0129
 2834TIP3    H229918   3.570   2.760   0.553 -0.6071  0.1178  0.1747
 2835TIP3   OH229919   5.978   5.135   2.803  0.1394  0.0380  0.1373
 2835TIP3    H129920   5.965   5.056   2.855  0.8345 -0.3762 -0.3095
 2835TIP3    H229921   5.993   5.104   2.714  0.9336  0.6360  0.0513
 2836TIP3   OH229922   5.643   4.781  16.809 -0.2354  0.1866 -0.2760
 2836TIP3    H129923   5.609   4.871  16.812 -2.1561 -0.5108  0.7964
 2836TIP3    H229924   5.700   4.775  16.886 -2.8859 -0.4446  1.8040
 2837TIP3   OH229925   2.320   4.970  11.389 -0.0206  0.5528 -0.1042
 2837TIP3    H129926   2.298   4.916  11.314 -0.0540  0.0689  0.2509
 2837TIP3    H229927   2.262   5.046  11.382  0.6662  1.0014 -1.1055
 2838TIP3   OH229928   5.872   6.546   6.057 -0.3845  0.3203 -0.5868
 2838TIP3    H129929   5.934   6.474   6.048 -1.7560 -1.0440  0.4944
 2838TIP3    H229930   5.926   6.625   6.049  1.3714 -0.8129 -0.3914
 2839TIP3   OH229931   0.404   0.268   0.088  0.2064 -0.5851  0.3624
 2839TIP3    H129932   0.443   0.209   0.152 -0.2610 -0.6333  0.6087
 2839TIP3    H229933   0.476   0.291   0.029  0.4461 -1.1952  0.4157
 2840TIP3   OH229934   3.989   3.248   5.054  0.6736 -0.1930 -0.8131
 2840TIP3    H129935   4.084   3.252   5.064  0.5714 -1.9293  1.6888
 2840TIP3    H229936   3.975   3.194   4.976  1.7498 -0.6944 -0.6737
 2841TIP3   OH229937   0.263   4.795   2.942  0.3021 -0.0684  0.4981
 2841TIP3    H129938   0.205   4.850   2.890  0.1666 -1.5928 -1.0755
 2841TIP3    H229939   0.211   4.717   2.962  0.5388  0.2426  2.5179
 2842TIP3   OH229940   2.788   5.740  16.540  0.0093  0.4677  0.0503
 2842TIP3    H129941   2.704   5.756  16.497  1.7564  1.7327 -3.2630
 2842TIP3    H229942   2.811   5.824  16.579 -0.5100 -0.0686  1.5884
 2843TIP3   OH229943   3.085   3.284  16.795 -0.0574  0.8169 -0.2423
 2843TIP3    H129944   3.056   3.303  16.885  0.0604 -0.6350  0.1329
 2843TIP3    H229945   3.056   3.194  16.779  0.3918  0.8752 -1.4749
 2844TIP3   OH229946   0.912   5.600  15.912  0.0377 -0.0520  0.4940
 2844TIP3    H129947   0.830   5.612  15.959 -0.5256  0.5622 -0.6089
 2844TIP3    H229948   0.900   5.519  15.862  0.1846 -0.0765  0.4972
 2845TIP3   OH229949   2.724   2.292  14.754 -0.2081  0.4191  0.0219
 2845TIP3    H129950   2.732   2.323  14.664 -0.2307 -1.5382 -0.7035
 2845TIP3    H229951   2.803   2.241  14.770 -0.7564 -0.2622  0.6799
 2846TIP3   OH229952   5.383   0.176   1.381  0.4367  0.4659  0.2223
 2846TIP3    H129953   5.438   0.254   1.375 -0.7559  1.3306  0.2156
 2846TIP3    H229954   5.406   0.125   1.303  0.4848  1.3234 -0.3428
 2847TIP3   OH229955   5.004   2.241  12.159  0.2432  0.0985 -0.1076
 2847TIP3    H129956   4.957   2.263  12.079 -0.0301 -0.4653 -0.1032
 2847TIP3    H229957   5.080   2.300  12.158 -0.8323  1.5688  0.2743
 2848TIP3   OH229958   1.253   3.846   5.288 -0.2613 -0.3144  0.4230
 2848TIP3    H129959   1.267   3.937   5.264  3.2643 -0.7491  0.2350
 2848TIP3    H229960   1.236   3.848   5.382 -0.3894  0.5563  0.3868
 2849TIP3   OH229961   1.467   1.312   1.145  0.4271  0.6136 -0.1295
 2849TIP3    H129962   1.393   1.320   1.205 -0.0831 -0.1931 -0.6303
 2849TIP3    H229963   1.488   1.219   1.146 -0.6824  0.2800 -2.4538
 2850TIP3   OH229964   0.754   3.228   3.434 -0.1868 -0.3888  0.1591
 2850TIP3    H129965   0.741   3.321   3.455  0.9386  0.2083 -1.5713
 2850TIP3    H229966   0.684   3.208   3.371  0.2739 -0.3834 -0.3578
 2851TIP3   OH229967   0.429   5.206   1.094  0.5024  0.1397  0.3365
 2851TIP3    H129968   0.481   5.129   1.069 -0.9274 -0.3171 -1.5580
 2851TIP3    H229969   0.458   5.275   1.034 -0.2404  0.2160  0.0585
 2852TIP3   OH229970   1.543   1.338   5.715 -0.5133  0.4045 -0.1117
 2852TIP3    H129971   1.473   1.271   5.712 -0.8153  0.7519 -1.8281
 2852TIP3    H229972   1.580   1.329   5.803 -1.1459 -1.4078  0.0197
 2853TIP3   OH229973   1.658   1.556   3.563 -0.3765  0.6012 -0.0460
 2853TIP3    H129974   1.719   1.603   3.619  1.6908 -1.3106 -0.5342
 2853TIP3    H229975   1.629   1.481   3.616  0.7298 -0.6003 -1.0600
 2854TIP3   OH229976   0.555   3.541  14.101 -0.2623  0.2453 -0.3605
 2854TIP3    H129977   0.645   3.512  14.091 -1.0599 -1.5072 -4.0951
 2854TIP3    H229978   0.511   3.468  14.144 -0.2371  0.4041 -0.0620
 2855TIP3   OH229979   4.878   5.802   1.046 -0.7861 -0.3583  0.2268
 2855TIP3    H129980   4.816   5.836   1.111  0.6556  0.6828  1.1111
 2855TIP3    H229981   4.891   5.710   1.071 -2.3661 -0.7522 -0.3105
 2856TIP3   OH229982   4.772   2.270  15.767  0.3956 -0.6474 -0.6188
 2856TIP3    H129983   4.777   2.302  15.677 -0.3949 -1.3967 -0.9543
 2856TIP3    H229984   4.853   2.220  15.779  1.2182  0.6970 -0.3819
 2857TIP3   OH229985   3.464   4.230   0.822  0.0512 -0.5483 -0.6663
 2857TIP3    H129986   3.439   4.196   0.736  0.7605 -1.1209 -0.6568
 2857TIP3    H229987   3.462   4.325   0.813  2.1622 -0.5624 -1.9471
 2858TIP3   OH229988   2.691   2.029  12.364 -0.3898 -0.3641 -0.2120
 2858TIP3    H129989   2.630   1.960  12.337  0.6704 -1.4695  0.1218
 2858TIP3    H229990   2.640   2.110  12.359 -2.2085 -1.3660  1.1085
 2859TIP3   OH229991   1.483   3.719   1.931  0.4774  0.3382 -0.0517
 2859TIP3    H129992   1.431   3.761   1.863 -3.0887 -1.4994  1.2624
 2859TIP3    H229993   1.536   3.655   1.885 -2.3335 -1.3292 -1.2645
 2860TIP3   OH229994   0.283   2.799   1.791 -0.0210  0.5615  0.1758
 2860TIP3    H129995   0.335   2.732   1.747 -0.3156 -1.0216  2.1299
 2860TIP3    H229996   0.195   2.761   1.797 -0.4319  1.5243  0.4929
 2861TIP3   OH229997   2.383   3.299  14.247  0.4333 -0.3689  0.1681
 2861TIP3    H129998   2.410   3.386  14.276 -0.5243  0.0609 -0.1751
 2861TIP3    H229999   2.411   3.240  14.316  0.3099  0.3341  0.8270
 2862TIP3   OH230000   1.533   4.877   5.752 -0.1034 -0.1415  0.2133
 2862TIP3    H130001   1.475   4.815   5.797  0.3347 -0.7253 -0.0133
 2862TIP3    H230002   1.530   4.851   5.660  1.5061 -1.0318  0.3602
 2863TIP3   OH230003   2.166   4.468   6.123 -0.6499  0.2340 -0.5711
 2863TIP3    H130004   2.117   4.492   6.202 -0.7787  0.8369 -0.8262
 2863TIP3    H230005   2.101   4.425   6.067 -0.5268 -0.3153 -0.2986
 2864TIP3   OH230006   6.188   4.279  14.619 -0.5661  0.2190  0.4330
 2864TIP3    H130007   6.220   4.189  14.622  0.0550  0.4463  0.6987
 2864TIP3    H230008   6.093   4.270  14.609 -0.5279 -0.4646  0.6371
 2865TIP3   OH230009   4.142   1.447   2.456  0.0398 -0.3586 -0.7175
 2865TIP3    H130010   4.116   1.470   2.545 -2.3767 -3.4598 -0.4384
 2865TIP3    H230011   4.110   1.519   2.401 -1.2500  0.1307  0.6200
 2866TIP3   OH230012   1.666   1.149  10.553  0.0163 -0.3914 -0.5417
 2866TIP3    H130013   1.601   1.085  10.581 -1.3092  1.2384  0.2950
 2866TIP3    H230014   1.630   1.187  10.473  0.3479 -0.0833 -0.5468
 2867TIP3   OH230015   2.713   5.323  12.042 -0.0159  0.3389 -0.6037
 2867TIP3    H130016   2.759   5.271  11.977  1.7089  0.5812  0.3514
 2867TIP3    H230017   2.699   5.263  12.116  2.2269  1.1820  0.6135
 2868TIP3   OH230018   6.611   4.527  10.855  0.3821 -0.4769  0.3923
 2868TIP3    H130019   6.650   4.457  10.803  1.1048 -0.8074  1.3525
 2868TIP3    H230020   6.609   4.493  10.945 -0.2284  0.3298  0.6997
 2869TIP3   OH230021   6.373   6.363   5.183 -0.3826  0.6116 -0.3514
 2869TIP3    H130022   6.367   6.455   5.155 -1.7628  0.7240  0.2840
 2869TIP3    H230023   6.320   6.315   5.120 -1.8368  0.6080  0.8274
 2870TIP3   OH230024   0.712   4.896   2.370  0.2742  0.1644  0.4975
 2870TIP3    H130025   0.683   4.957   2.302  1.1236  1.2999  1.0947
 2870TIP3    H230026   0.670   4.813   2.349 -0.8282  0.9309 -0.4272
 2871TIP3   OH230027   6.009   6.443   0.384  0.6567  0.2216 -0.6772
 2871TIP3    H130028   6.032   6.350   0.378  0.9710  0.2802 -0.3762
 2871TIP3    H230029   5.943   6.456   0.315  1.4204  0.0184 -1.4661
 2872TIP3   OH230030   1.098   0.237   1.535 -0.0042 -0.1799  0.4360
 2872TIP3    H130031   1.033   0.189   1.483 -0.7896 -0.1584  1.3631
 2872TIP3    H230032   1.051   0.315   1.565  0.8254  0.4372  0.1465
 2873TIP3   OH230033   0.254   1.574  14.521  0.1662 -0.2509 -0.2694
 2873TIP3    H130034   0.274   1.508  14.588 -1.9821  1.0206  1.7458
 2873TIP3    H230035   0.201   1.526  14.456 -1.7170 -0.5078  1.3692
 2874TIP3   OH230036   5.354   5.408   5.850  0.3227 -0.3908  0.0323
 2874TIP3    H130037   5.358   5.433   5.942 -0.6844 -0.3488  0.0801
 2874TIP3    H230038   5.316   5.484   5.806 -2.9647 -1.7592  0.2164
 2875TIP3   OH230039   6.199   3.560   3.259  0.0895  0.2816  0.1068
 2875TIP3    H130040   6.121   3.612   3.240 -0.5491 -0.5168  0.4537
 2875TIP3    H230041   6.184   3.527   3.347  1.6843  1.6106  0.9360
 2876TIP3   OH230042   2.283   1.314  17.226  0.7487  0.0427  0.2163
 2876TIP3    H130043   2.197   1.307  17.268  0.3198  2.1673 -0.1841
 2876TIP3    H230044   2.339   1.253  17.275 -0.5368  0.0152  1.7175
 2877TIP3   OH230045   2.466   4.680  16.112 -0.3413 -0.1926 -0.0602
 2877TIP3    H130046   2.530   4.611  16.096 -0.9375 -0.9875  0.8337
 2877TIP3    H230047   2.517   4.753  16.148  0.2241 -0.3611 -0.5192
 2878TIP3   OH230048   5.740   6.452  11.778  0.1402 -0.7064  0.2067
 2878TIP3    H130049   5.695   6.434  11.695 -1.5164  0.8077  0.7007
 2878TIP3    H230050   5.683   6.415  11.845  0.5178 -0.2831  0.7717
 2879TIP3   OH230051   4.853   3.390   2.273  0.4301  0.3521  0.0628
 2879TIP3    H130052   4.798   3.357   2.344  1.5030  2.3869  1.9767
 2879TIP3    H230053   4.848   3.485   2.281  0.9965  0.6500 -2.3307
 2880TIP3   OH230054   4.842   6.039  16.255  0.2171  0.3741 -0.2889
 2880TIP3    H130055   4.927   6.006  16.285 -0.0282 -0.3459 -0.3736
 2880TIP3    H230056   4.783   6.024  16.329  0.2647  1.3211 -0.0495
 2881TIP3   OH230057   5.655   4.200  15.466 -0.1429 -0.3667 -0.2120
 2881TIP3    H130058   5.564   4.222  15.486  0.8597  2.3506  2.0754
 2881TIP3    H230059   5.679   4.134  15.531 -0.7640 -2.0554 -1.6327
 2882TIP3   OH230060   2.307   5.812   3.687  0.1700 -0.1823  0.1031
 2882TIP3    H130061   2.327   5.745   3.622  1.1858  0.4167 -0.2326
 2882TIP3    H230062   2.309   5.894   3.639 -0.4957  0.1475  0.6196
 2883TIP3   OH230063   2.816   4.267   1.856  0.0736  0.7162 -0.6372
 2883TIP3    H130064   2.855   4.196   1.805 -3.5171 -1.1296 -1.1877
 2883TIP3    H230065   2.820   4.237   1.947 -1.9409 -0.6644 -0.9152
 2884TIP3   OH230066   6.769   0.576   1.354 -0.3516 -0.4694 -0.5317
 2884TIP3    H130067   6.779   0.525   1.273 -0.5097  0.5944 -1.2362
 2884TIP3    H230068   6.684   0.619   1.345 -0.8269 -1.1130  0.6565
 2885TIP3   OH230069   4.799   6.114  16.689  0.3948  0.1824  0.1039
 2885TIP3    H130070   4.886   6.075  16.690  0.5683  0.5206 -0.8661
 2885TIP3    H230071   4.813   6.203  16.656 -0.0578  0.9141  1.7393
 2886TIP3   OH230072   6.435   2.089  11.874 -0.3675 -0.6335 -0.1957
 2886TIP3    H130073   6.520   2.127  11.848 -0.3262 -1.1886 -0.9118
 2886TIP3    H230074   6.371   2.152  11.841 -0.2415 -0.2536  0.2722
 2887TIP3   OH230075   6.418   0.968  15.062  0.1712 -1.0756 -0.3170
 2887TIP3    H130076   6.346   1.027  15.037  0.3170 -0.0015  1.5809
 2887TIP3    H230077   6.396   0.885  15.021 -2.0699 -0.7172 -0.0060
 2888TIP3   OH230078   0.306   5.545  15.849 -0.0947  0.2504  0.6126
 2888TIP3    H130079   0.211   5.550  15.857 -0.3958  0.9962 -2.3051
 2888TIP3    H230080   0.324   5.568  15.758  3.1173  2.8185  1.6922
 2889TIP3   OH230081   3.455   5.396   5.110  0.0652  0.2643 -0.2167
 2889TIP3    H130082   3.521   5.382   5.042 -2.4105 -1.1801 -2.5545
 2889TIP3    H230083   3.413   5.478   5.085 -1.1511 -0.4967 -0.7710
 2890TIP3   OH230084   6.518   4.990  14.195  0.1414  0.2719  0.1638
 2890TIP3    H130085   6.581   4.962  14.129 -1.0081  0.2730 -0.9676
 2890TIP3    H230086   6.503   5.083  14.176 -1.0790 -0.0155 -0.3328
 2891TIP3   OH230087   0.863   4.580  13.359  0.4806 -0.1106  0.1822
 2891TIP3    H130088   0.946   4.593  13.313  1.6472  0.0915  2.1954
 2891TIP3    H230089   0.878   4.502  13.412 -0.5782 -0.0123  0.6456
 2892TIP3   OH230090   4.338   5.179   5.868  0.0738  0.2687  0.2962
 2892TIP3    H130091   4.375   5.214   5.786 -0.5681 -0.3842 -0.2905
 2892TIP3    H230092   4.411   5.179   5.930  0.4578  1.2199 -0.1361
 2893TIP3   OH230093   6.157   1.729  16.587  0.3315  0.2362 -0.6384
 2893TIP3    H130094   6.121   1.809  16.548 -0.6493 -0.5679 -1.4228
 2893TIP3    H230095   6.082   1.686  16.628  0.9799  0.0570  0.4052
 2894TIP3   OH230096   0.438   1.512  10.760 -0.5154  0.3955 -0.5539
 2894TIP3    H130097   0.514   1.520  10.703  0.3778  1.7186  0.7457
 2894TIP3    H230098   0.427   1.599  10.797 -1.7297 -0.1588  0.4537
 2895TIP3   OH230099   5.113   0.995   6.352  0.0488 -0.4921 -0.6035
 2895TIP3    H130100   5.202   1.021   6.376 -0.2023 -0.2961  0.1543
 2895TIP3    H230101   5.118   0.900   6.339  0.7508 -0.2530 -2.3842
 2896TIP3   OH230102   5.488   3.601   1.932 -0.1549  0.1619 -0.4717
 2896TIP3    H130103   5.426   3.641   1.993  1.1930  1.6754 -0.0319
 2896TIP3    H230104   5.467   3.508   1.935 -2.0297  0.5448  0.0718
 2897TIP3   OH230105   1.182   0.540   1.391 -0.0002 -0.7262 -0.1929
 2897TIP3    H130106   1.270   0.522   1.359 -0.0314 -1.2538  0.0070
 2897TIP3    H230107   1.129   0.467   1.359 -0.6160  0.1495 -1.2721
 2898TIP3   OH230108   0.160   4.353  16.323 -0.6967 -0.2464  0.2102
 2898TIP3    H130109   0.133   4.443  16.306 -0.5730  0.0252  1.4272
 2898TIP3    H230110   0.175   4.316  16.235 -1.4635  0.6799 -0.3291
 2899TIP3   OH230111   1.866   3.310  15.166 -0.1097  0.3008  0.0668
 2899TIP3    H130112   1.873   3.342  15.076 -0.3100  0.2795  0.0426
 2899TIP3    H230113   1.820   3.226  15.158 -0.1165  0.2925  0.1880
 2900TIP3   OH230114   1.834   1.977   2.079 -0.0274  0.1014 -0.0137
 2900TIP3    H130115   1.890   2.043   2.121  0.2877 -1.1058  1.5576
 2900TIP3    H230116   1.746   2.001   2.107  0.2482 -1.2592  2.3484
 2901TIP3   OH230117   2.991   6.414  14.016 -0.2153  0.4066 -0.6032
 2901TIP3    H130118   3.047   6.459  14.079 -0.9055  0.8085 -0.2635
 2901TIP3    H230119   3.032   6.329  14.003  1.7044  1.4764 -2.0407
 2902TIP3   OH230120   1.638   6.686  14.289 -0.0981  0.2522 -0.4531
 2902TIP3    H130121   1.578   6.622  14.326  0.8363  0.6052  1.7943
 2902TIP3    H230122   1.666   6.647  14.206 -2.3398 -0.5229 -0.9042
 2903TIP3   OH230123   2.817   5.739   5.299  0.2697 -0.0659 -0.2120
 2903TIP3    H130124   2.877   5.792   5.350  1.7123 -0.0358 -1.8546
 2903TIP3    H230125   2.871   5.667   5.266 -0.2877  0.5172 -2.5837
 2904TIP3   OH230126   1.439   2.366   3.646  0.0898 -0.0277  0.0363
 2904TIP3    H130127   1.509   2.418   3.607 -0.9494  1.2518 -0.1692
 2904TIP3    H230128   1.480   2.323   3.721  0.7166  1.9739  0.8836
 2905TIP3   OH230129   4.055   5.344  10.804  0.4013  0.0363  0.2674
 2905TIP3    H130130   4.109   5.347  10.726  0.3493 -0.2204  0.2212
 2905TIP3    H230131   3.993   5.416  10.793 -1.6263 -1.8412 -1.4128
 2906TIP3   OH230132   0.108   5.068  12.744  0.5492  0.4125  0.2763
 2906TIP3    H130133   0.058   5.121  12.682  0.2107  1.3125  1.2818
 2906TIP3    H230134   0.084   5.103  12.830  0.6951 -1.0522  0.9500
 2907TIP3   OH230135   0.863   2.930   1.978  0.4218 -0.0554  0.5793
 2907TIP3    H130136   0.903   3.006   2.020  0.4019  0.2696  0.0216
 2907TIP3    H230137   0.918   2.856   2.004 -1.0253 -0.3130  3.2926
 2908TIP3   OH230138   4.638   0.176  16.262  0.1283 -0.5885 -0.0501
 2908TIP3    H130139   4.679   0.090  16.251 -0.4855 -0.9235  0.2694
 2908TIP3    H230140   4.597   0.172  16.348  0.6621  0.2653  0.2620
 2909TIP3   OH230141   3.357   0.772  14.659 -0.6443  0.4581 -0.0532
 2909TIP3    H130142   3.266   0.778  14.628 -0.9277  0.7771  0.7958
 2909TIP3    H230143   3.351   0.718  14.738  0.2840 -1.6671 -1.3590
 2910TIP3   OH230144   5.357   3.572  16.947 -0.4474 -0.4485  0.4878
 2910TIP3    H130145   5.369   3.572  17.042 -1.7936 -0.3998  0.6807
 2910TIP3    H230146   5.308   3.492  16.929  0.4092 -0.8213 -0.2686
 2911TIP3   OH230147   1.826   2.956  14.522  0.3230  0.2651  0.7378
 2911TIP3    H130148   1.781   3.010  14.587  1.7147 -0.6464  2.5299
 2911TIP3    H230149   1.769   2.880  14.511 -0.4170  0.8873  0.0637
 2912TIP3   OH230150   4.844   1.059   1.746  0.6626  0.2926 -0.3193
 2912TIP3    H130151   4.885   0.977   1.719 -0.6021 -0.1950 -0.8400
 2912TIP3    H230152   4.909   1.100   1.804  1.0765 -1.3740  0.4805
 2913TIP3   OH230153   3.238   1.112  16.572 -0.7751 -0.7561  0.2318
 2913TIP3    H130154   3.144   1.112  16.590 -0.8887  2.7136  0.2377
 2913TIP3    H230155   3.246   1.160  16.490  1.1022  1.2156  1.4806
 2914TIP3   OH230156   3.297   3.735   4.191  0.4362 -0.5469  0.3866
 2914TIP3    H130157   3.379   3.776   4.218 -0.0008  0.8199 -0.2771
 2914TIP3    H230158   3.291   3.655   4.243  1.5114  0.0379  1.4365
 2915TIP3   OH230159   2.580   1.632   5.013 -0.6739  0.3268 -0.3990
 2915TIP3    H130160   2.638   1.621   4.938  1.9365 -1.8519  1.7383
 2915TIP3    H230161   2.622   1.700   5.065 -1.3093  0.3391  0.1125
 2916TIP3   OH230162   6.714   1.408  16.664  0.5277 -0.1009 -0.6530
 2916TIP3    H130163   6.668   1.417  16.580 -0.9876 -1.0521  0.0438
 2916TIP3    H230164   6.796   1.364  16.641  1.0203  1.3562 -1.8772
 2917TIP3   OH230165   5.769   4.571  13.957 -0.1885 -0.2715 -0.1598
 2917TIP3    H130166   5.677   4.562  13.984  0.0689 -0.6014  0.6699
 2917TIP3    H230167   5.799   4.651  13.999  0.7535 -1.7680  2.2821
 2918TIP3   OH230168   5.163   1.379  12.187 -0.7005 -0.1802  0.3332
 2918TIP3    H130169   5.102   1.415  12.251 -1.0175 -1.0569  0.5322
 2918TIP3    H230170   5.137   1.287  12.178  0.7841 -0.6529  0.6537
 2919TIP3   OH230171   2.811   4.869   4.504  0.3662 -0.2030 -0.2236
 2919TIP3    H130172   2.867   4.798   4.472 -0.0396 -0.0608 -1.3011
 2919TIP3    H230173   2.733   4.865   4.447  0.2345  0.9436 -0.1405
 2920TIP3   OH230174   5.580   2.030  10.854  0.1027 -0.3096  0.0222
 2920TIP3    H130175   5.531   1.956  10.890  0.7297 -0.5690  0.3490
 2920TIP3    H230176   5.609   2.000  10.768 -0.3278 -0.1400 -0.1905
 2921TIP3   OH230177   5.384   4.450   4.134  0.5573  0.5698 -0.7369
 2921TIP3    H130178   5.298   4.435   4.173  0.7212 -0.8971 -0.8730
 2921TIP3    H230179   5.398   4.374   4.077  1.6051  1.1854 -1.3395
 2922TIP3   OH230180   3.338   5.042  11.645  0.1036 -0.1987 -0.2610
 2922TIP3    H130181   3.420   5.000  11.619 -0.1356 -1.2711  0.6381
 2922TIP3    H230182   3.338   5.125  11.598  2.1083  0.2232  0.3651
 2923TIP3   OH230183   5.034   3.778  12.221 -0.4012 -0.2239  0.0200
 2923TIP3    H130184   5.068   3.750  12.306  0.6970 -0.1469 -0.3899
 2923TIP3    H230185   5.037   3.873  12.223 -0.8151 -0.2077  0.0607
 2924TIP3   OH230186   3.025   0.944   5.175 -0.6546  0.1542 -0.2098
 2924TIP3    H130187   2.946   0.994   5.196  0.5610  2.0290  0.1349
 2924TIP3    H230188   3.055   0.911   5.260 -0.4016  0.5167 -0.1533
 2925TIP3   OH230189   5.016   0.723  16.956 -0.4878 -0.5394  0.3127
 2925TIP3    H130190   5.093   0.691  17.004 -0.1112 -0.2213 -0.0735
 2925TIP3    H230191   4.941   0.691  17.007 -0.1139  1.2395  2.1152
 2926TIP3   OH230192   1.906   0.846  13.539 -0.1491  0.1084  0.7039
 2926TIP3    H130193   1.829   0.841  13.483  0.1333  0.7909  0.2408
 2926TIP3    H230194   1.918   0.940  13.554  0.9006  0.0404  0.3299
 2927TIP3   OH230195   5.085   6.020  16.696  0.3826 -0.0024 -0.1146
 2927TIP3    H130196   5.112   6.112  16.702  0.0400  0.0018  2.1303
 2927TIP3    H230197   5.167   5.971  16.692  0.5763  0.3432 -0.4409
 2928TIP3   OH230198   2.860   0.922  13.432  0.5387  0.3567 -0.6132
 2928TIP3    H130199   2.952   0.947  13.424  0.4125  1.2626  0.6539
 2928TIP3    H230200   2.854   0.841  13.380  2.0058  0.3554 -0.8412
 2929TIP3   OH230201   0.792   6.382   3.492 -0.2373  0.4878 -0.6133
 2929TIP3    H130202   0.750   6.346   3.570 -1.8108  0.2631 -1.5065
 2929TIP3    H230203   0.734   6.454   3.466  1.6221  2.2226 -0.1659
 2930TIP3   OH230204   3.314   0.951   3.796  0.0318  0.5265  0.1080
 2930TIP3    H130205   3.247   0.884   3.780  0.7566 -0.0448 -0.6452
 2930TIP3    H230206   3.308   1.009   3.719  0.2447  0.6070  0.1540
 2931TIP3   OH230207   1.302   3.676  14.018  0.0454  0.3017 -0.1492
 2931TIP3    H130208   1.309   3.731  14.096  1.0659 -1.1369  0.8305
 2931TIP3    H230209   1.237   3.720  13.963 -2.3804  0.2607  2.4756
 2932TIP3   OH230210   1.353   3.969  10.197  0.0396 -0.7973 -0.1271
 2932TIP3    H130211   1.410   3.979  10.273  0.2706  0.3970 -0.4370
 2932TIP3    H230212   1.389   4.028  10.132 -0.7102 -1.1059 -0.8398
 2933TIP3   OH230213   2.794   2.135  15.236  0.7807  0.5321 -0.4525
 2933TIP3    H130214   2.755   2.222  15.242 -1.1138 -0.2993 -0.1405
 2933TIP3    H230215   2.873   2.140  15.290 -0.4099  1.4845  1.2848
 2934TIP3   OH230216   2.326   2.010   4.617 -0.2053  0.2908  0.6530
 2934TIP3    H130217   2.391   2.061   4.569 -1.5473  1.8859  0.4224
 2934TIP3    H230218   2.361   1.921   4.618  0.9986  0.6810 -1.2243
 2935TIP3   OH230219   1.974   5.330  10.750 -0.6087  0.5965  0.2768
 2935TIP3    H130220   2.005   5.391  10.817  0.4305  0.6793 -0.2631
 2935TIP3    H230221   1.965   5.384  10.671  0.4456  0.0400 -0.2364
 2936TIP3   OH230222   3.404   4.194  11.529  0.2376 -0.4462 -0.0343
 2936TIP3    H130223   3.364   4.107  11.535 -1.5028  0.3052 -0.0734
 2936TIP3    H230224   3.470   4.186  11.460 -1.1674 -1.2962 -1.3413
 2937TIP3   OH230225   1.418   6.509   2.147 -0.0436  0.6481 -0.4798
 2937TIP3    H130226   1.440   6.571   2.078 -1.2323  0.4471 -1.0781
 2937TIP3    H230227   1.442   6.553   2.228  1.6073  0.7870 -1.0233
 2938TIP3   OH230228   0.091   4.925   3.177 -0.4429  0.6176  0.0327
 2938TIP3    H130229   0.110   4.927   3.084 -0.0995 -0.1748  0.0795
 2938TIP3    H230230   0.050   5.010   3.195  0.4327  1.1926 -0.6333
 2939TIP3   OH230231   1.784   4.124   3.427 -0.6148 -0.3832 -0.0433
 2939TIP3    H130232   1.777   4.139   3.333 -3.2609  3.4366  0.5452
 2939TIP3    H230233   1.874   4.148   3.449 -0.3574 -0.0489 -1.3818
 2940TIP3   OH230234   3.276   1.610  13.272 -0.4393  0.3925  0.0574
 2940TIP3    H130235   3.288   1.639  13.363  0.5505  2.2931 -0.6352
 2940TIP3    H230236   3.364   1.587  13.242 -0.7358 -0.0529 -0.4989
 2941TIP3   OH230237   4.845   6.002   6.230 -0.0068 -0.4678  0.3099
 2941TIP3    H130238   4.775   6.036   6.285  0.3098  0.4510  0.1556
 2941TIP3    H230239   4.924   6.015   6.281  0.1861 -0.4520  0.0056
 2942TIP3   OH230240   3.215   4.754  13.845  0.2987  0.2883 -0.2647
 2942TIP3    H130241   3.269   4.803  13.908  1.3294  1.4055 -1.9318
 2942TIP3    H230242   3.204   4.815  13.772  0.1663 -1.3878 -1.6891
 2943TIP3   OH230243   4.876   4.317  13.073 -0.2724  0.0566 -0.4114
 2943TIP3    H130244   4.863   4.342  13.164  0.4131  0.4389 -0.4102
 2943TIP3    H230245   4.860   4.223  13.071 -0.0835  0.0089  0.1488
 2944TIP3   OH230246   3.823   5.820  16.909  0.2210 -0.0435  0.1153
 2944TIP3    H130247   3.848   5.906  16.876  1.8065  0.0826  1.4945
 2944TIP3    H230248   3.878   5.758  16.861 -1.3574 -0.3882 -1.3213
 2945TIP3   OH230249   6.412   0.290   1.061  0.0090 -0.1203 -0.5183
 2945TIP3    H130250   6.369   0.207   1.040  0.0916 -0.2549 -0.1514
 2945TIP3    H230251   6.502   0.267   1.081  0.1540  0.1175 -0.8882
 2946TIP3   OH230252   0.376   0.497   0.705 -0.0139  0.3231 -0.2446
 2946TIP3    H130253   0.313   0.542   0.649  0.0450 -1.4774 -1.8990
 2946TIP3    H230254   0.339   0.502   0.793 -1.4148  1.0764 -0.8493
 2947TIP3   OH230255   2.260   4.847   3.207  0.2495 -0.4616 -0.3898
 2947TIP3    H130256   2.335   4.829   3.150  1.7126  0.8532  1.0159
 2947TIP3    H230257   2.198   4.894   3.151  0.9131 -0.6455 -1.3030
 2948TIP3   OH230258   0.049   0.996   1.674  0.5084 -0.1173  0.3891
 2948TIP3    H130259   0.091   0.986   1.760 -1.9304 -3.2782  1.3780
 2948TIP3    H230260  -0.028   1.049   1.691  1.0389  0.9052 -0.2978
 2949TIP3   OH230261   0.963   3.358   3.604 -0.1006  0.8293  0.0262
 2949TIP3    H130262   1.052   3.392   3.596 -0.2958  1.1192 -1.0386
 2949TIP3    H230263   0.914   3.430   3.643 -0.0256  0.9274 -0.0591
 2950TIP3   OH230264   5.056   6.002   3.718 -0.0090 -0.0157 -0.3839
 2950TIP3    H130265   4.961   6.004   3.716 -0.0272  1.4739  0.2493
 2950TIP3    H230266   5.080   5.914   3.688 -1.5608 -0.3258 -0.7697
 2951TIP3   OH230267   2.260   6.628  15.861 -0.2750  0.3248  0.8799
 2951TIP3    H130268   2.221   6.541  15.874  1.9133 -0.8893 -0.0777
 2951TIP3    H230269   2.222   6.659  15.779 -0.2695 -0.2114  0.6679
 2952TIP3   OH230270   4.376   3.016   5.731  0.1789  0.8343  0.0103
 2952TIP3    H130271   4.289   3.042   5.762 -0.1864 -0.4545  0.1194
 2952TIP3    H230272   4.401   3.086   5.670 -0.9705  1.1740 -0.1038
 2953TIP3   OH230273   1.865   4.613   1.707  0.2758  0.2260 -0.1263
 2953TIP3    H130274   1.829   4.667   1.637  1.4771  1.5953  0.2430
 2953TIP3    H230275   1.952   4.588   1.675 -0.2645 -1.5204 -0.2838
 2954TIP3   OH230276   1.188   3.445   5.864  0.0995  0.4423 -0.0725
 2954TIP3    H130277   1.266   3.391   5.856 -0.0676  0.0872  0.6517
 2954TIP3    H230278   1.122   3.400   5.811 -0.4252 -0.8101  1.5810
 2955TIP3   OH230279   3.877   2.673  16.901 -0.5431 -0.5793  0.1778
 2955TIP3    H130280   3.826   2.753  16.887  0.1689 -0.2189 -0.3924
 2955TIP3    H230281   3.896   2.673  16.994  0.8760  0.8077 -0.0668
 2956TIP3   OH230282   1.418   6.730  13.714  0.0369  0.3443  0.0931
 2956TIP3    H130283   1.411   6.816  13.671 -0.7116 -0.2606 -1.0745
 2956TIP3    H230284   1.327   6.707  13.734  0.1968 -0.3324  0.0422
 2957TIP3   OH230285   0.546   4.950  10.731 -0.0068  0.7958 -0.2664
 2957TIP3    H130286   0.616   4.960  10.666  1.2509  1.3879  1.1205
 2957TIP3    H230287   0.557   4.861  10.764  1.4482  1.5384  1.3912
 2958TIP3   OH230288   3.622   1.236   0.407 -0.3578  0.7639 -0.0328
 2958TIP3    H130289   3.551   1.232   0.471 -1.1189  1.1552 -0.8317
 2958TIP3    H230290   3.631   1.145   0.376  0.9270  0.3099  1.5710
 2959TIP3   OH230291   5.141   3.300   3.790  0.0345 -0.3056 -0.0549
 2959TIP3    H130292   5.188   3.361   3.733  0.5937 -1.9061 -1.3889
 2959TIP3    H230293   5.049   3.323   3.779 -0.1060 -1.7665 -3.2925
 2960TIP3   OH230294   4.841   4.169  14.404 -0.0519 -0.5770 -0.1170
 2960TIP3    H130295   4.854   4.244  14.462  0.7171 -1.2417  0.5748
 2960TIP3    H230296   4.759   4.190  14.358  0.9012  1.3998 -1.0491
 2961TIP3   OH230297   5.247   4.474   5.542 -0.1850  0.0030  0.4197
 2961TIP3    H130298   5.193   4.495   5.618 -0.1848  1.8254 -0.0434
 2961TIP3    H230299   5.318   4.420   5.577 -1.8817 -1.9156  1.1368
 2962TIP3   OH230300   2.270   3.360   5.201  0.0399  0.7015  0.5202
 2962TIP3    H130301   2.240   3.390   5.115 -1.4379  0.7134  0.9966
 2962TIP3    H230302   2.274   3.440   5.254  1.9277  0.8422  0.2293
 2963TIP3   OH230303   6.228   0.186   0.757 -0.4201 -0.3218 -0.0910
 2963TIP3    H130304   6.206   0.241   0.682 -1.6727 -0.4683  0.1506
 2963TIP3    H230305   6.320   0.162   0.743 -0.0686  1.1911 -0.5942
 2964TIP3   OH230306   2.241   1.756   4.237  0.0029 -0.1614 -0.5081
 2964TIP3    H130307   2.279   1.839   4.207 -0.6094  0.3390  0.0576
 2964TIP3    H230308   2.274   1.691   4.176 -0.5919  0.7059 -1.7860
 2965TIP3   OH230309   2.943   5.186   0.341 -0.3642 -0.4574  0.0332
 2965TIP3    H130310   2.982   5.136   0.413 -0.4433 -1.4425 -0.5923
 2965TIP3    H230311   2.902   5.262   0.384  0.7405 -0.3111  0.8773
 2966TIP3   OH230312   1.940   3.593  13.089  0.0242 -0.1626 -0.2294
 2966TIP3    H130313   2.030   3.589  13.121 -0.1995  1.6763  0.8035
 2966TIP3    H230314   1.940   3.666  13.027 -0.4448 -1.1149 -1.3776
 2967TIP3   OH230315   2.658   1.523   1.824  0.5796  0.6426  0.1752
 2967TIP3    H130316   2.693   1.434   1.812 -0.8234  0.0031  0.6301
 2967TIP3    H230317   2.686   1.570   1.745 -1.0195 -1.0121 -1.4776
 2968TIP3   OH230318   4.936   6.026   5.683 -0.6236  0.0614 -0.0916
 2968TIP3    H130319   4.955   6.110   5.642 -1.3394 -0.5249 -1.7018
 2968TIP3    H230320   4.989   6.026   5.763 -1.0883  2.2727  0.2672
 2969TIP3   OH230321   2.596   4.833   4.326 -0.6218 -0.1802  0.0277
 2969TIP3    H130322   2.510   4.791   4.331 -1.2675  0.9037 -1.3297
 2969TIP3    H230323   2.616   4.835   4.232  2.2983 -3.1011  0.3880
 2970TIP3   OH230324   5.608   2.607  16.758  0.3871 -0.5568 -0.9509
 2970TIP3    H130325   5.609   2.657  16.839 -0.8437 -0.9958 -0.6491
 2970TIP3    H230326   5.700   2.606  16.730  0.8593 -0.5484  0.5090
 2971TIP3   OH230327   5.642   1.458   4.660  0.4695 -0.2911 -0.5613
 2971TIP3    H130328   5.606   1.428   4.743 -0.3571  1.6414 -0.1553
 2971TIP3    H230329   5.655   1.552   4.673  1.5765 -0.1811 -2.1917
 2972TIP3   OH230330   1.433   5.048  15.455 -0.2793  0.0488  0.2013
 2972TIP3    H130331   1.440   5.112  15.385 -2.8954 -1.0608 -1.2264
 2972TIP3    H230332   1.476   4.970  15.421 -2.2059 -0.7363 -0.6198
 2973TIP3   OH230333   6.658   4.659   1.766 -0.0668  0.0431 -0.0126
 2973TIP3    H130334   6.744   4.644   1.806 -0.2865 -0.5222  0.2456
 2973TIP3    H230335   6.595   4.639   1.835 -0.4130  0.4128 -0.2161
 2974TIP3   OH230336   0.070   6.313   3.202 -0.4720  0.1174 -0.7999
 2974TIP3    H130337   0.082   6.353   3.288  1.4345 -1.9131 -0.0042
 2974TIP3    H230338   0.026   6.230   3.220 -0.6664 -0.0338 -1.8845
 2975TIP3   OH230339   2.606   0.401   0.575  0.5272 -0.1160 -0.3981
 2975TIP3    H130340   2.605   0.447   0.659 -1.4380  0.8093 -0.8601
 2975TIP3    H230341   2.541   0.332   0.584  1.5171 -1.1119 -0.6280
 2976TIP3   OH230342   6.285   4.767  16.941 -0.4848 -0.0906  0.4899
 2976TIP3    H130343   6.331   4.683  16.930 -1.4613 -0.5584 -0.2215
 2976TIP3    H230344   6.339   4.816  17.003  0.5841 -0.8937  0.2285
 2977TIP3   OH230345   1.995   2.161  16.847 -0.1107  0.2326  0.1968
 2977TIP3    H130346   2.052   2.226  16.807 -0.2275  0.7807  0.8912
 2977TIP3    H230347   1.993   2.089  16.785  0.9382  0.4119 -0.0588
 2978TIP3   OH230348   2.951   2.102   5.465 -0.4276  0.8688  0.4074
 2978TIP3    H130349   3.036   2.144   5.461  0.0325 -0.0845 -0.4013
 2978TIP3    H230350   2.906   2.131   5.386  0.1493 -0.6080 -0.5177
 2979TIP3   OH230351   4.232   3.454   0.419  0.4178  0.0332 -0.2701
 2979TIP3    H130352   4.308   3.432   0.473 -0.2258  0.3319  0.7845
 2979TIP3    H230353   4.214   3.374   0.370 -0.7165 -1.2320  2.0751
 2980TIP3   OH230354   1.795   6.225  14.272 -0.0759 -0.4754 -0.1823
 2980TIP3    H130355   1.849   6.220  14.351 -0.6431  2.7673  0.5661
 2980TIP3    H230356   1.833   6.296  14.221 -1.1530 -0.9181 -1.6922
 2981TIP3   OH230357   0.476   1.404   4.450 -0.2061 -0.1828  0.3561
 2981TIP3    H130358   0.528   1.395   4.371  0.7048  2.5671  0.5214
 2981TIP3    H230359   0.496   1.326   4.501  2.5580 -0.0249 -0.3146
 2982TIP3   OH230360   0.159   0.792  13.465 -0.0037  0.1531 -0.0935
 2982TIP3    H130361   0.237   0.738  13.458 -0.7166 -0.9945  0.4876
 2982TIP3    H230362   0.165   0.831  13.553 -0.6378 -0.8678  0.4235
 2983TIP3   OH230363   0.205   1.787   3.088 -0.4886  0.1198  0.6617
 2983TIP3    H130364   0.158   1.783   3.171 -2.0956 -1.6670 -0.2588
 2983TIP3    H230365   0.137   1.792   3.021  0.7642  2.9224 -0.6093
 2984TIP3   OH230366   5.714   1.000   2.818 -0.4517  0.2331 -0.5832
 2984TIP3    H130367   5.742   0.947   2.744  0.6338 -1.1434  0.7658
 2984TIP3    H230368   5.620   1.015   2.803 -0.7028 -1.7468 -1.2144
 2985TIP3   OH230369   4.146   4.817  12.743  0.1007  0.0470  0.2343
 2985TIP3    H130370   4.233   4.846  12.716 -0.3346 -1.5179 -3.4061
 2985TIP3    H230371   4.112   4.888  12.797  2.3001  2.2853 -1.1447
 2986TIP3   OH230372   1.144   1.213  10.722  0.3301  0.5538 -0.2981
 2986TIP3    H130373   1.096   1.272  10.779  2.0312 -0.5693  2.5052
 2986TIP3    H230374   1.236   1.225  10.746  0.8955 -1.8085 -0.9960
 2987TIP3   OH230375   4.295   4.991   0.960  0.2768  0.2030 -0.4445
 2987TIP3    H130376   4.237   4.960   0.890 -0.8364 -0.1809  0.5965
 2987TIP3    H230377   4.315   4.912   1.011  2.1631  0.2492 -1.0703
 2988TIP3   OH230378   2.791   0.762  13.224 -0.2448 -0.1973  0.3195
 2988TIP3    H130379   2.726   0.717  13.171  0.0938 -0.2541 -0.0524
 2988TIP3    H230380   2.873   0.750  13.177 -0.4021  2.2653 -0.7579
 2989TIP3   OH230381   6.278   0.684  11.899 -0.6992  0.9573  0.0895
 2989TIP3    H130382   6.268   0.723  11.986  1.3609  0.8344  0.4513
 2989TIP3    H230383   6.300   0.593  11.917 -1.5531  0.5991 -0.6260
 2990TIP3   OH230384   3.680   6.202  16.472  0.2733  0.2114  0.9006
 2990TIP3    H130385   3.771   6.214  16.499  0.4648  0.1295  0.2970
 2990TIP3    H230386   3.678   6.117  16.428  0.1238  0.6592  0.0068
 2991TIP3   OH230387   6.717   1.676   5.927  0.0275 -0.4339 -0.3961
 2991TIP3    H130388   6.727   1.587   5.893 -0.5365 -0.9934  0.8359
 2991TIP3    H230389   6.724   1.665   6.022 -1.1038  0.6917 -0.1676
 2992TIP3   OH230390   1.552   2.461   6.151 -0.0325 -0.5110 -0.5437
 2992TIP3    H130391   1.461   2.482   6.130 -0.4413 -2.2704 -0.6606
 2992TIP3    H230392   1.554   2.365   6.157  1.9427 -0.5437 -1.1523
 2993TIP3   OH230393   0.286   4.971   5.084 -0.3845 -0.6140  0.1741
 2993TIP3    H130394   0.231   4.965   5.162  2.4554  0.7645  2.4917
 2993TIP3    H230395   0.371   4.936   5.112  0.6883 -0.3346 -2.4354
 2994TIP3   OH230396   5.598   3.979   0.821 -0.5148  0.7687 -0.5077
 2994TIP3    H130397   5.655   3.975   0.897  0.8083 -0.6521 -1.5044
 2994TIP3    H230398   5.521   3.929   0.846  0.4962 -0.8661 -0.5034
 2995TIP3   OH230399   1.135   3.162  11.158  0.3620  1.0527  0.0587
 2995TIP3    H130400   1.074   3.200  11.094 -1.3618  0.7146  1.4182
 2995TIP3    H230401   1.096   3.078  11.181  1.0681  1.0601  1.3723
 2996TIP3   OH230402   6.368   4.132  12.939 -0.1293 -0.9681  0.1449
 2996TIP3    H130403   6.273   4.137  12.932 -0.1594  2.0636  1.2963
 2996TIP3    H230404   6.392   4.056  12.885 -3.1561 -1.9087 -0.0693
 2997TIP3   OH230405   1.416   4.889  13.816  0.0453 -0.0966 -0.2716
 2997TIP3    H130406   1.336   4.895  13.763  0.9308 -3.4966 -2.2913
 2997TIP3    H230407   1.403   4.810  13.868  1.9962 -0.5725 -0.4652
 2998TIP3   OH230408   3.597   6.013   3.501  0.1499 -0.0026 -0.3308
 2998TIP3    H130409   3.525   6.027   3.439 -0.4409 -1.2569  0.0589
 2998TIP3    H230410   3.625   5.923   3.486  0.9600  0.1345  0.2561
 2999TIP3   OH230411   4.657   6.439  11.025  0.1580  0.2860 -0.6315
 2999TIP3    H130412   4.650   6.534  11.013  0.6536  0.4626  0.3353
 2999TIP3    H230413   4.751   6.422  11.021  0.2593  0.1739  1.3767
 3000TIP3   OH230414   4.064   3.425   2.431  0.0622 -0.2414  0.0350
 3000TIP3    H130415   4.091   3.515   2.450  1.1385 -0.4474 -0.4307
 3000TIP3    H230416   4.137   3.372   2.461 -0.6871 -0.9979  0.5651
 3001TIP3   OH230417   3.150   2.722  12.582  0.3220  0.5300 -0.2366
 3001TIP3    H130418   3.181   2.633  12.600 -0.1962 -0.4287 -3.3396
 3001TIP3    H230419   3.219   2.761  12.527 -0.2490  1.3789 -0.3752
 3002TIP3   OH230420   0.673   5.029  15.244 -0.2704 -0.2671  0.9270
 3002TIP3    H130421   0.675   5.119  15.211 -0.1083 -0.1504  1.2514
 3002TIP3    H230422   0.724   5.032  15.325  0.7609 -0.8976  0.3175
 3003TIP3   OH230423   3.553   4.043  15.735  0.3290 -0.6602 -0.0290
 3003TIP3    H130424   3.520   3.998  15.657  2.3738 -0.6155 -0.9833
 3003TIP3    H230425   3.619   4.104  15.701  1.9669 -1.3238  1.7896
 3004TIP3   OH230426   6.304   5.588  16.708 -0.4183  0.0432 -0.1513
 3004TIP3    H130427   6.389   5.631  16.699  0.0143 -0.9236 -0.8549
 3004TIP3    H230428   6.286   5.551  16.622 -1.7468  0.5663 -0.1169
 3005TIP3   OH230429   5.639   5.487   5.549 -0.6246  0.2202  0.0186
 3005TIP3    H130430   5.558   5.523   5.514 -1.8121 -0.5184  1.8246
 3005TIP3    H230431   5.703   5.557   5.540 -1.1212  0.4118 -2.5283
 3006TIP3   OH230432   0.294   2.447   5.399  0.0897  0.0266 -0.2389
 3006TIP3    H130433   0.372   2.396   5.422 -0.8404 -0.9825  0.7931
 3006TIP3    H230434   0.233   2.432   5.471  0.5250  4.4122  1.3256
 3007TIP3   OH230435   5.765   1.926   6.387 -0.2618  0.2987  0.1342
 3007TIP3    H130436   5.842   1.873   6.409 -0.0936  0.6339  0.3591
 3007TIP3    H230437   5.701   1.904   6.455 -1.2921 -1.8660 -1.4362
 3008TIP3   OH230438   2.694   0.190  15.799 -0.3317 -0.0339 -0.3774
 3008TIP3    H130439   2.612   0.234  15.819 -1.2027 -1.1066 -1.4708
 3008TIP3    H230440   2.747   0.257  15.756 -0.8408  0.5129 -0.1577
 3009TIP3   OH230441   3.467   3.839  12.093 -0.6555 -0.3680 -0.0694
 3009TIP3    H130442   3.445   3.839  12.186  1.0337  0.1066  0.3680
 3009TIP3    H230443   3.464   3.747  12.068  0.0559 -0.6381  0.7810
 3010TIP3   OH230444   3.728   6.523  12.988 -0.2482  0.2311 -0.1081
 3010TIP3    H130445   3.751   6.433  12.968  0.2663 -0.1631  2.0296
 3010TIP3    H230446   3.801   6.575  12.953 -0.6005 -0.1382 -1.4352
 3011TIP3   OH230447   2.018   4.281  14.442  0.1292  0.1628  0.8557
 3011TIP3    H130448   1.993   4.359  14.492 -1.6773 -0.5138  1.0708
 3011TIP3    H230449   1.964   4.211  14.478 -0.2391 -0.6351 -1.0976
 3012TIP3   OH230450   4.734   2.477  17.252 -0.2937  1.0030  0.4163
 3012TIP3    H130451   4.785   2.425  17.190 -1.2466 -0.4809  0.8184
 3012TIP3    H230452   4.651   2.492  17.207 -1.4291 -1.0344  1.6520
 3013TIP3   OH230453   6.485   6.166  14.973 -0.1318  0.2744  0.0219
 3013TIP3    H130454   6.414   6.129  14.921  0.1951 -2.9082  1.6012
 3013TIP3    H230455   6.561   6.166  14.914 -0.5184 -0.1703 -0.4818
 3014TIP3   OH230456   2.159   6.079   2.727  0.2641 -0.2940  0.7097
 3014TIP3    H130457   2.190   6.040   2.809  0.5604 -0.5590  0.4725
 3014TIP3    H230458   2.094   6.016   2.694  0.3888 -0.3506  0.5723
 3015TIP3   OH230459   0.281   4.001  13.608  0.1547 -0.0851  0.1100
 3015TIP3    H130460   0.313   3.960  13.528  1.5068 -2.1403  1.6130
 3015TIP3    H230461   0.220   3.937  13.645  0.7819  0.0836  1.5059
 3016TIP3   OH230462   5.956   5.518  14.188  0.1678 -0.6678 -0.4825
 3016TIP3    H130463   5.977   5.577  14.261  1.2570 -0.7515 -0.7265
 3016TIP3    H230464   5.861   5.505  14.196  0.2379 -0.5714  0.8361
 3017TIP3   OH230465   3.256   5.181   5.910 -0.0090 -0.3878 -0.0655
 3017TIP3    H130466   3.316   5.109   5.929  0.9362  1.0586  3.1788
 3017TIP3    H230467   3.312   5.251   5.877 -0.7916 -0.7594 -2.3283
 3018TIP3   OH230468   5.745   1.125  11.013 -0.2232 -0.0457  0.1147
 3018TIP3    H130469   5.708   1.046  11.053 -1.5271  1.0099  1.0859
 3018TIP3    H230470   5.685   1.146  10.942 -0.2820  0.4570  0.3093
 3019TIP3   OH230471   3.632   1.907   5.802 -0.3305  0.3671 -0.5681
 3019TIP3    H130472   3.618   1.946   5.715  0.4954  0.8074 -0.5134
 3019TIP3    H230473   3.722   1.930   5.825 -0.4082 -0.0822  0.2408
 3020TIP3   OH230474   0.176   5.817  16.647  0.2639  0.3350 -0.3948
 3020TIP3    H130475   0.230   5.794  16.723  0.6693  3.2530  0.3438
 3020TIP3    H230476   0.128   5.895  16.675 -1.8014 -0.1864 -2.2040
 3021TIP3   OH230477   3.476   6.368  16.468 -0.1778 -0.3305  0.2009
 3021TIP3    H130478   3.545   6.302  16.471  1.3015  1.0161 -1.5067
 3021TIP3    H230479   3.513   6.439  16.415 -2.9329  0.4154 -0.9275
 3022TIP3   OH230480   6.489   0.581   0.404  0.1098  0.4955 -0.5653
 3022TIP3    H130481   6.413   0.615   0.356  0.2926  2.0224  0.1879
 3022TIP3    H230482   6.561   0.637   0.378  0.9043 -0.6247 -0.8709
 3023TIP3   OH230483   3.013   1.232   5.883  0.2471  0.2940 -0.0018
 3023TIP3    H130484   3.005   1.141   5.910 -1.5752  0.5023  0.2746
 3023TIP3    H230485   3.054   1.276   5.957  2.2301 -0.4666 -0.5810
 3024TIP3   OH230486   2.811   0.399  17.121  0.1514 -0.1852 -0.1775
 3024TIP3    H130487   2.863   0.478  17.137  0.0287 -0.0576 -0.4174
 3024TIP3    H230488   2.806   0.392  17.026  1.7695 -1.5281 -0.2020
 3025TIP3   OH230489   3.953   2.780  13.889 -0.1979 -0.0068  0.1353
 3025TIP3    H130490   3.864   2.805  13.912 -0.6287 -1.6526  0.4129
 3025TIP3    H230491   3.969   2.699  13.938  1.2917  0.0127 -0.2498
 3026TIP3   OH230492   4.564   5.232   3.931  0.2674 -0.7311  0.4282
 3026TIP3    H130493   4.621   5.307   3.946 -1.0210  0.9904 -2.2885
 3026TIP3    H230494   4.616   5.171   3.879  0.2971 -0.1401 -0.2405
 3027TIP3   OH230495   2.378   2.739   3.327  0.3008 -0.4430  0.2854
 3027TIP3    H130496   2.419   2.785   3.401  1.2222 -0.6849 -0.0643
 3027TIP3    H230497   2.372   2.648   3.355  0.3909 -0.4833  0.1761
 3028TIP3   OH230498   0.307   0.643   4.374  0.0488  0.4594 -0.2050
 3028TIP3    H130499   0.274   0.713   4.431  0.4620  1.8721 -1.6320
 3028TIP3    H230500   0.399   0.634   4.397 -0.0301  0.3049  0.0531
 3029TIP3   OH230501   3.502   0.822  15.154  0.1946  0.6596  0.0814
 3029TIP3    H130502   3.467   0.908  15.179  0.5220  0.9789 -0.5429
 3029TIP3    H230503   3.510   0.826  15.059  0.4493  0.0237  0.0732
 3030TIP3   OH230504   1.201   6.116  12.502 -0.0653 -0.0452 -0.2993
 3030TIP3    H130505   1.249   6.149  12.425 -0.4720  0.7208 -0.2315
 3030TIP3    H230506   1.203   6.189  12.564  0.8655 -0.9001  0.7140
 3031TIP3   OH230507   6.200   3.075  16.373  0.9277 -0.2552  0.2539
 3031TIP3    H130508   6.151   3.129  16.312  0.3087 -1.1052 -0.0261
 3031TIP3    H230509   6.178   2.985  16.348 -1.3635 -0.6982  3.2363
 3032TIP3   OH230510   5.558   0.167   0.029  0.7730 -0.1992  0.1105
 3032TIP3    H130511   5.596   0.201   0.110  0.3977 -0.6898  0.4990
 3032TIP3    H230512   5.612   0.205  -0.040  0.6097  0.8737  0.5450
 3033TIP3   OH230513   1.772   3.480  13.314  0.5314 -0.4761  0.0752
 3033TIP3    H130514   1.715   3.414  13.275  0.4645 -0.1359 -0.4177
 3033TIP3    H230515   1.855   3.470  13.268  0.7631 -0.7236  0.5344
 3034TIP3   OH230516   5.353   4.982  14.069  0.0399 -0.5592  0.2540
 3034TIP3    H130517   5.366   5.031  14.150 -1.5823  0.1193  0.1375
 3034TIP3    H230518   5.300   5.040  14.014  0.5714 -1.2657 -1.0571
 3035TIP3   OH230519   1.009   0.698   6.064 -0.3448 -0.4504  0.7491
 3035TIP3    H130520   1.014   0.667   6.154  1.9351 -2.2780  0.0920
 3035TIP3    H230521   1.097   0.684   6.029 -1.2456 -0.1072 -1.8604
 3036TIP3   OH230522   3.768   6.572   1.620 -0.3206 -0.0425  0.8452
 3036TIP3    H130523   3.851   6.620   1.631  1.2291 -2.1882 -0.7063
 3036TIP3    H230524   3.765   6.513   1.695  0.4177 -1.0470  0.1266
 3037TIP3   OH230525   0.531   5.492   4.160 -0.5840 -1.1608  0.1502
 3037TIP3    H130526   0.585   5.535   4.093 -1.1348  1.6801  1.3816
 3037TIP3    H230527   0.587   5.490   4.237 -0.8811 -1.8847  0.3484
 3038TIP3   OH230528   2.721   6.216  11.250 -0.1470  0.0183  0.1604
 3038TIP3    H130529   2.763   6.247  11.170  2.0794 -2.1551  0.3449
 3038TIP3    H230530   2.688   6.129  11.229 -0.1849 -0.2946  1.3878
 3039TIP3   OH230531   6.165   3.772   1.542  0.1177 -0.4682  0.4262
 3039TIP3    H130532   6.248   3.810   1.511  0.5687 -1.5322  0.2738
 3039TIP3    H230533   6.144   3.822   1.621 -0.6953  1.8678 -1.1452
 3040TIP3   OH230534   6.262   5.971   4.984  0.3236  0.0292  0.2711
 3040TIP3    H130535   6.197   5.905   4.960  1.2150 -0.1070 -1.9730
 3040TIP3    H230536   6.347   5.928   4.970  0.9150  1.3312 -0.3655
 3041TIP3   OH230537   5.654   1.487   3.439  0.0392 -0.1882 -0.2332
 3041TIP3    H130538   5.649   1.402   3.483 -3.6515  1.1584  2.4431
 3041TIP3    H230539   5.716   1.538   3.490 -1.2406  0.1031  1.0898
 3042TIP3   OH230540   0.726   6.615   5.706  0.0956 -0.0775 -0.4069
 3042TIP3    H130541   0.739   6.524   5.678  0.8866  0.2513 -1.1621
 3042TIP3    H230542   0.676   6.608   5.787  0.7299 -1.2234 -0.0903
 3043TIP3   OH230543   3.199   5.013   4.586  0.5326  0.4391  0.9938
 3043TIP3    H130544   3.182   4.936   4.532  3.9183 -1.3736  2.1791
 3043TIP3    H230545   3.141   5.003   4.662 -0.8708  0.4853 -0.0479
 3044TIP3   OH230546   2.881   2.567   1.652  0.2724  0.0058  0.6470
 3044TIP3    H130547   2.878   2.501   1.722 -1.3064  0.7083  1.2935
 3044TIP3    H230548   2.972   2.597   1.652  0.7603 -1.3624  1.0805
 3045TIP3   OH230549   3.905   2.735   0.962 -0.5099 -0.7597  0.4536
 3045TIP3    H130550   3.844   2.808   0.952 -0.6215 -0.6126  1.9154
 3045TIP3    H230551   3.983   2.774   1.003 -0.7850 -1.5335  1.7637
 3046TIP3   OH230552   5.937   3.447   3.567 -0.2880  0.5186 -0.3127
 3046TIP3    H130553   5.883   3.380   3.524  0.5720  0.1368 -0.8262
 3046TIP3    H230554   5.926   3.431   3.660 -0.0151 -0.4247 -0.4291
 3047TIP3   OH230555   5.848   2.730   0.165  0.1546 -0.5313 -0.1591
 3047TIP3    H130556   5.868   2.822   0.152 -0.8287 -0.1186  1.1386
 3047TIP3    H230557   5.891   2.707   0.247  0.1334 -1.1453 -0.3129
 3048TIP3   OH230558   1.061   4.580   1.577 -0.0196 -1.0755 -0.0726
 3048TIP3    H130559   1.117   4.652   1.605  0.6583 -2.0867  1.3034
 3048TIP3    H230560   1.082   4.568   1.484 -1.2392  1.4122 -0.7618
 3049TIP3   OH230561   5.548   5.257  12.596  0.3000  0.0395  0.6753
 3049TIP3    H130562   5.585   5.191  12.654 -1.1182 -0.8242  0.6455
 3049TIP3    H230563   5.460   5.224  12.574 -0.6643  2.1579  1.0510
 3050TIP3   OH230564   5.456   5.694   3.476 -0.6594 -0.0752  0.0768
 3050TIP3    H130565   5.492   5.752   3.542 -1.5553  0.6440 -0.0560
 3050TIP3    H230566   5.372   5.665   3.512 -0.5153 -0.7751 -0.1402
 3051TIP3   OH230567   5.626   4.026  14.282  0.4232  0.2711 -0.0465
 3051TIP3    H130568   5.600   4.034  14.190 -1.7539 -1.1680  0.3621
 3051TIP3    H230569   5.709   3.980  14.280  2.2065  3.2604 -1.3635
 3052TIP3   OH230570   3.955   3.636  11.246 -0.0251 -0.3834 -0.2028
 3052TIP3    H130571   3.874   3.678  11.273  0.3504 -0.5206  1.2315
 3052TIP3    H230572   3.931   3.546  11.225 -0.7448  0.3138 -2.8044
 3053TIP3   OH230573   3.707   0.094   2.269  0.2825  0.2167 -0.6128
 3053TIP3    H130574   3.649   0.127   2.200 -1.3128  0.6527  0.8837
 3053TIP3    H230575   3.792   0.134   2.250 -0.4155  1.2893 -1.6084
 3054TIP3   OH230576   6.552   4.734   3.894 -0.4228 -0.4195  0.3352
 3054TIP3    H130577   6.630   4.745   3.948  0.0033 -1.7482  0.0203
 3054TIP3    H230578   6.556   4.644   3.864 -1.0333  0.0765 -1.3361
 3055TIP3   OH230579   5.023   6.572   0.269 -0.5452 -0.3224  0.3433
 3055TIP3    H130580   4.945   6.626   0.285 -1.4991 -1.1185 -1.3958
 3055TIP3    H230581   4.999   6.515   0.196  3.1035  2.4011 -3.4346
 3056TIP3   OH230582   0.847   4.147  12.116 -0.1180  0.3477  0.1309
 3056TIP3    H130583   0.863   4.110  12.203  1.2487  2.1247  0.6895
 3056TIP3    H230584   0.913   4.106  12.061 -1.3398 -1.2069 -0.2567
 3057TIP3   OH230585   0.528   4.806  13.579 -0.1830 -0.4926 -0.0864
 3057TIP3    H130586   0.458   4.745  13.599  0.5306 -0.6570  2.1346
 3057TIP3    H230587   0.583   4.806  13.657 -0.1948  3.0293  0.1034
 3058TIP3   OH230588   5.785   2.863   1.864  0.0949 -0.0718  0.1720
 3058TIP3    H130589   5.711   2.859   1.804 -0.6354  0.1167  1.0409
 3058TIP3    H230590   5.862   2.869   1.807 -0.6237  0.8648 -0.7445
 3059TIP3   OH230591   0.872   5.129  13.713 -0.2215 -0.1611 -0.1026
 3059TIP3    H130592   0.799   5.134  13.775  0.4526  1.2532  0.6339
 3059TIP3    H230593   0.830   5.117  13.628 -1.2950  0.1439  0.3658
 3060TIP3   OH230594   5.206   4.566   2.511 -0.1173 -0.4874  0.3884
 3060TIP3    H130595   5.294   4.528   2.512  0.1300 -0.0774 -1.3387
 3060TIP3    H230596   5.220   4.657   2.487 -1.0447 -0.5933 -0.6467
 3061TIP3   OH230597   5.506   5.834  15.003 -0.3282 -0.4716  0.2198
 3061TIP3    H130598   5.562   5.799  14.934 -0.8568  0.3519 -0.6545
 3061TIP3    H230599   5.452   5.759  15.030  1.8508 -1.5614  1.8254
 3062TIP3   OH230600   3.048   1.090   3.679  0.0957  0.5422 -0.2281
 3062TIP3    H130601   3.026   1.020   3.617 -0.2184 -0.4048  0.9082
 3062TIP3    H230602   3.135   1.120   3.651  0.2207 -0.2784 -0.7599
 3063TIP3   OH230603   4.516   1.142   2.108 -0.1758  0.1155 -0.0993
 3063TIP3    H130604   4.560   1.074   2.057  1.2026  1.3417 -0.6050
 3063TIP3    H230605   4.441   1.097   2.147  1.7932 -2.2060  1.2573
 3064TIP3   OH230606   5.384   1.442   4.232  0.1368  0.1055  0.4138
 3064TIP3    H130607   5.390   1.402   4.319 -0.4242 -2.0231 -0.4509
 3064TIP3    H230608   5.386   1.367   4.171 -0.0097  1.4897 -1.3760
 3065TIP3   OH230609   4.624   5.449  14.794  0.7680  0.6370  0.3208
 3065TIP3    H130610   4.575   5.384  14.744  2.7757  1.0583 -2.4037
 3065TIP3    H230611   4.576   5.456  14.877 -1.4308 -1.7970 -0.5964
 3066TIP3   OH230612   1.909   2.440  14.856 -0.0823  0.2605 -0.1734
 3066TIP3    H130613   1.821   2.419  14.825 -0.1704  0.7149 -0.2366
 3066TIP3    H230614   1.920   2.533  14.836 -0.8169  1.0886  2.7387
 3067TIP3   OH230615   0.240   1.613  15.910  0.8339  0.1083  0.2287
 3067TIP3    H130616   0.279   1.533  15.874  0.8827  0.8173 -1.4036
 3067TIP3    H230617   0.198   1.655  15.835 -0.9982  0.5908  1.4660
 3068TIP3   OH230618   4.967   0.904   5.533  0.7835  0.3815 -0.4190
 3068TIP3    H130619   4.948   0.816   5.502 -0.1403 -0.4313  2.1595
 3068TIP3    H230620   5.051   0.895   5.579 -0.3274  0.2484  1.7230
 3069TIP3   OH230621   0.675   0.136   5.838 -0.4568  0.2005  0.0371
 3069TIP3    H130622   0.770   0.137   5.827 -0.6319  0.9558 -1.7098
 3069TIP3    H230623   0.661   0.080   5.915  1.5632  2.7292  2.4654
 3070TIP3   OH230624   1.986   4.091  11.013  0.0894  0.1082 -0.2543
 3070TIP3    H130625   2.017   4.176  11.044  0.8255 -0.9320  2.0450
 3070TIP3    H230626   1.911   4.071  11.068  0.7184 -1.3023  0.1320
 3071TIP3   OH230627   0.655   3.759   4.297 -0.0938 -0.3134 -0.5213
 3071TIP3    H130628   0.698   3.723   4.374 -0.1185 -1.5857 -1.0926
 3071TIP3    H230629   0.617   3.842   4.328 -1.5427 -1.5808  1.2783
 3072TIP3   OH230630   4.547   1.941  14.760  0.0100 -0.3914 -0.6631
 3072TIP3    H130631   4.479   1.876  14.742 -0.6978  0.5869 -1.6493
 3072TIP3    H230632   4.609   1.931  14.688  0.2004 -0.3534 -0.5062
 3073TIP3   OH230633   1.631   2.278  13.051  0.0813 -0.4946  0.5409
 3073TIP3    H130634   1.655   2.355  13.101  0.4727 -0.2178 -0.0594
 3073TIP3    H230635   1.692   2.210  13.080  1.3863  0.0988 -0.6956
 3074TIP3   OH230636   1.377   5.250  10.654  0.3053 -0.0220 -0.3165
 3074TIP3    H130637   1.340   5.262  10.742  0.6287  5.2562 -0.5951
 3074TIP3    H230638   1.301   5.248  10.596  0.1811 -0.2632 -0.1466
 3075TIP3   OH230639   3.717   2.164  15.818 -0.4071 -0.1550  0.3073
 3075TIP3    H130640   3.723   2.120  15.903  2.5308  0.1831  0.3672
 3075TIP3    H230641   3.733   2.095  15.754 -2.4028 -0.3657 -0.0258
 3076TIP3   OH230642   2.864   4.058   1.661 -0.2366 -0.0616 -0.3951
 3076TIP3    H130643   2.885   4.084   1.571 -0.6202  0.9394 -0.2174
 3076TIP3    H230644   2.824   3.972   1.652 -2.0213  0.7990 -1.4133
 3077TIP3   OH230645   0.828   3.816   3.366 -0.3209  0.3099  0.2205
 3077TIP3    H130646   0.850   3.755   3.295 -0.9412  0.7843 -0.3953
 3077TIP3    H230647   0.767   3.878   3.326  3.0351  3.6356 -0.2680
 3078TIP3   OH230648   5.551   0.587   3.235 -0.5125  0.2828  0.6124
 3078TIP3    H130649   5.470   0.583   3.186 -1.5753 -2.0010  2.3294
 3078TIP3    H230650   5.618   0.559   3.173 -0.6602  3.7389 -1.2882
 3079TIP3   OH230651   0.121   5.662   4.727 -0.0285 -0.5853  0.2605
 3079TIP3    H130652   0.039   5.703   4.753 -0.3059 -0.6964 -0.4225
 3079TIP3    H230653   0.094   5.580   4.684  0.5261 -1.9455  2.3481
 3080TIP3   OH230654   6.334   2.594  14.875 -0.0484  0.1140  0.1746
 3080TIP3    H130655   6.321   2.567  14.784 -0.1107  1.2879 -0.1888
 3080TIP3    H230656   6.312   2.687  14.875  0.8458  0.3435  1.1963
 3081TIP3   OH230657   2.385   3.846   4.875  0.5096  0.9496  0.1721
 3081TIP3    H130658   2.324   3.920   4.870 -0.3253  0.2020 -1.1802
 3081TIP3    H230659   2.349   3.780   4.816  1.6768 -0.2360  0.7207
 3082TIP3   OH230660   0.079   4.428   2.415  0.3506  0.1012  0.2881
 3082TIP3    H130661   0.121   4.376   2.484 -2.2757  0.5182  2.3420
 3082TIP3    H230662   0.035   4.363   2.360  1.9947 -0.1870 -0.7687
 3083TIP3   OH230663   0.197   4.615  15.601  0.1242  0.0247  0.6063
 3083TIP3    H130664   0.291   4.602  15.586 -0.0311 -0.0029 -0.4463
 3083TIP3    H230665   0.156   4.577  15.524 -0.8627 -1.4569  1.8021
 3084TIP3   OH230666   3.035   2.444  12.981 -0.1570  0.2055  0.5835
 3084TIP3    H130667   2.957   2.491  13.010 -1.3006 -2.1651  1.6108
 3084TIP3    H230668   3.094   2.513  12.951 -2.9665  2.0745 -1.1642
 3085TIP3   OH230669   2.555   6.644   1.382 -0.0672 -0.4569 -0.3226
 3085TIP3    H130670   2.528   6.708   1.448  0.5837  1.0636 -1.4685
 3085TIP3    H230671   2.564   6.562   1.431 -0.4280  0.4171  1.2983
 3086TIP3   OH230672   2.677   3.353  13.904 -0.4603 -0.4683  0.0150
 3086TIP3    H130673   2.731   3.277  13.883 -1.3928 -1.4445  1.0284
 3086TIP3    H230674   2.709   3.422  13.845  0.9882 -1.3785 -0.3259
 3087TIP3   OH230675   2.568   0.668  11.089 -0.0663 -0.1031 -0.1233
 3087TIP3    H130676   2.647   0.637  11.135 -0.2990  0.3309  0.5887
 3087TIP3    H230677   2.601   0.727  11.022  0.1634  1.0485  0.9691
 3088TIP3   OH230678   4.686   6.133   2.754 -0.0057 -0.5335  0.3815
 3088TIP3    H130679   4.707   6.225   2.738  0.2577 -0.5559  0.6175
 3088TIP3    H230680   4.620   6.113   2.687 -1.4995  0.3613  1.5379
 3089TIP3   OH230681   0.391   0.004  16.427  0.3037  0.3683  0.0386
 3089TIP3    H130682   0.385  -0.047  16.346 -1.0765 -0.1206  0.4207
 3089TIP3    H230683   0.306   0.048  16.434  0.4663  0.5327  1.1324
 3090TIP3   OH230684   2.301   0.548  11.092 -0.0548  0.2741  0.4461
 3090TIP3    H130685   2.240   0.608  11.134  0.3079  0.5562  0.5746
 3090TIP3    H230686   2.382   0.599  11.081 -0.2195  0.2959 -0.8367
 3091TIP3   OH230687   5.739   2.004  12.328 -0.7710  0.4317  0.6472
 3091TIP3    H130688   5.653   2.045  12.334 -0.6046  1.0072 -0.6147
 3091TIP3    H230689   5.751   1.986  12.234 -0.4067 -1.5950  1.0183
 3092TIP3   OH230690   2.680   3.613   2.912  0.5399 -0.1074  0.3814
 3092TIP3    H130691   2.776   3.613   2.915  0.5401 -0.2427  0.4294
 3092TIP3    H230692   2.655   3.532   2.958  0.4022 -0.0554  0.3995
 3093TIP3   OH230693   1.149   1.503  10.483 -0.4119  0.4022 -0.0547
 3093TIP3    H130694   1.164   1.526  10.575 -1.4133  0.3240  0.1456
 3093TIP3    H230695   1.062   1.539  10.464 -0.0436  0.7725 -1.1001
 3094TIP3   OH230696   4.401   4.374  12.319  0.3585 -0.1245 -0.7436
 3094TIP3    H130697   4.432   4.284  12.307 -0.3955 -0.5993  0.6794
 3094TIP3    H230698   4.478   4.423  12.347  0.9921 -0.0854 -2.4491
 3095TIP3   OH230699   4.874   1.593  11.391  0.4980  0.2619 -0.2250
 3095TIP3    H130700   4.841   1.670  11.346 -0.0286  1.2573  1.7312
 3095TIP3    H230701   4.953   1.623  11.435 -0.7791  0.3408  2.2043
 3096TIP3   OH230702   2.272   3.088   4.200  0.3347 -0.2533 -0.2123
 3096TIP3    H130703   2.342   3.053   4.145  1.1709  1.8055 -0.5355
 3096TIP3    H230704   2.195   3.088   4.144  0.5907 -0.4811 -0.5723
 3097TIP3   OH230705   3.685   6.476  14.437  0.3269 -0.4428 -0.4619
 3097TIP3    H130706   3.643   6.390  14.444  3.3129 -2.1696 -1.7493
 3097TIP3    H230707   3.741   6.481  14.514 -0.1774  0.6172 -0.1473
 3098TIP3   OH230708   0.689   4.798  13.059 -0.1336 -0.2836 -0.2576
 3098TIP3    H130709   0.746   4.826  13.130 -1.3080  0.9176  0.2424
 3098TIP3    H230710   0.682   4.703  13.070  0.7488 -0.2763  0.4243
 3099TIP3   OH230711   5.874   6.300  14.975 -0.6871  0.3632 -0.0482
 3099TIP3    H130712   5.807   6.288  14.908 -0.8916 -0.9598  0.3680
 3099TIP3    H230713   5.874   6.218  15.024 -1.3173  1.6840  2.2955
 3100TIP3   OH230714   2.194   3.124  16.665  0.0522 -0.4390 -0.0206
 3100TIP3    H130715   2.107   3.132  16.626  0.5260 -0.8480 -1.1866
 3100TIP3    H230716   2.203   3.204  16.717 -0.3684  0.4213 -1.2211
 3101TIP3   OH230717   2.117   1.637   0.403 -0.1073 -0.0514  0.1850
 3101TIP3    H130718   2.193   1.695   0.395 -1.7725  2.2795 -0.0309
 3101TIP3    H230719   2.112   1.617   0.497  0.0417  0.9080  0.4126
 3102TIP3   OH230720   4.045   5.366   0.421 -0.0761 -0.2789  0.0978
 3102TIP3    H130721   4.083   5.346   0.507 -0.0938  1.1571  0.4703
 3102TIP3    H230722   4.121   5.377   0.364 -0.0689 -1.4305 -0.1313
 3103TIP3   OH230723   6.577   3.674   4.318 -0.2175  0.2781  0.5313
 3103TIP3    H130724   6.573   3.756   4.367 -0.2571  0.2727  0.5371
 3103TIP3    H230725   6.486   3.657   4.292 -0.2311  0.1530  0.6656
 3104TIP3   OH230726   1.292   5.311   1.269  0.3605  0.2233  0.0926
 3104TIP3    H130727   1.337   5.267   1.197 -1.3847  0.3819 -1.1622
 3104TIP3    H230728   1.312   5.404   1.256  0.1679  0.2378 -0.1074
 3105TIP3   OH230729   2.132   0.537  14.017  0.3875  0.7753  0.0202
 3105TIP3    H130730   2.056   0.584  13.982 -1.0785 -2.5911 -1.9229
 3105TIP3    H230731   2.195   0.536  13.944 -0.0126 -0.9458 -0.3403
 3106TIP3   OH230732   2.938   6.410   1.277  0.4449  0.5708  0.4525
 3106TIP3    H130733   2.877   6.392   1.205 -0.0474  0.8928  0.7832
 3106TIP3    H230734   2.989   6.485   1.246  0.5078  0.4550  0.2740
 3107TIP3   OH230735   1.057   5.736   1.196  0.4878  0.0905 -0.9589
 3107TIP3    H130736   1.001   5.761   1.122 -0.2004 -0.4139 -0.6190
 3107TIP3    H230737   1.014   5.773   1.273  1.5520  1.1818 -0.8583
 3108TIP3   OH230738   6.064   2.509   1.205  0.1075 -0.0539  0.4431
 3108TIP3    H130739   6.061   2.599   1.172 -0.7366 -0.0125  0.6045
 3108TIP3    H230740   6.151   2.501   1.244  0.6261  0.3189 -0.6044
 3109TIP3   OH230741   2.823   3.167  11.520  0.4910 -0.3252  0.2009
 3109TIP3    H130742   2.743   3.218  11.505  0.2023 -1.0645 -0.9484
 3109TIP3    H230743   2.871   3.217  11.586 -1.1932 -0.1951  1.3947
 3110TIP3   OH230744   1.885   5.452  10.543 -0.0412 -0.0052  0.1961
 3110TIP3    H130745   1.860   5.544  10.557 -1.1452 -0.7041  3.6098
 3110TIP3    H230746   1.804   5.409  10.517 -0.1532 -0.4407  1.2126
 3111TIP3   OH230747   3.239   4.016   2.020 -0.0559  1.0408  0.1682
 3111TIP3    H130748   3.327   3.983   2.003  0.0192  1.1328  0.3838
 3111TIP3    H230749   3.184   3.970   1.956  0.6822  3.8970 -2.8122
 3112TIP3   OH230750   3.808   0.935   1.853  0.1376  0.7526  0.1681
 3112TIP3    H130751   3.744   0.993   1.812  0.7646  1.6395  0.4262
 3112TIP3    H230752   3.767   0.848   1.848 -1.0289  1.2732  0.2052
 3113TIP3   OH230753   4.125   4.559  10.416 -0.3423  0.7672 -0.1525
 3113TIP3    H130754   4.075   4.637  10.439  1.4387  1.5068  1.4435
 3113TIP3    H230755   4.160   4.527  10.499  1.8664  0.3493 -1.1662
 3114TIP3   OH230756   2.375   6.468   1.151  0.2898 -0.0120 -0.2352
 3114TIP3    H130757   2.372   6.409   1.226  1.3032  0.1450 -0.0549
 3114TIP3    H230758   2.295   6.449   1.102  0.2671 -1.0502  0.1850
 3115TIP3   OH230759   3.923   2.817   4.295 -0.5101  0.2863 -0.1088
 3115TIP3    H130760   3.944   2.905   4.329 -1.1174  0.6696 -0.7086
 3115TIP3    H230761   3.981   2.807   4.219 -0.9707  0.4888 -0.4968
 3116TIP3   OH230762   1.773   1.096  11.423  0.4179 -0.2792  0.2246
 3116TIP3    H130763   1.760   1.187  11.448  0.4109  0.5538 -2.4857
 3116TIP3    H230764   1.856   1.071  11.465  0.2115  0.8101  1.3303
 3117TIP3   OH230765   1.447   3.748   2.810 -0.2915  0.2339  0.3276
 3117TIP3    H130766   1.441   3.839   2.782 -0.7374 -0.0552 -0.5571
 3117TIP3    H230767   1.370   3.706   2.771  1.0920 -1.0146 -1.2529
 3118TIP3   OH230768   2.741   0.850  14.327 -0.8448 -0.0530  0.4493
 3118TIP3    H130769   2.693   0.848  14.410 -1.4353  2.0189  0.2189
 3118TIP3    H230770   2.704   0.924  14.280  1.2613  0.4380 -0.5583
 3119TIP3   OH230771   0.435   2.225   2.431 -0.3701  0.4751  0.0732
 3119TIP3    H130772   0.351   2.236   2.475  0.4394  0.4791  1.6611
 3119TIP3    H230773   0.412   2.201   2.341 -2.0769 -0.7670  0.7995
 3120TIP3   OH230774   4.812   5.672  12.631  0.0468  0.1414 -0.3663
 3120TIP3    H130775   4.782   5.590  12.590 -0.0763  0.9386 -1.9351
 3120TIP3    H230776   4.907   5.666  12.629  0.0419 -0.3655  0.4022
 3121TIP3   OH230777   0.033   4.853  15.615 -0.4311 -0.1125  0.0124
 3121TIP3    H130778   0.072   4.776  15.574  0.1088  0.1422  0.0347
 3121TIP3    H230779   0.071   4.853  15.703  0.8825  1.1011 -0.5184
 3122TIP3   OH230780   5.015   2.542   2.291 -0.4801  0.0015 -0.1596
 3122TIP3    H130781   5.092   2.590   2.260 -0.2895 -0.3193 -0.1859
 3122TIP3    H230782   4.941   2.593   2.258 -0.2997  0.8914  0.7514
 3123TIP3   OH230783   4.094   5.825   6.068  0.4533  0.0370 -0.5050
 3123TIP3    H130784   4.063   5.836   6.158 -0.4498  0.8192 -0.9019
 3123TIP3    H230785   4.186   5.799   6.077  0.9488  1.9857  0.6201
 3124TIP3   OH230786   1.728   3.913   2.990 -0.5821  0.5706  0.7471
 3124TIP3    H130787   1.721   3.818   3.000  0.4403  0.3812 -0.1170
 3124TIP3    H230788   1.694   3.931   2.903 -1.0028  1.0436  1.0005
 3125TIP3   OH230789   2.034   4.540  11.643  0.1417 -0.2331  0.4321
 3125TIP3    H130790   2.073   4.628  11.646  0.5668 -0.4114  0.1172
 3125TIP3    H230791   2.096   4.484  11.688 -1.0696 -0.0350  2.4486
 3126TIP3   OH230792   3.172   1.248   5.369  0.1947 -0.1180 -0.0057
 3126TIP3    H130793   3.125   1.168   5.394 -2.0912  1.2489  0.4139
 3126TIP3    H230794   3.224   1.223   5.293  1.5237 -2.5873  1.5820
 3127TIP3   OH230795   1.625   6.036  11.023  0.2118  0.2885  1.0033
 3127TIP3    H130796   1.714   6.037  10.987 -0.5370 -0.0388 -0.9806
 3127TIP3    H230797   1.609   5.944  11.043  0.0406  0.2329  0.6118
 3128TIP3   OH230798   3.201   2.886  16.313  0.6373 -0.9158 -0.2160
 3128TIP3    H130799   3.118   2.840  16.300  0.2103  0.0320 -0.9376
 3128TIP3    H230800   3.195   2.964  16.258  1.6707 -0.3956  0.3669
 3129TIP3   OH230801   5.571   2.823  13.066 -0.2701 -0.0797 -0.2606
 3129TIP3    H130802   5.491   2.779  13.094 -0.2494 -1.2202 -1.8693
 3129TIP3    H230803   5.642   2.763  13.090  0.3662  1.5954  2.6056
 3130TIP3   OH230804   0.671   3.845   1.638 -0.7818  0.5121 -0.0386
 3130TIP3    H130805   0.734   3.910   1.667  0.0797 -0.0496 -0.5977
 3130TIP3    H230806   0.592   3.895   1.617 -0.6964  1.1702  1.1335
 3131TIP3   OH230807   4.544   3.812  10.928 -0.0622  0.1196 -0.6643
 3131TIP3    H130808   4.594   3.771  10.857 -0.5143  0.2200 -1.0513
 3131TIP3    H230809   4.579   3.900  10.935  0.1115  0.0479 -0.6389
 3132TIP3   OH230810   2.496   4.966   3.445 -0.0977 -0.0557 -0.3772
 3132TIP3    H130811   2.576   5.018   3.437 -0.3083  1.0641  2.9616
 3132TIP3    H230812   2.441   4.994   3.372  2.5498 -1.1184 -2.9946
 3133TIP3   OH230813   0.685   6.718  12.101  0.1311 -0.1605  0.0709
 3133TIP3    H130814   0.704   6.765  12.182  0.1806  2.0941 -1.1616
 3133TIP3    H230815   0.605   6.669  12.120 -0.1129  0.6751  1.3415
 3134TIP3   OH230816   6.756   0.540  13.727  0.4556 -0.5856  0.5592
 3134TIP3    H130817   6.829   0.478  13.728  0.1962 -0.9010  0.4373
 3134TIP3    H230818   6.765   0.589  13.808 -0.0188 -1.6089  1.2580
 3135TIP3   OH230819   6.644   2.797  15.062  0.3103 -0.2771 -0.4703
 3135TIP3    H130820   6.727   2.801  15.109  0.6241 -4.5933 -0.2572
 3135TIP3    H230821   6.669   2.794  14.969  0.0807  1.9103 -0.6482
 3136TIP3   OH230822   3.773   6.478   3.005  0.3336 -0.4504  0.0207
 3136TIP3    H130823   3.771   6.455   3.098  1.4198  0.0284  0.1878
 3136TIP3    H230824   3.761   6.573   3.003 -0.5169 -0.5563 -0.3989
 3137TIP3   OH230825   5.956   0.194  10.801  0.3950  0.3998  0.1397
 3137TIP3    H130826   6.021   0.264  10.808  2.3967 -1.0619 -1.8736
 3137TIP3    H230827   5.893   0.225  10.736 -0.1955  1.3049  1.1281
 3138TIP3   OH230828   1.031   1.440   2.422 -0.2235 -0.0216 -0.5665
 3138TIP3    H130829   0.977   1.365   2.447 -0.3887 -0.1409 -1.2725
 3138TIP3    H230830   1.074   1.467   2.504 -1.3261  0.0643  0.0107
 3139TIP3   OH230831   2.174   6.056   4.014 -0.2817  0.0655  0.0189
 3139TIP3    H130832   2.150   6.024   3.927 -0.3862  1.4220 -0.4715
 3139TIP3    H230833   2.270   6.054   4.014 -0.2523  1.0026 -0.5073
 3140TIP3   OH230834   2.716   0.264   5.029  0.0382  0.3539  0.4647
 3140TIP3    H130835   2.739   0.331   4.965  1.5810 -1.0885 -0.5654
 3140TIP3    H230836   2.779   0.276   5.100  0.0328  0.2637  0.4839
 3141TIP3   OH230837   1.944   3.424   4.537 -0.3653  0.1111 -0.0787
 3141TIP3    H130838   1.860   3.461   4.561 -0.2350 -0.0468  0.6388
 3141TIP3    H230839   1.992   3.496   4.496 -0.8170  0.2184 -0.4239
 3142TIP3   OH230840   2.071   5.240   5.142  0.2874 -0.4549 -0.6364
 3142TIP3    H130841   2.098   5.211   5.230 -0.2906 -0.3693 -0.4266
 3142TIP3    H230842   2.043   5.330   5.155  1.0318 -0.1489 -1.0833
 3143TIP3   OH230843   4.459   5.810  11.038  0.8188  0.0250  0.2919
 3143TIP3    H130844   4.547   5.783  11.012  1.1219  0.9274  0.3818
 3143TIP3    H230845   4.455   5.794  11.132  0.5147 -1.0097  0.1223
 3144TIP3   OH230846   6.375   1.672   0.468  0.3548  0.5679  0.2421
 3144TIP3    H130847   6.416   1.758   0.476 -0.7090  1.1849 -0.6772
 3144TIP3    H230848   6.428   1.615   0.525  0.4887  2.0238  1.6573
 3145TIP3   OH230849   5.755   1.835  15.465  0.7962 -0.2864 -0.2491
 3145TIP3    H130850   5.796   1.889  15.533 -0.9947  0.5968  0.1907
 3145TIP3    H230851   5.747   1.893  15.390 -1.7634  0.4059  0.4393
 3146TIP3   OH230852   5.977   0.237  15.910 -0.5480 -0.0760  0.4259
 3146TIP3    H130853   6.063   0.254  15.873 -1.0338  4.2672  0.8234
 3146TIP3    H230854   5.930   0.191  15.841  1.1317  0.2846 -1.0229
 3147TIP3   OH230855   5.593   2.591   1.438  0.2950  0.0464  0.0037
 3147TIP3    H130856   5.589   2.664   1.500  2.8240  0.2666  0.0273
 3147TIP3    H230857   5.560   2.516   1.487 -0.2574  0.7262  0.7072
 3148TIP3   OH230858   3.442   2.089   1.396 -0.4625 -0.9615  0.3331
 3148TIP3    H130859   3.398   2.043   1.324 -1.1244  0.8826 -0.5103
 3148TIP3    H230860   3.531   2.104   1.363 -0.6397 -0.4851  0.0732
 3149TIP3   OH230861   1.237   6.387   0.925  0.4605 -0.3828 -0.3412
 3149TIP3    H130862   1.150   6.400   0.887  0.6489 -0.8311 -0.9426
 3149TIP3    H230863   1.229   6.421   1.014 -0.1161  0.2873 -0.6306
 3150TIP3   OH230864   1.678   5.267  13.859  0.5911  0.3332 -0.2953
 3150TIP3    H130865   1.772   5.269  13.878  0.7027  1.3638 -0.8360
 3150TIP3    H230866   1.670   5.316  13.777 -0.5282  1.1393  0.2651
 3151TIP3   OH230867   3.142   2.967   2.205 -0.5382 -0.4543  0.6754
 3151TIP3    H130868   3.056   2.937   2.233 -0.5791 -0.1859  0.8379
 3151TIP3    H230869   3.158   2.920   2.123 -1.2974  0.2919  0.0897
 3152TIP3   OH230870   1.634   6.694   2.708 -0.1988  0.2131  0.6494
 3152TIP3    H130871   1.714   6.746   2.700  0.3375 -0.0272  3.4454
 3152TIP3    H230872   1.579   6.745   2.767 -1.9726  0.1429 -0.8523
 3153TIP3   OH230873   3.997   5.934  16.306 -0.1479  0.2312 -0.0933
 3153TIP3    H130874   3.955   5.913  16.223 -1.6586 -0.4007  0.7987
 3153TIP3    H230875   4.045   5.855  16.330 -2.3060 -0.7885  1.1400
 3154TIP3   OH230876   5.447   2.131   0.373  0.5093  0.2528  0.1238
 3154TIP3    H130877   5.500   2.177   0.308  0.3869  0.4566  0.1667
 3154TIP3    H230878   5.388   2.077   0.320  0.3303  0.5075  0.0602
 3155TIP3   OH230879   4.354   0.344  14.501 -0.4074  0.3690  0.3651
 3155TIP3    H130880   4.438   0.305  14.525 -0.7482 -1.9458 -1.8369
 3155TIP3    H230881   4.291   0.274  14.511 -0.9896 -0.0533 -4.2171
 3156TIP3   OH230882   0.496   4.829   4.328  0.0534  0.3950  0.1308
 3156TIP3    H130883   0.569   4.880   4.362  0.8235 -0.9156  0.4942
 3156TIP3    H230884   0.418   4.871   4.365  0.5342  2.2324 -0.8104
 3157TIP3   OH230885   2.028   2.255   0.156 -1.0483 -0.7520  0.0240
 3157TIP3    H130886   1.942   2.211   0.155 -0.1645 -2.5745 -0.0611
 3157TIP3    H230887   2.091   2.183   0.154  0.5006  0.5869 -1.4694
 3158TIP3   OH230888   2.597   5.237   0.300 -0.1103  0.1110 -0.0391
 3158TIP3    H130889   2.588   5.303   0.369 -0.0780 -0.1212  0.1871
 3158TIP3    H230890   2.544   5.163   0.330  0.2378 -0.1506 -0.0678
 3159TIP3   OH230891   0.669   0.179  15.411  0.9233  0.3922  0.5393
 3159TIP3    H130892   0.676   0.095  15.456 -0.1446 -0.3875 -0.6877
 3159TIP3    H230893   0.696   0.161  15.321 -0.0949  1.1650  0.0571
 3160TIP3   OH230894   6.487   1.781  11.970 -0.0627  0.2874 -0.3027
 3160TIP3    H130895   6.447   1.700  11.939 -0.7363 -0.5131  2.3812
 3160TIP3    H230896   6.454   1.849  11.911 -0.1612 -1.2450 -2.0860
 3161TIP3   OH230897   0.225   0.300   1.238  1.1107 -0.1497 -0.4413
 3161TIP3    H130898   0.179   0.379   1.211 -0.0893 -0.8526 -0.5091
 3161TIP3    H230899   0.248   0.317   1.330  0.8199  0.2611 -0.4401
 3162TIP3   OH230900   4.993   1.866   2.686 -0.1343 -0.8445  0.5800
 3162TIP3    H130901   5.075   1.864   2.736  1.5320  1.0361 -1.8463
 3162TIP3    H230902   5.018   1.835   2.598 -1.0785  3.0399 -1.2682
 3163TIP3   OH230903   6.513   1.904  14.170  0.1459  0.1416 -0.3143
 3163TIP3    H130904   6.606   1.912  14.151  0.5241  1.0139  1.6229
 3163TIP3    H230905   6.498   1.809  14.177  1.9885 -0.0637  3.6631
 3164TIP3   OH230906   1.848   0.605   5.761  0.5909  0.3357  0.2383
 3164TIP3    H130907   1.763   0.597   5.718 -0.3156  0.4384  1.9289
 3164TIP3    H230908   1.896   0.527   5.734 -0.6592 -0.5584  0.5229
 3165TIP3   OH230909   2.253   0.042  13.542  0.0179 -0.7036 -0.9315
 3165TIP3    H130910   2.161   0.020  13.559 -0.1841 -0.0928 -1.1779
 3165TIP3    H230911   2.258   0.053  13.447  0.0394  0.5020 -0.8165
 3166TIP3   OH230912   1.482   6.173  14.403 -0.0943  0.3497  0.7857
 3166TIP3    H130913   1.427   6.158  14.326  0.5044  0.5582  0.3105
 3166TIP3    H230914   1.570   6.150  14.373 -0.0273 -0.7660  1.7671
 3167TIP3   OH230915   5.055   3.700   6.067 -0.0026  0.0972 -0.1505
 3167TIP3    H130916   5.117   3.764   6.104  1.4777 -0.9852 -0.6838
 3167TIP3    H230917   4.994   3.753   6.016  1.3216  1.0880 -0.7571
 3168TIP3   OH230918   0.176   5.030   4.171 -0.3236  0.2414 -0.0069
 3168TIP3    H130919   0.217   5.010   4.087  0.0097  0.9206 -0.0149
 3168TIP3    H230920   0.171   5.126   4.172 -1.4438  0.1846  0.2178
 3169TIP3   OH230921   5.966   2.596  12.463  0.2830 -0.1007  0.3947
 3169TIP3    H130922   6.004   2.675  12.426  0.1225 -0.2708 -0.1436
 3169TIP3    H230923   5.873   2.616  12.472  0.2713 -0.1658  0.4209
 3170TIP3   OH230924   5.844   3.014  15.131  0.0329 -0.4848 -0.6988
 3170TIP3    H130925   5.859   3.022  15.037  1.1902 -1.1000 -0.5825
 3170TIP3    H230926   5.804   2.928  15.142 -0.4107 -0.2748 -0.6566
 3171TIP3   OH230927   5.919   4.339  15.551 -0.3165 -0.0397 -0.2323
 3171TIP3    H130928   5.886   4.426  15.576 -1.1857 -0.3326 -0.3656
 3171TIP3    H230929   5.866   4.313  15.476  0.5706 -0.2900 -0.7863
 3172TIP3   OH230930   1.762   1.324   0.608 -0.1897  0.7361 -0.2607
 3172TIP3    H130931   1.727   1.253   0.553 -3.0713 -0.0760  2.3434
 3172TIP3    H230932   1.749   1.403   0.556  1.3889 -0.3413 -2.4856
 3173TIP3   OH230933   5.539   1.769   1.323 -0.0707 -0.5785  0.1764
 3173TIP3    H130934   5.633   1.779   1.339  0.4035 -1.5983 -1.6388
 3173TIP3    H230935   5.534   1.729   1.236 -2.1488 -2.1537  0.9392
 3174TIP3   OH230936   3.185   4.607  17.043  0.2614 -0.3737  0.1967
 3174TIP3    H130937   3.232   4.691  17.046 -0.6171  0.0941  1.9144
 3174TIP3    H230938   3.115   4.621  16.979  0.1043  0.2148  0.4916
 3175TIP3   OH230939   6.732   2.118  14.653  0.3085 -0.1595  0.1766
 3175TIP3    H130940   6.638   2.135  14.640  0.8168  1.5560 -1.8677
 3175TIP3    H230941   6.772   2.204  14.651  2.0060 -0.9068  0.4726
 3176TIP3   OH230942   2.468   1.013   2.646  0.1305 -0.4621 -0.1351
 3176TIP3    H130943   2.407   1.025   2.573 -1.2919 -2.7887  0.5677
 3176TIP3    H230944   2.430   1.063   2.718  0.2454 -0.1287 -0.3038
 3177TIP3   OH230945   2.589   5.354  16.627  0.7366  0.1836 -0.2282
 3177TIP3    H130946   2.517   5.346  16.565 -0.1107 -0.2085  0.7722
 3177TIP3    H230947   2.577   5.281  16.688  1.3050  0.7864  0.6322
 3178TIP3   OH230948   3.615   1.961   1.892 -0.1261 -1.0638 -0.5050
 3178TIP3    H130949   3.572   2.030   1.942 -0.7272 -0.9404 -1.1881
 3178TIP3    H230950   3.688   2.006   1.848  1.1878 -1.3993  1.1880
 3179TIP3   OH230951   0.288   4.854  12.305 -0.3985  0.3475  0.1992
 3179TIP3    H130952   0.354   4.879  12.241 -0.0047 -0.5694  0.2367
 3179TIP3    H230953   0.315   4.899  12.386 -0.5690  1.0319 -0.1165
 3180TIP3   OH230954   0.473   2.393  15.610  0.0330 -0.1807  0.6373
 3180TIP3    H130955   0.474   2.343  15.528 -0.9178  0.8360 -0.0290
 3180TIP3    H230956   0.415   2.343  15.668 -0.9834  0.1535 -0.0566
 3181TIP3   OH230957   5.406   4.694  13.185  0.3194  0.6294  0.4309
 3181TIP3    H130958   5.398   4.610  13.231 -0.5966  0.7650  0.5277
 3181TIP3    H230959   5.416   4.671  13.093  1.3101  0.3857  0.5805
 3182TIP3   OH230960   0.873   0.042   0.562  0.6982 -0.0191  0.2717
 3182TIP3    H130961   0.792   0.031   0.612 -0.0334 -1.1442 -1.0744
 3182TIP3    H230962   0.921  -0.040   0.576  0.8277 -0.0390 -0.2881
 3183TIP3   OH230963   6.013   0.451  11.923  0.1668 -0.1976  0.5497
 3183TIP3    H130964   5.947   0.517  11.945  1.2871  1.0600  0.2341
 3183TIP3    H230965   5.982   0.414  11.840  0.6675  1.5628 -0.4757
 3184TIP3   OH230966   6.692   5.731  14.376 -0.2369  0.2204  0.1494
 3184TIP3    H130967   6.691   5.788  14.299 -0.7002  0.8232  0.6032
 3184TIP3    H230968   6.614   5.676  14.366  1.7094 -2.5178 -1.8727
 3185TIP3   OH230969   5.999   5.222   3.122  0.1815 -0.2229  0.4204
 3185TIP3    H130970   5.940   5.290   3.088  1.1900  1.2802  1.5623
 3185TIP3    H230971   5.941   5.149   3.143 -0.6695 -0.7738 -3.1637
 3186TIP3   OH230972   3.884   2.490  16.165  0.1746  0.2192  0.3704
 3186TIP3    H130973   3.804   2.444  16.142  1.0121 -1.1638  0.1360
 3186TIP3    H230974   3.855   2.579  16.187 -1.1132  0.5628 -2.3221
 3187TIP3   OH230975   0.800   1.361  11.487  0.2758  0.0617 -0.2421
 3187TIP3    H130976   0.845   1.443  11.467 -1.2074  0.6053 -1.4951
 3187TIP3    H230977   0.854   1.294  11.445  0.8862  0.5070 -0.1830
 3188TIP3   OH230978   4.167   2.448  13.370 -0.2650  0.1548  0.3252
 3188TIP3    H130979   4.211   2.520  13.325 -1.2027  0.2079 -0.5275
 3188TIP3    H230980   4.103   2.490  13.427 -0.8941  0.0008 -0.2612
 3189TIP3   OH230981   6.190   4.682   6.037 -0.0603  0.3514  0.0892
 3189TIP3    H130982   6.219   4.690   5.946 -0.7791 -0.2904 -0.1990
 3189TIP3    H230983   6.147   4.766   6.055 -1.3568 -0.1089 -0.6964
 3190TIP3   OH230984   1.806   2.409   1.680 -0.0130  0.3025  0.3770
 3190TIP3    H130985   1.901   2.402   1.670 -0.1054 -0.4963 -0.0182
 3190TIP3    H230986   1.771   2.361   1.605 -0.7273 -0.5861  1.2522
 3191TIP3   OH230987   0.082   3.107   1.171 -0.5005 -0.0865 -0.0175
 3191TIP3    H130988   0.166   3.070   1.198 -0.5684 -0.4167 -0.2534
 3191TIP3    H230989   0.037   3.126   1.254  0.0471  0.6691  0.1191
 3192TIP3   OH230990   5.344   2.896   1.011  0.7956 -0.2980  0.2686
 3192TIP3    H130991   5.351   2.870   0.919 -2.4860 -1.4848  0.2420
 3192TIP3    H230992   5.286   2.830   1.051 -1.0018  2.2715  2.2422
 3193TIP3   OH230993   2.063   0.762  11.915  0.4520  0.2812 -0.7476
 3193TIP3    H130994   2.062   0.818  11.993 -0.2989 -0.4004 -0.2546
 3193TIP3    H230995   2.001   0.803  11.855 -0.4832 -0.2942 -0.1835
 3194TIP3   OH230996   2.797   4.582   1.261 -0.5816  0.1517  0.6280
 3194TIP3    H130997   2.798   4.619   1.173 -2.1179 -2.0681 -0.3895
 3194TIP3    H230998   2.758   4.651   1.315  0.9264  1.7751 -0.2477
 3195TIP3   OH230999   1.138   4.152  11.996  0.4100  0.0716  0.4265
 3195TIP3    H131000   1.193   4.227  12.016 -0.1459  0.0400  2.2374
 3195TIP3    H231001   1.133   4.151  11.900  2.6302  0.7113  0.2553
 3196TIP3   OH231002   3.808   3.791  17.036  0.2805  0.3402 -0.0269
 3196TIP3    H131003   3.852   3.709  17.059 -0.3280  0.6439  2.4187
 3196TIP3    H231004   3.800   3.787  16.940 -0.8106 -3.0023  0.0703
 3197TIP3   OH231005   4.864   0.707   1.078  1.0243  0.1876 -0.6888
 3197TIP3    H131006   4.933   0.750   1.027 -0.4114  1.1733 -1.9041
 3197TIP3    H231007   4.814   0.779   1.117 -1.3394 -0.2275 -2.6417
 3198TIP3   OH231008   1.451   2.717  15.085  0.4614  0.7576  0.1018
 3198TIP3    H131009   1.475   2.625  15.082 -0.3388  0.5432 -2.3292
 3198TIP3    H231010   1.534   2.764  15.089  0.9019 -0.0390  0.6427
 3199TIP3   OH231011   1.405   4.681  14.877  0.4915  0.5316  0.5064
 3199TIP3    H131012   1.388   4.684  14.783  2.5031  1.7730  0.1184
 3199TIP3    H231013   1.462   4.605  14.888  0.5340  0.5880  0.6690
 3200TIP3   OH231014   5.218   0.502   0.960  0.0608  0.2342  0.0352
 3200TIP3    H131015   5.190   0.522   0.871  0.2003  0.7282  0.0967
 3200TIP3    H231016   5.218   0.587   1.004  0.7605  0.1117  0.2861
 3201TIP3   OH231017   0.268   5.113  15.014 -0.2620  0.7326  0.0483
 3201TIP3    H131018   0.264   5.096  14.920  1.0608  0.4902  0.0221
 3201TIP3    H231019   0.177   5.105  15.043 -0.9935  2.6100 -1.4832
 3202TIP3   OH231020   6.302   4.462  11.354  0.3434  0.0619 -0.1705
 3202TIP3    H131021   6.241   4.388  11.353  0.7039 -0.2679 -2.1842
 3202TIP3    H231022   6.249   4.537  11.380 -0.9893 -0.2012 -1.9746
 3203TIP3   OH231023   3.264   4.792  11.386  0.1914  0.2379 -0.1042
 3203TIP3    H131024   3.345   4.815  11.341  1.1117 -2.2065  0.1743
 3203TIP3    H231025   3.284   4.802  11.479 -0.0992  0.4263 -0.0603
 3204TIP3   OH231026   0.065   5.461   0.133 -0.1846 -0.8038  0.5008
 3204TIP3    H131027   0.030   5.373   0.149 -0.5387 -0.3064  2.8371
 3204TIP3    H231028   0.091   5.492   0.219  0.7671  1.0668 -0.4104
 3205TIP3   OH231029   3.677   4.442  12.329  0.0854 -0.4464 -0.2329
 3205TIP3    H131030   3.652   4.370  12.386 -0.7079 -0.6735 -0.8515
 3205TIP3    H231031   3.665   4.408  12.240 -0.3266  0.4481 -0.5297
 3206TIP3   OH231032   3.158   4.229  12.208 -0.3381 -0.3103 -0.0999
 3206TIP3    H131033   3.135   4.252  12.118 -0.0885 -0.1532 -0.1231
 3206TIP3    H231034   3.245   4.266  12.221  0.6457 -2.3205 -0.5647
 3207TIP3   OH231035   1.351   6.750   5.658  0.3042 -0.2574  0.7720
 3207TIP3    H131036   1.344   6.833   5.704 -0.4670  0.0292  0.1708
 3207TIP3    H231037   1.283   6.695   5.696  0.4426 -0.4227  0.7844
 3208TIP3   OH231038   0.358   3.329   4.120 -0.4821 -0.0851  0.2168
 3208TIP3    H131039   0.444   3.323   4.160  0.0228  0.4128 -0.7788
 3208TIP3    H231040   0.343   3.422   4.107 -2.4109  0.1285  2.9568
 3209TIP3   OH231041   2.481   0.516   4.915  0.0484 -0.1595  0.9525
 3209TIP3    H131042   2.458   0.588   4.857  1.3786 -2.3291 -2.5701
 3209TIP3    H231043   2.576   0.520   4.923  0.0452 -0.9368  1.5477
 3210TIP3   OH231044   4.645   4.589  14.784 -0.5222  0.2219  1.0470
 3210TIP3    H131045   4.552   4.572  14.798 -0.5196 -1.8491 -0.7862
 3210TIP3    H231046   4.650   4.683  14.767 -2.3953  0.2898  0.6028
 3211TIP3   OH231047   3.050   0.087  13.854 -0.1002  0.1825  0.3377
 3211TIP3    H131048   3.018   0.053  13.938  1.7904 -0.4114  0.8740
 3211TIP3    H231049   3.144   0.070  13.856  0.3407  2.1438 -0.9966
 3212TIP3   OH231050   4.600   2.452  15.321  0.3216 -1.1494 -0.3042
 3212TIP3    H131051   4.509   2.461  15.290  0.6793 -0.6749 -1.2481
 3212TIP3    H231052   4.649   2.426  15.243  1.2450  0.0563 -0.1555
 3213TIP3   OH231053   0.467   0.608  16.985 -0.1265  0.0020 -0.6078
 3213TIP3    H131054   0.550   0.655  16.991  1.8017 -3.2189  1.7151
 3213TIP3    H231055   0.485   0.536  16.925 -0.8616 -1.2459  0.6004
 3214TIP3   OH231056   1.239   1.560   4.242  0.2861 -0.1350  0.2268
 3214TIP3    H131057   1.217   1.490   4.304  1.6048  0.5250  1.4949
 3214TIP3    H231058   1.274   1.630   4.297  0.5958  0.8542 -1.1923
 3215TIP3   OH231059   1.748   4.229  11.326 -0.0120 -0.5984 -0.4655
 3215TIP3    H131060   1.688   4.295  11.360  0.5344  0.5706 -1.6896
 3215TIP3    H231061   1.833   4.273  11.321  0.7695 -1.9398  0.3488
 3216TIP3   OH231062   0.924   3.479  12.269 -0.6912 -0.3648  0.4047
 3216TIP3    H131063   0.918   3.566  12.230  0.4015 -0.1504  0.6859
 3216TIP3    H231064   0.880   3.487  12.354 -0.4094 -0.0332  0.5191
 3217TIP3   OH231065   2.441   1.469   3.856  0.6467  0.3030  0.1080
 3217TIP3    H131066   2.501   1.405   3.895 -0.2457 -0.2150  0.6716
 3217TIP3    H231067   2.450   1.456   3.762 -0.0645 -1.2120  0.2145
 3218TIP3   OH231068   4.100   2.823   3.737  0.6686  0.5418  0.0491
 3218TIP3    H131069   4.100   2.902   3.684 -0.6685  2.4398  2.6523
 3218TIP3    H231070   4.018   2.778   3.714  0.1509  1.2922  0.3868
 3219TIP3   OH231071   1.647   4.754  15.626  0.2119  0.4706  0.0772
 3219TIP3    H131072   1.671   4.810  15.700 -1.2589 -0.2793  1.1774
 3219TIP3    H231073   1.688   4.670  15.645  0.1234  0.3732 -0.1599
 3220TIP3   OH231074   6.187   0.409   0.211  0.1047 -0.1747 -0.0692
 3220TIP3    H131075   6.107   0.443   0.172  0.4011  0.5224 -0.0850
 3220TIP3    H231076   6.178   0.314   0.206 -1.3027 -0.1445  1.0908
 3221TIP3   OH231077   0.128   3.196   3.964 -0.1010 -0.0223 -0.2802
 3221TIP3    H131078   0.204   3.199   4.022 -1.1994 -0.6622  1.2490
 3221TIP3    H231079   0.099   3.287   3.957  0.8009  0.2375 -0.9237
 3222TIP3   OH231080   0.453   0.943  11.305 -0.1579 -0.2876 -0.0527
 3222TIP3    H131081   0.420   0.995  11.231 -0.1628 -1.7789 -1.1479
 3222TIP3    H231082   0.420   0.854  11.288 -1.5343 -0.3719  2.6227
 3223TIP3   OH231083   0.755   5.542  15.239  0.5077 -0.3740  0.1190
 3223TIP3    H131084   0.724   5.619  15.191  0.2463 -0.4871  0.1067
 3223TIP3    H231085   0.828   5.575  15.291 -1.3313  0.5699  2.2813
 3224TIP3   OH231086   2.822   2.410   4.246  0.4848 -0.1907  0.1964
 3224TIP3    H131087   2.781   2.486   4.205  1.7066  0.2645 -0.2358
 3224TIP3    H231088   2.773   2.397   4.327  0.2817  1.0739  0.2900
 3225TIP3   OH231089   6.409   4.722   0.547  0.0788  0.1630 -0.1092
 3225TIP3    H131090   6.438   4.645   0.596 -2.1270  0.0466  1.1169
 3225TIP3    H231091   6.315   4.709   0.535 -0.0919  2.0192 -1.0971
 3226TIP3   OH231092   2.633   2.842   0.231  0.8523  0.2023  0.4111
 3226TIP3    H131093   2.703   2.837   0.296 -1.3059  2.6106  3.1806
 3226TIP3    H231094   2.654   2.919   0.179  1.2891 -0.2792 -0.1379
 3227TIP3   OH231095   3.245   1.930  12.715 -0.2961 -0.6596  0.6423
 3227TIP3    H131096   3.247   2.008  12.658 -1.0299 -0.7457  0.4893
 3227TIP3    H231097   3.239   1.965  12.804 -0.2036 -0.5399  0.6024
 3228TIP3   OH231098   0.762   5.578  10.469  0.1788 -0.0751  0.0840
 3228TIP3    H131099   0.668   5.567  10.488  0.1186 -1.1219 -0.7470
 3228TIP3    H231100   0.777   5.672  10.479 -1.0766  0.1815 -0.2617
 3229TIP3   OH231101   1.060   2.226   0.511 -0.4698 -0.0633  0.2048
 3229TIP3    H131102   1.052   2.317   0.537 -0.9349  0.0064 -0.1797
 3229TIP3    H231103   1.014   2.220   0.427  0.5639 -0.3908 -0.3685
 3230TIP3   OH231104   3.431   0.067   0.598 -0.1280  0.3034 -0.4163
 3230TIP3    H131105   3.395   0.074   0.686 -0.4357 -0.0809 -0.5091
 3230TIP3    H231106   3.358   0.035   0.545  0.2045  0.0210 -0.7088
 3231TIP3   OH231107   6.572   0.624   6.160 -0.5400 -0.2084 -0.1321
 3231TIP3    H131108   6.535   0.712   6.158  0.1326  0.3049  3.2851
 3231TIP3    H231109   6.659   0.635   6.198  0.6009 -2.1302 -1.9444
 3232TIP3   OH231110   6.604   3.095   0.573  0.2378 -0.0287  0.0689
 3232TIP3    H131111   6.642   3.183   0.567  2.5759 -0.8970  1.0348
 3232TIP3    H231112   6.639   3.048   0.498 -2.8313  0.3745 -1.8076
 3233TIP3   OH231113   3.872   0.186  13.280 -0.8112 -0.0507 -0.2121
 3233TIP3    H131114   3.831   0.170  13.195 -1.4568  0.2338  0.0381
 3233TIP3    H231115   3.960   0.216  13.259 -0.2893 -1.8029 -0.7415
 3234TIP3   OH231116   2.390   2.373   1.037  0.0154 -0.3454  0.1466
 3234TIP3    H131117   2.384   2.467   1.051 -2.1948 -0.2046 -1.2064
 3234TIP3    H231118   2.300   2.342   1.044  0.4846 -2.1066 -0.9362
 3235TIP3   OH231119   1.182   0.070  15.824  0.2593  0.5363  0.5833
 3235TIP3    H131120   1.223   0.147  15.863  0.1773  0.0323  1.7138
 3235TIP3    H231121   1.254   0.019  15.788  0.2345  1.5709 -1.0278
 3236TIP3   OH231122   5.178   4.425  12.357  0.4537 -0.0221 -0.5376
 3236TIP3    H131123   5.148   4.353  12.411  2.0067  0.1184  0.5914
 3236TIP3    H231124   5.126   4.500  12.386 -0.3321 -0.4263 -0.8776
 3237TIP3   OH231125   4.537   6.425  15.094 -0.0169 -0.0303 -0.6569
 3237TIP3    H131126   4.629   6.407  15.115  0.0194 -0.6743 -1.3562
 3237TIP3    H231127   4.528   6.399  15.003 -1.2505 -1.3177 -0.2003
 3238TIP3   OH231128   4.808   6.180   4.466  0.5798 -1.0662 -0.5267
 3238TIP3    H131129   4.741   6.247   4.476  0.5513 -1.0963 -0.5178
 3238TIP3    H231130   4.887   6.220   4.504  0.9053 -0.5011 -1.7338
 3239TIP3   OH231131   5.560   2.918   3.824  0.1390 -0.4548  0.3243
 3239TIP3    H131132   5.556   2.960   3.738 -1.5023 -0.0737  0.5486
 3239TIP3    H231133   5.597   2.985   3.882 -0.1130 -0.1938  0.1866
 3240TIP3   OH231134   1.372   1.899   1.240  0.3924 -0.5211  0.1062
 3240TIP3    H131135   1.297   1.954   1.263  1.8397  0.6787  2.3724
 3240TIP3    H231136   1.375   1.833   1.309  0.8125 -1.2118 -0.5597
 3241TIP3   OH231137   6.672   3.402  14.714 -0.2487  0.0149 -0.2447
 3241TIP3    H131138   6.732   3.471  14.745  0.0418 -0.6062  0.6045
 3241TIP3    H231139   6.694   3.325  14.766 -0.8556 -0.6177 -0.8939
 3242TIP3   OH231140   2.571   3.479   1.690 -0.0268  0.1633  0.2913
 3242TIP3    H131141   2.578   3.437   1.775 -2.3231 -0.9264  0.0194
 3242TIP3    H231142   2.492   3.441   1.651  0.6856  0.9892 -2.1242
 3243TIP3   OH231143   3.713   4.661   0.348  0.1577 -0.3271 -0.2824
 3243TIP3    H131144   3.753   4.626   0.269  1.5530  2.8361 -1.1579
 3243TIP3    H231145   3.627   4.692   0.319  0.5474  0.5544 -0.5394
 3244TIP3   OH231146   4.829   1.727   3.830 -0.7745 -0.7840 -0.6966
 3244TIP3    H131147   4.864   1.767   3.750 -2.0982  0.4691 -0.6961
 3244TIP3    H231148   4.789   1.645   3.800  0.6422 -1.4230 -0.9400
 3245TIP3   OH231149   2.743   3.982  13.166  0.1933 -0.0056  0.1602
 3245TIP3    H131150   2.814   4.000  13.105 -0.7678  0.0592 -0.9991
 3245TIP3    H231151   2.709   4.069  13.189 -0.5796 -0.0699 -0.6549
 3246TIP3   OH231152   6.357   5.237   5.281 -0.2643 -0.2655  0.1912
 3246TIP3    H131153   6.388   5.169   5.221  0.4394  0.3887 -0.1940
 3246TIP3    H231154   6.372   5.319   5.235  0.4454  0.2599  1.3159
 3247TIP3   OH231155   2.839   0.305  14.242  0.1128  0.0061 -0.4144
 3247TIP3    H131156   2.747   0.329  14.251 -0.1985 -1.5578  1.1257
 3247TIP3    H231157   2.886   0.377  14.285 -0.5384 -0.2156  0.6977
 3248TIP3   OH231158   4.589   1.274   5.054 -0.3979  0.5281 -0.6256
 3248TIP3    H131159   4.603   1.273   4.959  0.3177 -0.1502 -0.5170
 3248TIP3    H231160   4.495   1.289   5.063 -0.2542  2.2421 -1.4042
 3249TIP3   OH231161   6.112   2.725  16.339  0.5986  0.2392  0.3477
 3249TIP3    H131162   6.168   2.647  16.340  1.2328  0.6651 -0.7395
 3249TIP3    H231163   6.079   2.730  16.249 -0.2758  0.6414  0.6841
 3250TIP3   OH231164   5.116   3.014   5.218  0.5520  0.4043  0.9322
 3250TIP3    H131165   5.110   3.062   5.135  1.1545  2.1339  1.8232
 3250TIP3    H231166   5.025   2.999   5.243  0.2721  2.2635  1.2143
 3251TIP3   OH231167   2.766   3.588  10.618  0.1077  0.0691  0.3061
 3251TIP3    H131168   2.727   3.526  10.680 -1.1855  0.3016 -0.2457
 3251TIP3    H231169   2.700   3.597  10.549  1.4616 -0.0816 -1.0496
 3252TIP3   OH231170   2.392   2.684  11.084 -0.3697 -0.4221 -0.1775
 3252TIP3    H131171   2.361   2.594  11.073 -1.0804 -0.1776 -0.1957
 3252TIP3    H231172   2.351   2.733  11.013 -4.8724  1.1560  3.0674
 3253TIP3   OH231173   3.572   5.827   4.663  0.8212 -0.3566  0.8610
 3253TIP3    H131174   3.509   5.841   4.592  1.0461  0.0929  0.7500
 3253TIP3    H231175   3.655   5.810   4.619  1.0515  0.3440  1.0193
 3254TIP3   OH231176   1.809   2.116  12.551 -0.3352 -0.5093  0.2288
 3254TIP3    H131177   1.823   2.202  12.589 -0.5439 -0.4759  0.2274
 3254TIP3    H231178   1.828   2.127  12.458  1.4228 -0.8716  0.5030
 3255TIP3   OH231179   6.400   5.724   0.846 -0.0753  0.5030  0.2122
 3255TIP3    H131180   6.357   5.810   0.845 -0.6778  0.2023  0.1009
 3255TIP3    H231181   6.357   5.677   0.917  0.4230  0.3718  0.4329
 3256TIP3   OH231182   2.071   0.482   4.042  0.1463 -0.8088  0.2879
 3256TIP3    H131183   2.113   0.480   4.128  0.7061 -0.6901  0.0190
 3256TIP3    H231184   2.008   0.555   4.048  1.0440 -0.0068  0.2060
 3257TIP3   OH231185   2.719   2.546   6.004  0.4460 -0.3940 -0.0829
 3257TIP3    H131186   2.768   2.628   6.000  0.4522 -0.4462 -1.4959
 3257TIP3    H231187   2.666   2.554   6.084  1.8747  0.1501  0.8561
 3258TIP3   OH231188   0.048   3.080  15.398 -0.0500 -0.1095  0.6305
 3258TIP3    H131189  -0.022   3.081  15.463 -0.6580 -0.1102 -0.0155
 3258TIP3    H231190   0.122   3.121  15.443 -0.5933  0.3013  1.1742
 3259TIP3   OH231191   2.352   3.653  11.922 -0.0526  0.9637  0.0121
 3259TIP3    H131192   2.427   3.615  11.875  0.3209  0.2302  1.1477
 3259TIP3    H231193   2.390   3.685  12.004 -0.9727  0.6940  0.5491
 3260TIP3   OH231194   0.104   0.876  17.310  0.6288  0.0639 -0.2297
 3260TIP3    H131195   0.108   0.780  17.316  0.8148  0.0033 -1.2924
 3260TIP3    H231196   0.133   0.896  17.222  1.0724  1.1457  0.1504
 3261TIP3   OH231197   5.111   3.412  12.549 -0.0424  0.8034 -0.0984
 3261TIP3    H131198   5.109   3.493  12.498 -2.7091  1.5392  1.0166
 3261TIP3    H231199   5.130   3.440  12.638 -0.7580  0.1810  0.2586
 3262TIP3   OH231200   0.631   4.503   5.924 -0.1186  0.7114  0.3549
 3262TIP3    H131201   0.598   4.545   6.003 -2.6811 -1.3551  0.5389
 3262TIP3    H231202   0.575   4.535   5.853 -0.0015  0.0967 -0.0326
 3263TIP3   OH231203   6.428   2.947   3.216  0.2335 -0.3507 -0.3515
 3263TIP3    H131204   6.504   2.970   3.270 -0.1130  0.9199 -0.3730
 3263TIP3    H231205   6.462   2.942   3.127  0.2508  0.5482 -0.4070
 3264TIP3   OH231206   4.946   0.617  15.805 -0.4633  0.3369  0.0220
 3264TIP3    H131207   4.989   0.700  15.786 -0.1651  0.5546  1.5713
 3264TIP3    H231208   4.892   0.634  15.882 -0.6846 -0.8239  0.1502
 3265TIP3   OH231209   0.788   2.050  12.685  0.0607 -0.3531 -0.5234
 3265TIP3    H131210   0.863   2.077  12.632 -1.4232  1.4914 -1.8166
 3265TIP3    H231211   0.808   2.082  12.773  0.1034  1.6086 -1.2024
 3266TIP3   OH231212   2.867   5.982   0.279 -0.1817  0.5372 -0.0926
 3266TIP3    H131213   2.925   5.916   0.316  1.1756  0.2349 -2.6034
 3266TIP3    H231214   2.873   6.056   0.340  1.1865 -0.2690  0.7953
 3267TIP3   OH231215   5.239   0.834   2.207 -0.0922  0.5117  0.5413
 3267TIP3    H131216   5.205   0.753   2.169  0.0944  0.4759  0.4499
 3267TIP3    H231217   5.334   0.826   2.199 -0.1148  1.7226 -1.5246
 3268TIP3   OH231218   4.423   6.343   2.185  0.1347 -0.5156  0.5357
 3268TIP3    H131219   4.335   6.350   2.222 -0.3227 -2.8248  0.0430
 3268TIP3    H231220   4.418   6.391   2.102 -0.3651  0.2066  0.9814
 3269TIP3   OH231221   0.023   6.137   1.469 -0.2195 -0.0467  0.2260
 3269TIP3    H131222   0.067   6.077   1.529 -0.0377  0.0860  0.2286
 3269TIP3    H231223  -0.057   6.092   1.443 -0.6069  0.1627  1.0487
 3270TIP3   OH231224   3.575   2.514  10.953  0.2625  0.5624 -0.0825
 3270TIP3    H131225   3.632   2.466  11.013  1.5481  2.2558  0.1488
 3270TIP3    H231226   3.635   2.552  10.888 -0.5655  2.4383  0.1785
 3271TIP3   OH231227   6.489   3.885   4.430 -0.0189 -0.1263 -0.1188
 3271TIP3    H131228   6.453   3.966   4.393  1.2374  0.2855 -0.4910
 3271TIP3    H231229   6.501   3.904   4.523 -2.7055 -0.9933  0.5153
 3272TIP3   OH231230   3.719   4.676  16.270 -0.4129 -0.2430  0.2042
 3272TIP3    H131231   3.669   4.629  16.337  1.4248  0.3054  2.0685
 3272TIP3    H231232   3.695   4.768  16.283 -0.2219 -0.1537 -0.0654
 3273TIP3   OH231233   3.660   4.269  14.507 -0.3783 -0.1006 -0.2137
 3273TIP3    H131234   3.694   4.318  14.432 -0.2968  0.2633  0.0594
 3273TIP3    H231235   3.566   4.258  14.488 -0.1585 -0.9412 -0.8735
 3274TIP3   OH231236   0.338   1.560   4.983 -0.0542 -0.0479  0.4532
 3274TIP3    H131237   0.263   1.603   4.942 -0.7357  0.1739  1.8653
 3274TIP3    H231238   0.398   1.541   4.911 -1.9236 -1.1957 -0.8631
 3275TIP3   OH231239   3.285   4.567   1.934  0.6404  0.2336 -0.1591
 3275TIP3    H131240   3.193   4.545   1.918  1.2956 -1.7190 -1.6635
 3275TIP3    H231241   3.312   4.614   1.855  1.5260 -1.3596 -0.8434
 3276TIP3   OH231242   3.865   4.840   2.039  0.6743 -0.1706 -0.1249
 3276TIP3    H131243   3.864   4.880   2.126  0.5984  1.7958 -0.9683
 3276TIP3    H231244   3.781   4.864   2.001  0.2214 -1.9867 -0.3724
 3277TIP3   OH231245   1.075   0.391  14.738 -0.0881  0.8139 -0.1050
 3277TIP3    H131246   1.024   0.440  14.674  2.1939  2.3155 -0.8948
 3277TIP3    H231247   1.067   0.442  14.819 -0.6766  0.4745  0.0514
 3278TIP3   OH231248   4.241   1.794   5.236  0.6750  0.5557 -0.3762
 3278TIP3    H131249   4.179   1.839   5.179  0.1799  0.8896  0.3995
 3278TIP3    H231250   4.191   1.719   5.271  1.0040  0.2943 -0.4645
 3279TIP3   OH231251   6.108   4.632   0.517 -0.1782  0.0849 -0.3237
 3279TIP3    H131252   6.033   4.649   0.574 -1.2104 -2.8662 -0.6067
 3279TIP3    H231253   6.106   4.537   0.503  0.8926  0.4315 -4.0312
 3280TIP3   OH231254   1.983   2.037   1.635 -0.7321 -0.1264  0.9675
 3280TIP3    H131255   2.062   2.055   1.685 -0.2330  1.0287 -0.1836
 3280TIP3    H231256   2.009   1.973   1.569 -0.0266  2.0710 -1.0336
 3281TIP3   OH231257   1.945   5.221   2.288 -0.2136 -0.2053  0.3680
 3281TIP3    H131258   2.004   5.180   2.350 -0.3449  4.0962  3.7844
 3281TIP3    H231259   2.003   5.265   2.225  0.0021 -1.3927 -0.2850
 3282TIP3   OH231260   4.912   0.823  11.644  0.2328 -0.1483  0.0176
 3282TIP3    H131261   4.889   0.905  11.600 -0.0301 -0.8230 -1.1625
 3282TIP3    H231262   4.973   0.780  11.584  0.2315 -0.8937  0.5332
 3283TIP3   OH231263   4.976   6.115   5.319 -0.1812 -0.8132 -0.2029
 3283TIP3    H131264   4.909   6.165   5.367  1.8794 -0.1563  2.2598
 3283TIP3    H231265   5.036   6.182   5.285  2.4558 -1.3016  2.8785
 3284TIP3   OH231266   0.020   1.573  11.378 -0.2492 -0.4662  0.4660
 3284TIP3    H131267  -0.019   1.580  11.465  1.7451 -1.8687  1.5501
 3284TIP3    H231268   0.110   1.601  11.390 -0.3987  1.2130 -1.6373
 3285TIP3   OH231269   2.565   0.356  14.209 -0.5379 -0.4439  0.1177
 3285TIP3    H131270   2.540   0.314  14.127  0.4551 -2.8700  0.9596
 3285TIP3    H231271   2.493   0.336  14.269  0.1380 -1.3548  0.6428
 3286TIP3   OH231272   1.149   3.339  10.521 -0.3071  0.0324 -0.1268
 3286TIP3    H131273   1.124   3.408  10.582 -0.8776  0.6160 -0.9891
 3286TIP3    H231274   1.068   3.320  10.472  0.2098 -0.1778 -0.9216
 3287TIP3   OH231275   4.402   0.053   4.507  0.0463 -0.1577  0.0263
 3287TIP3    H131276   4.455   0.130   4.485  0.6192 -0.5267  0.1072
 3287TIP3    H231277   4.367   0.023   4.423  1.5306 -1.0526 -0.3006
 3288TIP3   OH231278   0.078   0.628  11.344  0.1609  0.0125  0.0069
 3288TIP3    H131279   0.133   0.583  11.280  0.2842  1.3682 -0.8605
 3288TIP3    H231280   0.120   0.609  11.428  1.0351 -0.2766 -0.4858
 3289TIP3   OH231281   2.635   2.976  11.022  0.5220  0.4801 -0.5652
 3289TIP3    H131282   2.565   2.958  10.959 -0.4987  0.2332  0.5979
 3289TIP3    H231283   2.691   2.899  11.019  0.1556  0.2205 -0.7440
 3290TIP3   OH231284   5.263   6.158  13.214  0.1660 -0.0722 -0.1232
 3290TIP3    H131285   5.187   6.141  13.270  1.1440  1.1906  1.6898
 3290TIP3    H231286   5.250   6.248  13.183  0.3501 -0.2676 -0.7869
 3291TIP3   OH231287   2.121   3.026  14.025  0.0482  0.1366  0.1118
 3291TIP3    H131288   2.094   2.997  13.938 -1.6238 -2.0515  1.2536
 3291TIP3    H231289   2.157   3.114  14.011 -0.0043 -0.2103 -2.7747
 3292TIP3   OH231290   6.086   5.069  14.035  0.7140 -0.0245  0.1136
 3292TIP3    H131291   6.146   5.060  13.961  1.1579  0.5576  0.4030
 3292TIP3    H231292   6.077   5.163  14.047 -1.1648 -0.0522 -0.6548
 3293TIP3   OH231293   0.567   5.260  10.561 -0.0801  0.1877  0.3064
 3293TIP3    H131294   0.661   5.246  10.571 -0.0938  0.3525  0.6706
 3293TIP3    H231295   0.534   5.265  10.651 -0.3853  0.4759  0.1782
 3294TIP3   OH231296   3.581   5.479   0.899 -0.1023 -0.6574  0.2477
 3294TIP3    H131297   3.601   5.465   0.991 -0.3128  0.3841  0.4612
 3294TIP3    H231298   3.569   5.573   0.891  2.8445 -0.2956 -1.3970
 3295TIP3   OH231299   0.432   5.465  12.854 -0.1261  0.7301  0.1621
 3295TIP3    H131300   0.339   5.441  12.857 -0.3054  1.1268 -1.3921
 3295TIP3    H231301   0.477   5.391  12.895 -0.9751 -0.4326 -0.9430
 3296TIP3   OH231302   6.397   2.606   1.047 -0.1436  0.2484 -0.4146
 3296TIP3    H131303   6.308   2.617   1.013  0.6106  1.3526 -2.1247
 3296TIP3    H231304   6.409   2.679   1.107  0.2675  1.2592 -1.6914
 3297TIP3   OH231305   2.882   6.384  16.254  0.3416  0.3389  0.4789
 3297TIP3    H131306   2.889   6.471  16.216  0.5648  1.0128  2.0003
 3297TIP3    H231307   2.972   6.358  16.274  0.1624  0.4735  1.5333
 3298TIP3   OH231308   5.395   1.284  15.721  0.4672 -0.0717 -0.0562
 3298TIP3    H131309   5.475   1.335  15.704 -0.3665  1.3170  0.0044
 3298TIP3    H231310   5.325   1.349  15.721 -0.2436 -0.5919  3.9321
 3299TIP3   OH231311   3.695   2.041   3.648 -0.0595 -0.6914  0.1782
 3299TIP3    H131312   3.707   1.957   3.693 -1.4843 -1.8670 -1.4669
 3299TIP3    H231313   3.755   2.036   3.573 -2.8817 -2.1193 -2.2094
 3300TIP3   OH231314   3.037   3.037   0.783 -0.0701 -0.2627  0.2452
 3300TIP3    H131315   3.074   2.982   0.713  1.3578  0.4887  0.3844
 3300TIP3    H231316   3.032   3.124   0.745 -3.0099 -0.5195 -0.2219
 3301TIP3   OH231317   0.702   3.955   3.946 -0.1658  0.3421  0.4787
 3301TIP3    H131318   0.713   3.861   3.955 -1.2210  0.1724  0.1162
 3301TIP3    H231319   0.617   3.973   3.986  0.2368  1.2110  0.9692
 3302TIP3   OH231320   4.120   0.120   4.321  0.6383  0.2530  0.6442
 3302TIP3    H131321   4.095   0.030   4.343 -0.7793 -0.0313 -1.7930
 3302TIP3    H231322   4.167   0.112   4.238  0.1146  1.7913  0.1668
 3303TIP3   OH231323   3.579   1.907   0.199 -0.0582  0.1929 -0.2057
 3303TIP3    H131324   3.554   1.892   0.108 -0.4916 -0.7739  0.0585
 3303TIP3    H231325   3.565   2.001   0.213  0.5624  0.4541 -1.2899
 3304TIP3   OH231326   4.469   4.475   1.407  0.0168 -0.4807  0.3334
 3304TIP3    H131327   4.523   4.454   1.483  2.5447  2.0393 -0.5796
 3304TIP3    H231328   4.522   4.446   1.332 -1.1449 -0.3776 -0.5444
 3305TIP3   OH231329   4.750   6.754   2.106 -1.1620  0.4835 -0.2940
 3305TIP3    H131330   4.678   6.776   2.165 -0.6473  1.9237 -0.1543
 3305TIP3    H231331   4.828   6.758   2.161 -1.0184 -1.9841 -0.2336
 3306TIP3   OH231332   6.417   0.021   3.349  0.2358 -0.1467 -0.5330
 3306TIP3    H131333   6.367   0.074   3.410  2.2757  3.7355 -1.9219
 3306TIP3    H231334   6.491  -0.012   3.401 -0.4615 -0.7404  0.0944
 3307TIP3   OH231335   5.258   1.937   2.317 -0.5990 -0.3343 -0.4756
 3307TIP3    H131336   5.258   1.882   2.396 -1.8151 -0.9478 -0.8726
 3307TIP3    H231337   5.349   1.935   2.287 -0.2443 -0.5961  0.5629
 3308TIP3   OH231338   4.642   0.002  10.793  0.4244  0.2227 -0.0210
 3308TIP3    H131339   4.695  -0.077  10.808  0.0015 -0.2248 -0.8288
 3308TIP3    H231340   4.555  -0.031  10.770  0.9994  0.7591 -3.5480
 3309TIP3   OH231341   6.656   6.486  14.390 -0.5234 -0.2874  0.6181
 3309TIP3    H131342   6.638   6.492  14.483  0.8356  0.2451  0.8781
 3309TIP3    H231343   6.693   6.399  14.378 -0.1854 -0.1547  0.6824
 3310TIP3   OH231344   5.293   1.441  13.630 -0.0266 -0.2446 -0.5740
 3310TIP3    H131345   5.220   1.457  13.569  0.3298 -0.7610 -1.1451
 3310TIP3    H231346   5.335   1.527  13.639 -0.8240  0.1093 -0.0681
 3311TIP3   OH231347   3.548   4.590   3.989 -0.1225  0.0819 -0.3681
 3311TIP3    H131348   3.615   4.586   3.921 -0.8666  3.9020 -1.6196
 3311TIP3    H231349   3.469   4.556   3.947 -0.2809  1.2311 -1.0560
 3312TIP3   OH231350   4.970   4.737   1.201  0.0345 -0.7979 -0.0220
 3312TIP3    H131351   4.951   4.770   1.289 -0.2286 -2.0293  0.4044
 3312TIP3    H231352   4.887   4.699   1.171  0.6048 -2.0700 -0.0326
 3313TIP3   OH231353   2.098   4.988   1.372  0.2542 -0.6361 -0.1512
 3313TIP3    H131354   2.139   4.909   1.407  0.8526 -0.9087 -1.3888
 3313TIP3    H231355   2.166   5.027   1.316 -0.0772  0.6851  0.3250
 3314TIP3   OH231356   6.000   1.068   2.899 -0.3479 -0.5644  0.3493
 3314TIP3    H131357   5.941   0.993   2.902  0.9835 -1.7013 -0.4047
 3314TIP3    H231358   5.982   1.116   2.980  0.0739 -2.7554  1.8459
 3315TIP3   OH231359   2.745   5.239  15.564  0.4137 -0.1022  0.5435
 3315TIP3    H131360   2.748   5.292  15.643 -0.4065  0.4158  0.2481
 3315TIP3    H231361   2.832   5.200  15.557  2.5694  4.3385 -1.3613
 3316TIP3   OH231362   2.688   0.432   5.403  0.4884 -0.2117  0.4601
 3316TIP3    H131363   2.660   0.366   5.466  0.0885  0.4316  0.9535
 3316TIP3    H231364   2.646   0.406   5.321  0.8876 -0.9574  0.4787
 3317TIP3   OH231365   5.854   3.304  11.861  0.0653  0.2597 -0.2500
 3317TIP3    H131366   5.860   3.211  11.839  0.3588 -0.1117  1.2790
 3317TIP3    H231367   5.793   3.308  11.934 -0.0680  1.2972 -0.3985
 3318TIP3   OH231368   0.154   4.309  11.195  0.0127 -0.1440 -0.3743
 3318TIP3    H131369   0.208   4.317  11.274 -1.2041 -1.5989  0.6611
 3318TIP3    H231370   0.217   4.312  11.123  1.5446 -1.8945  0.7732
 3319TIP3   OH231371   5.205   2.737   5.414  0.4102 -0.7257 -0.1745
 3319TIP3    H131372   5.248   2.655   5.392  0.8603 -0.3047 -0.9028
 3319TIP3    H231373   5.125   2.737   5.361  0.9726 -0.1946 -1.0646
 3320TIP3   OH231374   2.592   1.032  15.553 -0.9877  0.1955 -0.7797
 3320TIP3    H131375   2.668   1.048  15.608 -0.5596 -1.7277 -0.7407
 3320TIP3    H231376   2.517   1.059  15.606 -0.4307  0.7722 -0.2696
 3321TIP3   OH231377   4.407   3.129  11.191 -0.0514 -0.5243 -0.1412
 3321TIP3    H131378   4.493   3.172  11.192 -1.1573  1.8891 -0.0117
 3321TIP3    H231379   4.405   3.080  11.109  0.2626  2.2004 -1.9368
 3322TIP3   OH231380   5.593   0.327  12.982 -0.3472 -0.1876  0.1153
 3322TIP3    H131381   5.569   0.238  12.957 -1.1099  0.3085 -1.0124
 3322TIP3    H231382   5.681   0.340  12.945 -0.3908 -0.3418 -0.0387
 3323TIP3   OH231383   5.272   4.255  15.853 -0.0436  0.1367 -0.4380
 3323TIP3    H131384   5.190   4.299  15.832 -0.4738 -0.3428  0.2136
 3323TIP3    H231385   5.266   4.170  15.808  0.6271  0.5769 -1.3912
 3324TIP3   OH231386   4.634   4.266   4.957 -0.4085 -0.7681  0.3661
 3324TIP3    H131387   4.662   4.300   5.042  1.8348 -0.2092 -0.5220
 3324TIP3    H231388   4.595   4.181   4.977  0.2727 -0.7496  1.9177
 3325TIP3   OH231389   1.914   3.232  16.859 -0.1090 -0.3901 -0.2220
 3325TIP3    H131390   1.939   3.248  16.950  0.0377 -0.6400 -0.2164
 3325TIP3    H231391   1.881   3.316  16.828 -1.8332 -0.7255  0.5792
 3326TIP3   OH231392   2.741   5.754  11.143  0.1831  1.1449  0.2296
 3326TIP3    H131393   2.749   5.731  11.050  0.2909  1.3155  0.1966
 3326TIP3    H231394   2.824   5.796  11.165  0.4022  0.5565  0.5625
 3327TIP3   OH231395   3.715   6.177  14.034  0.5828 -0.0182  0.0840
 3327TIP3    H131396   3.751   6.152  13.948 -1.0803 -2.1944 -0.0730
 3327TIP3    H231397   3.765   6.125  14.097  0.1326 -0.3442  0.1792
 3328TIP3   OH231398   3.401   3.751  16.750 -0.0719  0.3919 -0.2150
 3328TIP3    H131399   3.428   3.697  16.675 -1.3678 -1.0524  0.3072
 3328TIP3    H231400   3.459   3.725  16.821  1.1407  1.7443 -0.6601
 3329TIP3   OH231401   6.032   3.996  11.627  0.6603  0.0777 -0.6178
 3329TIP3    H131402   6.121   3.992  11.663 -0.0929 -1.6604  1.2552
 3329TIP3    H231403   6.045   4.013  11.534  2.9670 -0.4938 -0.4699
 3330TIP3   OH231404   5.411   5.635   1.557  0.1009 -0.3261  0.0650
 3330TIP3    H131405   5.400   5.603   1.467 -1.8564  0.7830 -0.1616
 3330TIP3    H231406   5.409   5.731   1.548 -1.7325 -0.1818  1.3854
 3331TIP3   OH231407   5.875   3.930   3.837  0.1483  0.3606 -0.0891
 3331TIP3    H131408   5.864   4.022   3.817  0.8116  0.2621 -0.9681
 3331TIP3    H231409   5.834   3.884   3.764  1.6323 -0.0112 -0.7328
 3332TIP3   OH231410   0.165   3.558   2.154  0.2787  0.3773  0.5358
 3332TIP3    H131411   0.151   3.646   2.120 -0.6194  0.4578  1.0702
 3332TIP3    H231412   0.077   3.527   2.177  0.5643 -0.7162  0.2126
 3333TIP3   OH231413   6.465   3.846  14.991  0.2498  0.0419  0.2870
 3333TIP3    H131414   6.434   3.823  15.078  1.0531  1.7053  1.0684
 3333TIP3    H231415   6.473   3.762  14.945 -2.8091 -0.6695  0.8510
 3334TIP3   OH231416   5.945   4.615  15.769  0.0142  0.2223  0.3877
 3334TIP3    H131417   6.026   4.581  15.807  0.1010  0.7013  0.6371
 3334TIP3    H231418   5.941   4.706  15.798 -0.5995  0.2104  0.3506
 3335TIP3   OH231419   0.246   4.500  12.948  0.0169 -0.3061 -0.0012
 3335TIP3    H131420   0.328   4.495  12.997  0.1273  0.4656 -0.0902
 3335TIP3    H231421   0.273   4.516  12.857 -0.2381  1.7536  0.2348
 3336TIP3   OH231422   4.940   6.570  16.157  0.7065  0.2662 -0.1060
 3336TIP3    H131423   5.027   6.534  16.174  1.3920  1.0391 -1.7428
 3336TIP3    H231424   4.952   6.628  16.081 -0.8524  1.9566  0.8563
 3337TIP3   OH231425   6.097   3.589  13.711 -0.2386 -0.3567  0.1947
 3337TIP3    H131426   6.087   3.665  13.768  0.5433 -0.3303  0.3031
 3337TIP3    H231427   6.180   3.603  13.665 -1.5374  0.3675 -2.0934
 3338TIP3   OH231428   3.577   3.437   0.461  0.1749  0.4535  0.2450
 3338TIP3    H131429   3.576   3.360   0.404 -1.8434  0.7346 -0.1593
 3338TIP3    H231430   3.559   3.511   0.403  1.5232  1.1976  0.7235
 3339TIP3   OH231431   1.715   5.794  13.453 -0.0079  0.1085 -0.0330
 3339TIP3    H131432   1.700   5.734  13.526  4.6092  2.0729  2.9944
 3339TIP3    H231433   1.783   5.752  13.401  2.2455  1.8446  1.3246
 3340TIP3   OH231434   2.166   2.925  10.955  0.2530  0.4567 -0.1347
 3340TIP3    H131435   2.155   2.902  10.862  1.2202  0.7234 -0.3263
 3340TIP3    H231436   2.077   2.932  10.989 -0.1503 -2.3371 -0.3694
 3341TIP3   OH231437   1.590   0.272  15.363  0.2837  0.0261 -0.0201
 3341TIP3    H131438   1.662   0.217  15.394  0.8957  1.1647  0.6574
 3341TIP3    H231439   1.634   0.346  15.322 -0.4775  1.0520  0.9650
 3342TIP3   OH231440   3.958   1.494   5.657  0.2040 -0.3219  0.0229
 3342TIP3    H131441   3.917   1.579   5.643  1.0495  0.0226 -0.4425
 3342TIP3    H231442   3.885   1.435   5.676 -0.5077  0.2418 -0.8886
 3343TIP3   OH231443   3.308   5.194  16.978  0.3581 -0.2393 -0.0779
 3343TIP3    H131444   3.306   5.205  17.073  0.4868  0.9100 -0.1903
 3343TIP3    H231445   3.222   5.223  16.949 -0.2906 -2.1290 -0.2005
 3344TIP3   OH231446   3.392   4.243  14.401 -0.0839 -0.0233  0.3318
 3344TIP3    H131447   3.318   4.182  14.407  1.0717 -1.6064 -0.8141
 3344TIP3    H231448   3.396   4.267  14.308  0.5567  0.4562  0.4758
 3345TIP3   OH231449   4.605   5.745  14.143 -0.0519 -0.0180  0.7794
 3345TIP3    H131450   4.683   5.692  14.126  0.3635  0.2582  1.7283
 3345TIP3    H231451   4.547   5.727  14.069  1.7043  1.2975 -1.0431
 3346TIP3   OH231452   6.001   5.079  12.613  0.2630 -0.0215  0.2183
 3346TIP3    H131453   6.090   5.045  12.604  0.9341  1.8616 -0.8881
 3346TIP3    H231454   5.945   5.008  12.581  1.0735 -2.2814  3.3830
 3347TIP3   OH231455   4.972   5.018  14.541 -0.4377 -0.1647  0.1713
 3347TIP3    H131456   5.066   5.025  14.559 -0.0902 -1.1196 -1.0904
 3347TIP3    H231457   4.933   4.996  14.626  0.5160 -0.0666  0.6505
 3348TIP3   OH231458   3.460   5.685  11.755  0.1112 -0.4752 -0.5181
 3348TIP3    H131459   3.416   5.607  11.722 -0.4197  0.2329 -1.5558
 3348TIP3    H231460   3.526   5.706  11.688  0.7513 -0.4397  0.1063
 3349TIP3   OH231461   4.408   1.367   1.350  0.0037 -0.3497  0.0248
 3349TIP3    H131462   4.459   1.445   1.371  0.6874 -0.9839  0.8100
 3349TIP3    H231463   4.347   1.358   1.423  0.1354 -0.7178  0.0910
 3350TIP3   OH231464   2.180   3.110  17.122  0.1537  0.0970 -0.5318
 3350TIP3    H131465   2.206   3.023  17.153 -0.4628  0.0549 -0.1123
 3350TIP3    H231466   2.085   3.105  17.113 -0.3382  1.5837  2.4178
 3351TIP3   OH231467   2.907   6.389  16.549 -0.8111 -0.5446  0.6067
 3351TIP3    H131468   2.869   6.469  16.584 -0.0615 -0.2860  0.8659
 3351TIP3    H231469   2.883   6.389  16.457  0.0252  0.5233  0.3590
 3352TIP3   OH231470   1.206   1.564  14.029  0.4816 -0.3619 -0.0220
 3352TIP3    H131471   1.259   1.642  14.014  2.2478 -1.6393 -0.6445
 3352TIP3    H231472   1.268   1.491  14.028 -1.4677 -2.2240 -3.1598
 3353TIP3   OH231473   3.102   0.648   2.542  0.7534  0.0895 -0.3732
 3353TIP3    H131474   3.054   0.568   2.563  0.1823  0.2380 -1.0603
 3353TIP3    H231475   3.147   0.627   2.460  1.0703  0.2865 -0.2520
 3354TIP3   OH231476   3.351   2.091  13.250 -0.5433 -0.6066 -0.0217
 3354TIP3    H131477   3.282   2.156  13.238 -0.9498 -1.1950 -0.9113
 3354TIP3    H231478   3.332   2.023  13.186  0.3810 -1.1850  0.3005
 3355TIP3   OH231479   0.781   0.916  11.941  0.0405 -0.1168  0.7338
 3355TIP3    H131480   0.764   0.841  11.884 -0.4097  0.8158 -0.3729
 3355TIP3    H231481   0.701   0.927  11.992 -0.3022  0.2891  0.1116
 3356TIP3   OH231482   4.856   1.273  16.510  0.2390 -0.5352  0.5307
 3356TIP3    H131483   4.815   1.317  16.435 -1.2292  2.3640  2.8457
 3356TIP3    H231484   4.861   1.181  16.483 -1.0869  0.1920 -2.7307
 3357TIP3   OH231485   6.140   3.966  15.486  0.8156 -0.5588 -0.0708
 3357TIP3    H131486   6.091   4.028  15.432  0.7786  0.9278  1.6020
 3357TIP3    H231487   6.231   3.995  15.479  1.3557 -2.4598 -2.0292
 3358TIP3   OH231488   6.468   5.362   2.460 -0.3035 -0.4732 -0.4594
 3358TIP3    H131489   6.552   5.389   2.498 -0.3196  0.3248 -0.9709
 3358TIP3    H231490   6.450   5.278   2.501 -0.8124  0.7678  2.0583
 3359TIP3   OH231491   2.289   1.463   5.276  0.0506 -0.2478 -0.4199
 3359TIP3    H131492   2.279   1.558   5.277  0.6094 -0.1888 -0.4612
 3359TIP3    H231493   2.342   1.445   5.199 -1.1727 -0.7125 -1.1802
 3360TIP3   OH231494   4.501   0.548   3.191 -0.4337  0.1655 -0.1248
 3360TIP3    H131495   4.413   0.511   3.181 -0.3060 -0.2587  0.2763
 3360TIP3    H231496   4.548   0.483   3.243 -0.2045  0.9111  0.6102
 3361TIP3   OH231497   3.849   3.847  15.491 -0.1512 -0.0381  0.4017
 3361TIP3    H131498   3.825   3.910  15.423 -1.9510 -1.1478 -0.0648
 3361TIP3    H231499   3.876   3.900  15.565  1.0501  1.2208 -0.8809
 3362TIP3   OH231500   1.110   5.833  12.792 -0.3161  0.3364  0.2501
 3362TIP3    H131501   1.025   5.863  12.761 -1.2584 -0.7749  1.6625
 3362TIP3    H231502   1.139   5.901  12.854 -0.9486 -0.0697  1.0045
 3363TIP3   OH231503   0.420   0.069  11.920 -0.0235  0.0089  0.8054
 3363TIP3    H131504   0.509   0.062  11.954 -0.1145  1.8767  1.5091
 3363TIP3    H231505   0.432   0.085  11.826  0.4051  0.8560  0.9982
 3364TIP3   OH231506   3.225   5.251  15.560 -0.1302 -0.1439  0.0528
 3364TIP3    H131507   3.195   5.340  15.543 -2.8273 -1.2317 -1.7460
 3364TIP3    H231508   3.311   5.246  15.519 -0.3763  1.3708 -0.7061
 3365TIP3   OH231509   5.912   0.569   6.144  0.4513  1.0478 -0.0569
 3365TIP3    H131510   5.921   0.531   6.231 -0.7750 -1.0232 -0.7766
 3365TIP3    H231511   5.820   0.593   6.137 -0.3252 -1.9570 -1.9093
 3366TIP3   OH231512   3.912   0.817   2.549  0.3901  0.6849 -0.0513
 3366TIP3    H131513   3.925   0.838   2.457  0.6324  1.2216  0.1017
 3366TIP3    H231514   3.996   0.781   2.577 -0.3802 -1.7192 -0.6224
 3367TIP3   OH231515   0.535   5.898   2.011  0.1618 -1.0068  0.2951
 3367TIP3    H131516   0.581   5.936   2.085 -1.0549  0.2110  0.4561
 3367TIP3    H231517   0.499   5.815   2.045 -1.6444  0.2245  1.5647
 3368TIP3   OH231518   4.722   2.003  14.190  0.0056  0.1411 -0.4980
 3368TIP3    H131519   4.815   1.986  14.204 -0.2362 -1.0497 -0.2103
 3368TIP3    H231520   4.693   1.932  14.133 -1.1787 -0.7713  1.1535
 3369TIP3   OH231521   0.055   1.723  11.699 -0.4389 -0.0831  0.4127
 3369TIP3    H131522   0.003   1.649  11.728 -1.0650  0.8911  1.8982
 3369TIP3    H231523  -0.002   1.772  11.640 -0.4908 -0.0725  0.4723
 3370TIP3   OH231524   0.495   5.199  12.637 -0.2745 -0.9176 -0.0851
 3370TIP3    H131525   0.420   5.256  12.622 -1.1148 -1.4590  1.7292
 3370TIP3    H231526   0.467   5.114  12.603 -0.4981 -1.1122  0.5655
 3371TIP3   OH231527   2.317   3.658  14.992 -0.5175  0.4140 -0.5481
 3371TIP3    H131528   2.362   3.660  14.908  2.7932  4.7876  0.9398
 3371TIP3    H231529   2.284   3.747  15.004 -0.2137  0.2070  2.9751
 3372TIP3   OH231530   0.364   5.843  14.110  0.1006 -0.5315 -0.7495
 3372TIP3    H131531   0.455   5.851  14.139  0.7761  1.5804 -3.1331
 3372TIP3    H231532   0.312   5.860  14.189  1.7978  2.0306 -0.0679
 3373TIP3   OH231533   4.089   3.952   2.802  0.0398 -0.2751 -0.9132
 3373TIP3    H131534   4.034   3.888   2.848  1.3524 -0.5335  0.3579
 3373TIP3    H231535   4.031   4.027   2.786 -0.6081 -0.3842  0.7487
 3374TIP3   OH231536   2.830   0.145  16.256 -0.7568 -0.6683  0.1580
 3374TIP3    H131537   2.924   0.160  16.243 -0.6833 -0.8818  0.4415
 3374TIP3    H231538   2.816   0.158  16.350 -1.2968  0.9455 -0.1084
 3375TIP3   OH231539   4.249   4.201   0.686  0.1931 -0.2471  0.1407
 3375TIP3    H131540   4.195   4.215   0.608 -0.0505  0.7578  0.4673
 3375TIP3    H231541   4.319   4.142   0.657  0.1752  0.2147 -0.8747
 3376TIP3   OH231542   3.280   1.087  13.719  0.0517 -0.0299 -0.3270
 3376TIP3    H131543   3.360   1.102  13.769  1.8983 -0.0741 -3.0849
 3376TIP3    H231544   3.310   1.058  13.633 -2.8621  1.4675 -1.9988
 3377TIP3   OH231545   6.101   0.315   0.966  0.1742 -0.5169  0.3826
 3377TIP3    H131546   6.143   0.396   0.996 -0.4111  1.2451 -3.0837
 3377TIP3    H231547   6.155   0.286   0.893 -1.0332 -1.8813 -0.0074
 3378TIP3   OH231548   2.670   6.085  13.535  0.0798 -0.0749  0.2448
 3378TIP3    H131549   2.702   6.124  13.453 -2.0313  0.7307 -0.2717
 3378TIP3    H231550   2.605   6.021  13.507 -0.1883 -0.2682  1.2733
 3379TIP3   OH231551   0.195   3.782  16.848 -0.0044 -0.1315 -0.0986
 3379TIP3    H131552   0.286   3.811  16.854 -0.4919  1.2799  1.0123
 3379TIP3    H231553   0.156   3.841  16.784 -0.1032 -0.9057 -0.7705
 3380TIP3   OH231554   5.133   2.042   5.109  0.0116 -0.0790 -0.5318
 3380TIP3    H131555   5.089   2.117   5.070 -1.2194 -0.8266 -0.6154
 3380TIP3    H231556   5.070   1.971   5.102  1.2271 -1.1814 -0.6356
 3381TIP3   OH231557   5.422   6.082  13.500 -0.2044  0.3379 -0.4830
 3381TIP3    H131558   5.337   6.039  13.486  0.0958 -0.0928 -1.0217
 3381TIP3    H231559   5.457   6.039  13.578 -1.0837  1.4887  0.5911
 3382TIP3   OH231560   4.544   0.503   2.040  0.3383 -0.2305 -0.4704
 3382TIP3    H131561   4.612   0.570   2.043  0.3213 -0.2229 -0.1840
 3382TIP3    H231562   4.554   0.456   2.123 -0.1997 -0.0333 -0.2893
 3383TIP3   OH231563   1.949   4.641  13.854 -0.3636 -0.5841 -0.4817
 3383TIP3    H131564   1.861   4.610  13.831 -0.0057 -1.1671 -1.1385
 3383TIP3    H231565   1.935   4.716  13.912 -1.4078  1.9291 -3.6810
 3384TIP3   OH231566   6.494   4.131  11.942  0.5022  0.2044  0.5088
 3384TIP3    H131567   6.553   4.099  11.874  1.4083  0.6117  1.0936
 3384TIP3    H231568   6.465   4.052  11.988  0.6143  0.0029  0.2374
 3385TIP3   OH231569   4.262   0.260   1.479 -0.0861 -0.4270  0.4932
 3385TIP3    H131570   4.180   0.223   1.447  0.3279 -1.8155  0.9879
 3385TIP3    H231571   4.239   0.348   1.509 -0.6301  0.8328 -3.0592
 3386TIP3   OH231572   0.670   2.969  12.015 -0.0496 -0.1627 -0.1575
 3386TIP3    H131573   0.653   3.059  11.988  0.5680  0.0100  0.0328
 3386TIP3    H231574   0.597   2.919  11.978  0.3731  0.1848 -1.5108
 3387TIP3   OH231575   2.944   0.593  14.158 -0.5400 -0.2594  0.3119
 3387TIP3    H131576   2.988   0.509  14.142 -0.3867 -0.2327  0.5778
 3387TIP3    H231577   2.996   0.633  14.228  0.2607  0.6918 -0.7776
 3388TIP3   OH231578   2.319   4.741  16.603  0.0202 -0.7556 -0.3014
 3388TIP3    H131579   2.312   4.798  16.680 -0.6564 -2.0994  0.6766
 3388TIP3    H231580   2.231   4.743  16.564  0.2722 -0.3416 -0.8566
 3389TIP3   OH231581   1.094   0.036  12.924 -0.6570 -0.0949  0.3166
 3389TIP3    H131582   1.063   0.111  12.974  0.4227  1.7948 -1.6371
 3389TIP3    H231583   1.189   0.041  12.930 -0.4994 -0.0137 -1.4689
 3390TIP3   OH231584   4.720   3.453  14.205 -0.0851  0.1366  0.0649
 3390TIP3    H131585   4.751   3.366  14.182  1.1403 -0.1860  2.6469
 3390TIP3    H231586   4.712   3.498  14.121  2.1977 -1.4820 -1.1237
 3391TIP3   OH231587   5.311   2.726  16.665  0.3384  1.2417 -0.2510
 3391TIP3    H131588   5.405   2.711  16.678  0.7799  3.7525 -0.1086
 3391TIP3    H231589   5.275   2.731  16.753 -0.2285 -0.9962 -0.2971
 3392TIP3   OH231590   1.732   1.054  12.495  0.6738  0.6504 -0.2335
 3392TIP3    H131591   1.759   1.063  12.586 -1.9333 -1.9582  0.9443
 3392TIP3    H231592   1.799   0.997  12.456  2.3271  2.5448 -0.3120
 3393TIP3   OH231593   3.783   0.761  13.244  0.3615  0.0066  0.6040
 3393TIP3    H131594   3.694   0.776  13.274  0.3466 -1.0249  1.1209
 3393TIP3    H231595   3.828   0.721  13.319  1.0472 -0.1823  0.1070
 3394TIP3   OH231596   0.791   1.766   4.552 -0.2259 -0.2533 -0.4917
 3394TIP3    H131597   0.764   1.786   4.641  0.4999  0.1945 -0.3639
 3394TIP3    H231598   0.713   1.731   4.510 -0.5408 -0.5667  0.3510
 3395TIP3   OH231599   5.570   1.328  14.366  0.0948  0.2434 -0.3211
 3395TIP3    H131600   5.547   1.413  14.328 -1.6476  1.0402  2.2509
 3395TIP3    H231601   5.649   1.346  14.418 -0.0112  0.2031 -0.1439
 3396TIP3   OH231602   5.261   3.410   6.342 -0.1297  0.1290 -0.1324
 3396TIP3    H131603   5.254   3.455   6.258  0.2670  1.0735  0.3257
 3396TIP3    H231604   5.344   3.362   6.337 -0.9128 -1.2144 -0.9134
 3397TIP3   OH231605   6.181   0.072   4.332 -0.3647 -0.3773  0.2718
 3397TIP3    H131606   6.190   0.073   4.428 -0.3633  1.0667  0.2711
 3397TIP3    H231607   6.254   0.125   4.301 -1.2423  0.4562 -0.4318
 3398TIP3   OH231608   1.477   1.174   1.706 -0.0287  0.0578 -0.5200
 3398TIP3    H131609   1.459   1.228   1.783 -0.7911 -0.3494 -0.4020
 3398TIP3    H231610   1.571   1.182   1.693  0.0062  0.6878  0.0381
 3399TIP3   OH231611   4.197   2.256   1.025 -0.7354 -0.1703  0.7561
 3399TIP3    H131612   4.204   2.298   0.940  0.9870  0.1292  1.0109
 3399TIP3    H231613   4.116   2.291   1.062 -1.5108 -0.3177 -0.7404
 3400TIP3   OH231614   1.723   2.654  14.435 -0.0300 -1.0307  0.2898
 3400TIP3    H131615   1.692   2.693  14.353  0.4153 -0.7488  0.2546
 3400TIP3    H231616   1.818   2.648  14.424  0.2636  0.8426  1.5734
 3401TIP3   OH231617   1.418   3.032  14.834  0.5457  0.0459 -0.3213
 3401TIP3    H131618   1.367   2.956  14.862 -0.4187  1.4845  2.2218
 3401TIP3    H231619   1.363   3.077  14.771  0.4075 -0.4963 -0.5913
 3402TIP3   OH231620   2.967   5.651  15.230  0.0458 -0.1552  0.1067
 3402TIP3    H131621   2.883   5.607  15.233 -0.4581  0.7682 -0.0344
 3402TIP3    H231622   2.969   5.705  15.309 -0.4528  1.4765 -0.9267
 3403TIP3   OH231623   2.625   0.989   0.923 -1.2339 -0.3580 -0.3158
 3403TIP3    H131624   2.550   0.963   0.975 -2.2727 -1.0534 -2.0691
 3403TIP3    H231625   2.666   1.060   0.973 -1.6781 -1.4948  1.7827
 3404TIP3   OH231626   3.043   2.037   0.476  0.1556  0.0131 -0.7327
 3404TIP3    H131627   3.017   1.997   0.394 -3.2153 -0.4775  0.4277
 3404TIP3    H231628   3.058   1.964   0.535  0.2377  0.3882 -0.2803
 3405TIP3   OH231629   6.095   3.240  15.419 -0.4752 -0.3283 -0.4048
 3405TIP3    H131630   6.034   3.275  15.354  1.4284  0.5807 -1.7937
 3405TIP3    H231631   6.147   3.316  15.447 -0.3148 -0.9741  1.1509
 3406TIP3   OH231632   1.668   5.025  13.138  0.0990  0.2370  0.1493
 3406TIP3    H131633   1.642   5.112  13.109  0.4827  0.7853  1.3739
 3406TIP3    H231634   1.756   5.013  13.102  0.5451  0.8837  0.9742
 3407TIP3   OH231635   5.126   1.988  15.332  0.1490 -0.2000 -0.2426
 3407TIP3    H131636   5.190   2.058  15.351  0.4719 -0.6643  0.3924
 3407TIP3    H231637   5.126   1.983  15.236  0.0787  0.7097 -0.3038
 3408TIP3   OH231638   0.451   0.907  15.732 -0.6785 -0.2754 -0.1290
 3408TIP3    H131639   0.490   0.973  15.789  0.8893 -0.6363 -0.7158
 3408TIP3    H231640   0.432   0.833  15.790  0.1030 -0.3187  0.0800
 3409TIP3   OH231641   2.161   4.000  12.185  0.2036 -0.0770 -0.8932
 3409TIP3    H131642   2.229   4.056  12.148  0.6111  0.0601  0.0250
 3409TIP3    H231643   2.111   4.059  12.242  0.7712 -0.6615  0.2569
 3410TIP3   OH231644   4.551   0.165  12.846  0.0946  0.3777  0.5266
 3410TIP3    H131645   4.516   0.082  12.880 -1.9024  0.4049 -1.2122
 3410TIP3    H231646   4.571   0.146  12.754  2.5442  1.0477  0.8736
 3411TIP3   OH231647   5.017   4.324  10.706  0.4243 -0.2209  0.0347
 3411TIP3    H131648   4.928   4.297  10.683  0.5425 -0.6828  0.1127
 3411TIP3    H231649   5.006   4.406  10.753  0.1560  0.6555 -1.4806
 3412TIP3   OH231650   2.189   2.367   4.766 -0.2926 -0.3869  0.1271
 3412TIP3    H131651   2.255   2.326   4.822  2.2179  2.0760 -0.8034
 3412TIP3    H231652   2.142   2.427   4.824  1.7590  1.5551 -0.0922
 3413TIP3   OH231653   3.961   4.078  16.725  0.1119  0.3596  0.0396
 3413TIP3    H131654   3.995   4.149  16.671  1.6071 -0.6082 -0.3533
 3413TIP3    H231655   4.029   4.010  16.722 -1.4922 -1.3367 -0.0674
 3414TIP3   OH231656   0.151   0.920  13.747 -0.5662 -0.4565 -0.1813
 3414TIP3    H131657   0.145   0.991  13.684  0.5031 -1.1436 -1.1154
 3414TIP3    H231658   0.097   0.947  13.821 -0.1735  1.3195 -0.5079
 3415TIP3   OH231659   1.967   2.740   1.485  0.1432  0.3957  0.4512
 3415TIP3    H131660   1.893   2.796   1.508 -0.2101 -0.2616  0.9777
 3415TIP3    H231661   1.964   2.733   1.390 -2.1715 -1.8005  0.5752
 3416TIP3   OH231662   5.244   3.171   2.722  0.3390  0.4395  0.4422
 3416TIP3    H131663   5.335   3.192   2.745 -0.1358  0.0012  2.9584
 3416TIP3    H231664   5.196   3.251   2.738 -0.0276  0.0784  1.2174
 3417TIP3   OH231665   4.187   2.651   4.764  0.3743  0.3210  0.2552
 3417TIP3    H131666   4.179   2.606   4.848  0.8732  1.6146  1.0161
 3417TIP3    H231667   4.282   2.653   4.747  0.2744  0.0330 -0.3607
 3418TIP3   OH231668   4.547   6.677   3.779  0.6055  0.1169  0.2275
 3418TIP3    H131669   4.583   6.656   3.693  1.2253  1.2266  0.1941
 3418TIP3    H231670   4.508   6.595   3.810 -0.1034 -0.1746 -1.3288
 3419TIP3   OH231671   1.327   5.532   1.861  0.7304  0.2371  0.0242
 3419TIP3    H131672   1.291   5.603   1.807 -2.0463  0.4297  1.9254
 3419TIP3    H231673   1.307   5.453   1.811 -0.7992  0.4859  0.1758
 3420TIP3   OH231674   4.878   5.514  13.435  0.3091  0.0805 -0.0058
 3420TIP3    H131675   4.821   5.591  13.432 -0.5526 -0.5574 -0.9870
 3420TIP3    H231676   4.886   5.486  13.343  0.7390 -0.8974  0.3070
 3421TIP3   OH231677   0.208   2.606  14.999  0.2666 -0.2925  0.4390
 3421TIP3    H131678   0.185   2.605  15.092 -1.4218 -2.3242  0.0765
 3421TIP3    H231679   0.171   2.687  14.966 -1.3738 -0.7369  1.0863
 3422TIP3   OH231680   5.735   5.606   0.505 -0.2542  0.4726  0.3794
 3422TIP3    H131681   5.785   5.637   0.431 -2.7478  0.9335 -1.2418
 3422TIP3    H231682   5.799   5.561   0.561  2.2519  2.7205 -0.4857
 3423TIP3   OH231683   5.409   2.368  12.295 -0.0665 -0.0614  0.0364
 3423TIP3    H131684   5.399   2.370  12.200 -0.2468 -1.2437  0.0052
 3423TIP3    H231685   5.335   2.418  12.329  0.1627  0.6140 -0.4429
 3424TIP3   OH231686   2.833   1.097   5.272  0.4328 -0.2643  0.1175
 3424TIP3    H131687   2.843   1.081   5.366  2.6521  0.8943  0.1395
 3424TIP3    H231688   2.743   1.129   5.264 -0.1670 -1.4137  1.6642
 3425TIP3   OH231689   1.280   6.609   1.863  0.0373 -0.7019 -0.2938
 3425TIP3    H131690   1.266   6.535   1.803  3.5955 -2.8671  1.1950
 3425TIP3    H231691   1.375   6.610   1.877 -0.0898  2.9942  1.3142
 3426TIP3   OH231692   4.698   1.234  14.967 -0.2673 -0.3800  0.3612
 3426TIP3    H131693   4.610   1.253  14.998 -0.1532 -1.3660  1.3922
 3426TIP3    H231694   4.690   1.150  14.921 -0.2620  0.6339 -1.5682
 3427TIP3   OH231695   6.623   6.083   0.722  0.6271 -0.0169 -0.1877
 3427TIP3    H131696   6.608   6.008   0.664  0.9180  1.2646 -2.0318
 3427TIP3    H231697   6.640   6.045   0.808  0.9330 -2.0576 -1.1046
 3428TIP3   OH231698   3.809   2.468   0.894  0.4226 -0.2719  0.3533
 3428TIP3    H131699   3.834   2.472   0.802  0.4740 -1.8991  0.2692
 3428TIP3    H231700   3.839   2.552   0.931 -0.3089  0.7354 -1.2507
 3429TIP3   OH231701   3.332   3.082  10.805  0.1108  0.3112 -0.5907
 3429TIP3    H131702   3.304   3.123  10.723 -1.2617 -1.2351 -0.9517
 3429TIP3    H231703   3.251   3.064  10.852  0.5010 -2.6972 -0.8447
 3430TIP3   OH231704   3.038   4.001   2.260 -0.3509  0.1823  0.0647
 3430TIP3    H131705   3.118   4.008   2.207 -0.4100  0.4042  0.0053
 3430TIP3    H231706   3.052   4.059   2.334  0.7472 -1.9148  1.6130
 3431TIP3   OH231707   2.676   1.096   5.977 -0.3056 -0.0698  0.0952
 3431TIP3    H131708   2.694   1.187   5.954 -1.4793  0.0477 -0.4172
 3431TIP3    H231709   2.626   1.101   6.058 -0.5389 -0.2517 -0.0386
 3432TIP3   OH231710   1.035   1.537   2.897  0.0326  0.0618 -0.6159
 3432TIP3    H131711   1.029   1.586   2.979  0.4043  1.0508 -1.1670
 3432TIP3    H231712   1.016   1.446   2.922  1.4230  0.1064  0.8053
 3433TIP3   OH231713   6.366   3.999   4.772  0.7629  0.2547  0.2254
 3433TIP3    H131714   6.308   3.926   4.794  1.3856 -0.2148  0.3407
 3433TIP3    H231715   6.450   3.976   4.812  1.6648 -0.1412 -1.8088
 3434TIP3   OH231716   5.667   0.363   6.253  0.8539  0.0656 -0.3155
 3434TIP3    H131717   5.716   0.365   6.335  0.2396  0.5754  0.0420
 3434TIP3    H231718   5.682   0.274   6.219  0.4920 -0.4149  0.7272
 3435TIP3   OH231719   2.819   1.995  16.267 -0.1515  0.7631  0.1897
 3435TIP3    H131720   2.858   1.911  16.243 -1.0539  1.1840 -3.4561
 3435TIP3    H231721   2.893   2.049  16.293  0.9114 -0.2207 -0.6573
 3436TIP3   OH231722   1.425   2.547   0.636  0.4572  0.0746 -0.0711
 3436TIP3    H131723   1.420   2.635   0.671  1.6651  0.6379 -1.2234
 3436TIP3    H231724   1.377   2.551   0.554 -0.0431 -0.5188  0.1844
 3437TIP3   OH231725   6.606   0.227   1.372  0.6048 -0.0870 -0.5762
 3437TIP3    H131726   6.586   0.140   1.406 -1.7431  0.9187  0.8916
 3437TIP3    H231727   6.616   0.215   1.278 -3.0568 -1.5306 -0.9419
 3438TIP3   OH231728   1.129   3.835   0.355  0.2312  0.3343 -0.6413
 3438TIP3    H131729   1.099   3.792   0.275  0.2191 -1.1172  0.1035
 3438TIP3    H231730   1.221   3.808   0.363 -0.4296 -1.7153  1.1337
 3439TIP3   OH231731   2.139   3.098  16.116  0.2737  0.0774  0.1395
 3439TIP3    H131732   2.104   3.157  16.182  0.7199 -0.5189  0.9337
 3439TIP3    H231733   2.217   3.142  16.083  0.3902  0.1128  0.4558
 3440TIP3   OH231734   2.052   6.452   2.458 -0.2261  0.0455 -0.1447
 3440TIP3    H131735   2.016   6.383   2.514  2.1062 -0.8844  0.3033
 3440TIP3    H231736   2.054   6.413   2.370 -0.2834  0.0869 -0.1647
 3441TIP3   OH231737   0.685   4.246  13.982 -0.4603  0.0764  0.4150
 3441TIP3    H131738   0.652   4.332  14.005 -1.0951 -0.5646  2.0839
 3441TIP3    H231739   0.622   4.211  13.919 -0.7330  0.4474  0.4852
 3442TIP3   OH231740   3.983   3.549  11.895  0.3465  0.2592 -0.0597
 3442TIP3    H131741   4.044   3.499  11.841 -1.1015  0.2627 -1.7964
 3442TIP3    H231742   4.024   3.635  11.904  0.9951 -0.0001 -0.4765
 3443TIP3   OH231743   2.344   3.681  11.281 -0.2921  0.0295  0.5593
 3443TIP3    H131744   2.346   3.755  11.219  1.0979 -1.0664 -0.7653
 3443TIP3    H231745   2.409   3.620  11.248 -1.2932 -1.7544  1.7181
 3444TIP3   OH231746   5.905   4.306  14.658  0.0687  0.2023  0.3076
 3444TIP3    H131747   5.830   4.292  14.599  1.4692  1.2662 -1.8769
 3444TIP3    H231748   5.913   4.224  14.707 -0.4405 -1.2830 -1.9324
 3445TIP3   OH231749   1.753   4.133  14.121  0.2145  0.0644  0.4787
 3445TIP3    H131750   1.709   4.065  14.172  1.9666 -0.9402  0.7492
 3445TIP3    H231751   1.743   4.105  14.030  0.0309  0.0210  0.5110
 3446TIP3   OH231752   4.829   1.348   2.715  0.4851  0.4476  0.4829
 3446TIP3    H131753   4.748   1.396   2.695  1.0148 -0.1461 -4.1747
 3446TIP3    H231754   4.891   1.417   2.739  0.2790  1.9097 -2.6102
 3447TIP3   OH231755   2.256   4.556   1.092  0.0851  0.6490 -0.0463
 3447TIP3    H131756   2.246   4.470   1.052 -0.9127  0.4714  0.5469
 3447TIP3    H231757   2.298   4.538   1.176 -1.5558  0.5437  0.7761
 3448TIP3   OH231758   6.159   1.039   3.858  0.2330  0.1222 -0.0553
 3448TIP3    H131759   6.109   1.024   3.938  0.5950  0.7689  0.3012
 3448TIP3    H231760   6.245   1.001   3.876  0.3027  0.2308 -0.1559
 3449TIP3   OH231761   4.420   0.688   4.291 -0.6111  0.1603 -0.0515
 3449TIP3    H131762   4.415   0.704   4.197  0.5269 -0.0228 -0.1516
 3449TIP3    H231763   4.426   0.593   4.299 -1.3104  0.1335  0.2449
 3450TIP3   OH231764   6.092   3.651  14.494  0.8279  0.4367 -0.4791
 3450TIP3    H131765   6.040   3.676  14.418 -0.0516  1.1482  0.3314
 3450TIP3    H231766   6.036   3.590  14.542  0.4908  1.5872  0.6549
 3451TIP3   OH231767   4.939   2.960   1.776  0.0074  0.3016 -0.5726
 3451TIP3    H131768   4.928   2.887   1.715 -0.3021  0.8247 -1.1516
 3451TIP3    H231769   5.025   2.997   1.755  0.2136  0.0420 -0.2042
 3452TIP3   OH231770   0.782   3.597   5.717 -0.0031 -0.0480  0.5415
 3452TIP3    H131771   0.873   3.574   5.736  0.7964  1.4307 -1.2235
 3452TIP3    H231772   0.734   3.515   5.729  1.2996 -0.5945  2.7190
 3453TIP3   OH231773   0.688   6.375   1.900 -0.1569 -0.5094 -0.3921
 3453TIP3    H131774   0.693   6.385   1.995  0.7628 -4.0188  0.0575
 3453TIP3    H231775   0.615   6.314   1.885 -1.1437  0.9744 -2.1105
 3454TIP3   OH231776   5.310   2.876   5.614  0.1470 -0.0226  0.0325
 3454TIP3    H131777   5.310   2.837   5.526  0.6516 -0.8887  0.4007
 3454TIP3    H231778   5.250   2.822   5.664  1.1186 -0.5633  0.6428
 3455TIP3   OH231779   1.984   0.636  12.622  0.2563 -0.0714 -0.5792
 3455TIP3    H131780   2.004   0.557  12.572 -1.8170  0.3596 -2.1790
 3455TIP3    H231781   2.068   0.682  12.628  0.9305 -1.0583 -1.9909
 3456TIP3   OH231782   3.812   2.179  13.405  0.0411 -0.6035 -0.6929
 3456TIP3    H131783   3.738   2.198  13.348  0.0691  2.0741  0.0381
 3456TIP3    H231784   3.867   2.257  13.401  2.4339 -2.1596 -0.5409
 3457TIP3   OH231785   4.022   2.900  16.279 -0.5713  0.2724 -0.3398
 3457TIP3    H131786   3.996   2.809  16.267  0.5663  0.0303 -1.1296
 3457TIP3    H231787   4.081   2.899  16.354 -0.1097  0.2506 -0.6936
 3458TIP3   OH231788   1.670   5.871   2.101 -0.2540 -0.1282  0.3004
 3458TIP3    H131789   1.626   5.833   2.025  0.3520  0.5244 -0.3992
 3458TIP3    H231790   1.607   5.932   2.138  0.2596  1.3272 -1.1136
 3459TIP3   OH231791   4.935   0.427   5.455  0.6281 -0.1036 -0.3129
 3459TIP3    H131792   4.932   0.410   5.549 -0.8974  0.4500 -0.2291
 3459TIP3    H231793   5.028   0.440   5.436  1.0075 -0.6999  1.0201
 3460TIP3   OH231794   4.385   0.371  14.032 -0.5272 -0.2011 -0.4311
 3460TIP3    H131795   4.306   0.408  13.993 -0.6560 -0.7169 -0.6736
 3460TIP3    H231796   4.392   0.413  14.118 -0.1911  1.0088 -1.0345
 3461TIP3   OH231797   3.688   1.842   1.625  0.1014  0.6957  0.1496
 3461TIP3    H131798   3.603   1.884   1.615  0.1065  0.3965 -1.3642
 3461TIP3    H231799   3.699   1.790   1.545  0.6669 -1.1815  1.3792
 3462TIP3   OH231800   3.170   1.630   1.572  0.3490 -0.3648  0.6447
 3462TIP3    H131801   3.248   1.646   1.624 -0.2918  1.4943  1.1174
 3462TIP3    H231802   3.203   1.618   1.483  1.1878  0.6906  0.7825
 3463TIP3   OH231803   4.954   4.976  14.832 -0.0212  0.2688 -0.3252
 3463TIP3    H131804   4.929   5.037  14.901 -0.1878 -0.1702  0.0059
 3463TIP3    H231805   5.027   4.926  14.869  0.5804  0.7375 -0.8520
 3464TIP3   OH231806   1.207   6.074  11.184 -0.5090  0.2057 -0.1403
 3464TIP3    H131807   1.302   6.074  11.190 -0.4007 -1.0422 -1.3286
 3464TIP3    H231808   1.183   5.981  11.179 -1.7655  0.5027 -0.0888
 3465TIP3   OH231809   1.684   4.709  10.765  0.8483 -0.3243 -0.3145
 3465TIP3    H131810   1.618   4.722  10.697 -0.0017  2.2146  0.8801
 3465TIP3    H231811   1.652   4.758  10.840  0.7622 -4.4848  2.7268
 3466TIP3   OH231812   6.656   3.134  16.565 -0.1384 -0.6599  0.2828
 3466TIP3    H131813   6.727   3.074  16.585  0.1573 -0.7605 -0.9856
 3466TIP3    H231814   6.583   3.077  16.541  0.0009 -0.5335 -0.4665
 3467TIP3   OH231815   3.793   1.978  15.591  0.3033 -0.0936 -0.2903
 3467TIP3    H131816   3.864   1.917  15.570  0.0662 -0.1814 -0.8793
 3467TIP3    H231817   3.727   1.961  15.523 -0.8784 -0.9747  1.0354
 3468TIP3   OH231818   5.482   4.901  11.239 -0.3993 -0.7818  0.4101
 3468TIP3    H131819   5.538   4.977  11.221 -1.5981 -0.2537 -1.2630
 3468TIP3    H231820   5.544   4.830  11.256  0.7686  0.0763 -0.0950
 3469TIP3   OH231821   3.805   0.141  12.996 -0.5658 -0.4950  0.2570
 3469TIP3    H131822   3.866   0.211  12.971 -0.7751  0.2498  1.6885
 3469TIP3    H231823   3.722   0.165  12.954 -1.3882  1.6841  2.8322
 3470TIP3   OH231824   6.422   6.303   4.404  0.2848 -0.2705 -0.5225
 3470TIP3    H131825   6.410   6.396   4.425  2.5773  0.1443 -0.7976
 3470TIP3    H231826   6.483   6.271   4.470 -1.9584 -2.1772  0.8035
 3471TIP3   OH231827   2.683   0.045   3.414  0.3304 -0.3036  0.0051
 3471TIP3    H131828   2.595   0.082   3.407 -0.2486 -1.3437  1.3240
 3471TIP3    H231829   2.692   0.022   3.506  1.7771 -0.7403 -0.2195
 3472TIP3   OH231830   5.120   6.339   1.891  0.3552 -0.0957  0.8228
 3472TIP3    H131831   5.092   6.382   1.810 -0.8348 -3.5686 -0.7987
 3472TIP3    H231832   5.039   6.325   1.940  0.7189 -0.4375  1.3295
 3473TIP3   OH231833   1.644   1.049   0.537 -0.2307  0.4171  0.1300
 3473TIP3    H131834   1.704   1.022   0.467 -0.2681  0.2128  0.1748
 3473TIP3    H231835   1.631   0.969   0.588 -0.5933  0.4432  0.0829
 3474TIP3   OH231836   5.192   2.763  15.175  0.3702  0.0347  0.1844
 3474TIP3    H131837   5.286   2.783  15.171  0.0454  1.5276 -0.9686
 3474TIP3    H231838   5.150   2.848  15.187 -0.9679 -0.1546 -2.3964
 3475TIP3   OH231839   4.421   4.416   5.148 -0.5051  0.7449 -0.2281
 3475TIP3    H131840   4.379   4.423   5.062 -0.7410  2.1803 -0.0126
 3475TIP3    H231841   4.416   4.504   5.184 -0.5845  0.1159  1.3439
 3476TIP3   OH231842   6.573   4.417   5.218 -0.2942 -0.4508  0.2035
 3476TIP3    H131843   6.636   4.389   5.151  0.3257  0.4034  0.3991
 3476TIP3    H231844   6.626   4.465   5.282 -1.2163  0.7880  0.0760
 3477TIP3   OH231845   3.881   1.575   3.620  0.2274 -0.2899  0.0443
 3477TIP3    H131846   3.817   1.599   3.554  0.2681 -0.4284 -0.0461
 3477TIP3    H231847   3.837   1.508   3.673  0.3207 -0.4347 -0.0597
 3478TIP3   OH231848   6.565   6.028   1.408  0.2818  0.2005  0.1375
 3478TIP3    H131849   6.493   5.992   1.460 -1.0693  1.5054 -0.7268
 3478TIP3    H231850   6.531   6.030   1.319  1.1275  1.4770 -0.1918
 3479TIP3   OH231851   0.312   0.080  12.789  0.1266 -0.1395 -0.1590
 3479TIP3    H131852   0.356   0.136  12.725  1.2152 -1.3310 -0.4936
 3479TIP3    H231853   0.278   0.007  12.738 -0.6103 -0.1912  0.3849
 3480TIP3   OH231854   5.364   1.915  11.872 -0.6038  0.0621  0.0814
 3480TIP3    H131855   5.289   1.879  11.825 -0.6444 -0.4781  0.5420
 3480TIP3    H231856   5.326   1.950  11.953 -0.1651 -1.7705  1.1335
 3481TIP3   OH231857   3.205   2.200   5.790 -0.5854 -0.0889  0.2099
 3481TIP3    H131858   3.184   2.288   5.761  0.1547 -0.2592 -0.9132
 3481TIP3    H231859   3.121   2.154   5.792 -0.7166  0.0320 -1.3908
 3482TIP3   OH231860   5.747   4.155  15.196 -0.3614 -0.4412  0.1243
 3482TIP3    H131861   5.840   4.180  15.203 -0.8513  1.1656  1.8212
 3482TIP3    H231862   5.712   4.168  15.285 -1.6553 -3.5963  0.1952
 3483TIP3   OH231863   2.578   3.818   0.999  0.0891  0.0775 -0.4981
 3483TIP3    H131864   2.604   3.740   0.950  0.0526  0.5720 -1.3237
 3483TIP3    H231865   2.631   3.815   1.079  0.3583 -0.5924 -0.6953
 3484TIP3   OH231866   6.510   1.432  14.077 -0.0571  0.4212 -0.2642
 3484TIP3    H131867   6.489   1.343  14.104  1.3636  0.3116  0.6428
 3484TIP3    H231868   6.577   1.421  14.009  1.5421  0.7582  1.1723
 3485TIP3   OH231869   3.331   0.410  14.622 -0.7007  0.1339  0.7174
 3485TIP3    H131870   3.335   0.480  14.687 -0.1540 -0.3287  1.1845
 3485TIP3    H231871   3.417   0.368  14.625 -0.2109  0.8854 -1.1961
 3486TIP3   OH231872   6.741   4.631  15.822  0.0518  0.2011  0.5285
 3486TIP3    H131873   6.735   4.599  15.912  2.6568  1.1906  1.1396
 3486TIP3    H231874   6.820   4.684  15.821  0.7120 -0.6681 -2.6390
 3487TIP3   OH231875   1.486   0.031   2.083  0.0537 -0.1978  0.0570
 3487TIP3    H131876   1.439   0.071   2.156 -0.3350  0.7623 -0.6952
 3487TIP3    H231877   1.460   0.082   2.007  0.4368 -1.1902 -0.7677
 3488TIP3   OH231878   1.329   3.004   2.984 -0.2409  0.1779 -0.5394
 3488TIP3    H131879   1.403   3.063   2.997 -0.5356  0.0262  2.4496
 3488TIP3    H231880   1.350   2.957   2.904  3.4571 -0.5740  0.6775
 3489TIP3   OH231881   4.359   0.611  16.823 -0.6084  0.3415 -0.3124
 3489TIP3    H131882   4.391   0.586  16.910  0.3722 -0.4092 -0.8719
 3489TIP3    H231883   4.266   0.629  16.836 -1.1997 -2.7372  0.3434
 3490TIP3   OH231884   1.603   3.469   4.954  0.2662 -0.5694  0.2345
 3490TIP3    H131885   1.533   3.408   4.976 -0.0398 -0.2387  0.1865
 3490TIP3    H231886   1.558   3.547   4.922  0.6047  0.0801  1.2617
 3491TIP3   OH231887   1.395   0.868  12.662 -0.4924  0.3660 -0.1823
 3491TIP3    H131888   1.435   0.785  12.686 -0.2054  0.5924  0.1410
 3491TIP3    H231889   1.440   0.895  12.582 -0.7823  0.0761 -0.4455
 3492TIP3   OH231890   5.502   1.443  12.029 -0.4590 -0.2758  0.0572
 3492TIP3    H131891   5.464   1.360  12.058 -1.0147  0.4316  1.4420
 3492TIP3    H231892   5.595   1.423  12.014 -0.6299 -1.1858  0.1668
 3493TIP3   OH231893   2.130   5.376   2.179  0.1900 -0.3770  0.0023
 3493TIP3    H131894   2.177   5.405   2.102  0.4320 -1.2162 -0.1739
 3493TIP3    H231895   2.192   5.321   2.226 -0.3693 -0.9054  0.1377
 3494TIP3   OH231896   2.193   4.060   2.683  0.6160 -0.1874  0.2002
 3494TIP3    H131897   2.214   4.017   2.600  2.6602 -0.1298  0.6391
 3494TIP3    H231898   2.277   4.071   2.726 -0.0924  2.2796  1.0963
 3495TIP3   OH231899   4.940   3.407   5.018 -0.1872  0.2866 -0.4694
 3495TIP3    H131900   4.972   3.495   5.038  0.1530  0.2459 -0.8165
 3495TIP3    H231901   5.017   3.360   4.987 -0.3319 -0.1881 -0.1195
 3496TIP3   OH231902   6.075   5.228  13.639 -0.3268 -0.0257  0.2227
 3496TIP3    H131903   6.160   5.269  13.626  0.6329 -1.1356  2.4707
 3496TIP3    H231904   6.037   5.276  13.713 -0.5765 -1.1212  0.8167
 3497TIP3   OH231905   4.239   1.629   1.031  0.2341  0.3783  0.3322
 3497TIP3    H131906   4.162   1.663   0.985  0.1740  0.0938  0.2209
 3497TIP3    H231907   4.203   1.584   1.107  0.0825 -2.0624 -1.0992
 3498TIP3   OH231908   1.266   1.084   3.359  0.5302  0.0858 -0.2543
 3498TIP3    H131909   1.183   1.035   3.355 -0.9025  2.1856  1.5394
 3498TIP3    H231910   1.305   1.059   3.442  0.2093  1.2514  0.2720
 3499TIP3   OH231911   3.100   0.206  12.624  0.4834  0.5743 -0.2207
 3499TIP3    H131912   3.101   0.233  12.533  1.5747 -0.5162 -0.5661
 3499TIP3    H231913   3.041   0.132  12.627  0.4797  0.5832 -0.0474
 3500TIP3   OH231914   2.286   6.378   4.863 -0.0308 -0.3100 -0.3555
 3500TIP3    H131915   2.291   6.410   4.773  0.8290  0.5950 -0.0041
 3500TIP3    H231916   2.300   6.284   4.856 -2.2527 -0.6265 -1.3793
 3501TIP3   OH231917   0.574   2.557   2.142  0.6403 -0.0594 -0.4343
 3501TIP3    H131918   0.644   2.525   2.199 -0.7294  0.3188  1.5897
 3501TIP3    H231919   0.615   2.622   2.086  1.9154  0.1004  0.6479
 3502TIP3   OH231920   0.605   0.803  14.312  0.0438  0.0664 -0.1858
 3502TIP3    H131921   0.600   0.840  14.224  0.3569  1.6564  0.4385
 3502TIP3    H231922   0.663   0.862  14.360 -0.0809 -0.7967  1.0855
 3503TIP3   OH231923   1.393   2.142   0.503  0.1821  0.8514 -0.2331
 3503TIP3    H131924   1.426   2.177   0.586  1.1105  0.4668 -0.4158
 3503TIP3    H231925   1.313   2.191   0.486  0.9841  2.2897 -0.0623
 3504TIP3   OH231926   6.155   0.567   5.157 -0.2199 -0.5201  0.2748
 3504TIP3    H131927   6.233   0.572   5.102  0.6358  0.1111  1.5013
 3504TIP3    H231928   6.088   0.614   5.108  0.7756  0.8275  0.1600
 3505TIP3   OH231929   4.618   5.082  12.523  0.0159 -0.6481 -0.1651
 3505TIP3    H131930   4.611   5.010  12.460  0.9435 -1.8350  1.0058
 3505TIP3    H231931   4.580   5.157  12.479  1.0226 -1.3087 -2.3137
 3506TIP3   OH231932   2.458   5.864  17.260  0.2095 -0.1527  0.3648
 3506TIP3    H131933   2.468   5.776  17.296  0.9611 -0.8017 -1.3237
 3506TIP3    H231934   2.535   5.876  17.204 -0.3269  1.2273 -0.1320
 3507TIP3   OH231935   6.651   1.859  16.217  0.3837 -0.2752 -0.1323
 3507TIP3    H131936   6.635   1.766  16.200  1.7495 -1.0300  2.2557
 3507TIP3    H231937   6.738   1.875  16.180  1.9887 -1.1234  2.9538
 3508TIP3   OH231938   4.370   5.091  14.932  0.2814  1.0446  0.3154
 3508TIP3    H131939   4.281   5.065  14.959  0.5973 -0.2197  0.2105
 3508TIP3    H231940   4.357   5.170  14.880 -0.7951  0.8560  0.2740
 3509TIP3   OH231941   5.335   3.251  14.266 -0.3091  0.1534 -0.6855
 3509TIP3    H131942   5.295   3.210  14.189 -2.3016 -1.1524  0.9251
 3509TIP3    H231943   5.376   3.179  14.313 -1.8627  0.3281  1.0400
 3510TIP3   OH231944   4.551   1.677  15.510 -0.1230  0.3144  0.3684
 3510TIP3    H131945   4.634   1.643  15.543 -0.3986 -0.3523  0.3932
 3510TIP3    H231946   4.565   1.771  15.503  1.8483 -0.0914 -3.0492
 3511TIP3   OH231947   1.396   2.554  13.168  0.2175  0.4716 -0.3707
 3511TIP3    H131948   1.425   2.630  13.118 -1.3283  1.2604 -0.1169
 3511TIP3    H231949   1.362   2.493  13.103  1.5604 -0.0904 -0.5844
 3512TIP3   OH231950   1.831   6.225  14.929  0.0048 -0.0298  0.6193
 3512TIP3    H131951   1.769   6.156  14.951  0.1993 -0.7826 -1.0308
 3512TIP3    H231952   1.778   6.290  14.881  0.2739 -0.1511  0.1555
 3513TIP3   OH231953   0.997   4.881   1.795 -0.2950  0.0860 -0.1402
 3513TIP3    H131954   1.016   4.923   1.712 -1.0391  1.0334  0.1572
 3513TIP3    H231955   0.948   4.802   1.772 -1.0816  0.6897 -0.5736
 3514TIP3   OH231956   4.029   1.482   1.482  0.8891 -0.1731 -0.1382
 3514TIP3    H131957   4.122   1.484   1.507  1.1946 -0.4619 -1.1817
 3514TIP3    H231958   4.030   1.467   1.388 -0.2220  0.3911 -0.2555
 3515TIP3   OH231959   1.749   5.027  13.500 -0.4766  0.0248 -0.0903
 3515TIP3    H131960   1.782   4.946  13.462  1.6498  0.6388  0.3403
 3515TIP3    H231961   1.654   5.022  13.488 -0.4402 -2.6448  0.1967
 3516TIP3   OH231962   3.477   1.706   1.215  0.0634 -0.5623  0.2356
 3516TIP3    H131963   3.503   1.753   1.135  0.4298  0.8372  1.1503
 3516TIP3    H231964   3.458   1.775   1.278  0.0487 -1.6526  1.4578
 3517TIP3   OH231965   2.110   0.118   5.216  0.1487  0.6469  0.2439
 3517TIP3    H131966   2.170   0.161   5.277  1.5276  1.4280 -1.5568
 3517TIP3    H231967   2.023   0.143   5.245  0.7760  1.3645  1.5922
 3518TIP3   OH231968   1.874   1.665  13.635  0.1537  0.1679 -0.1702
 3518TIP3    H131969   1.867   1.589  13.693  0.1319 -0.1225 -0.5509
 3518TIP3    H231970   1.805   1.652  13.570  0.0258  0.6112 -0.1274
 3519TIP3   OH231971   4.795   1.568  15.618 -0.1875 -0.4500 -0.3965
 3519TIP3    H131972   4.880   1.564  15.574 -0.6469 -2.3792 -1.2019
 3519TIP3    H231973   4.805   1.636  15.685  1.2215  1.0397 -2.0374
 3520TIP3   OH231974   0.634   3.421  14.468  0.4160 -0.4099 -0.0156
 3520TIP3    H131975   0.613   3.386  14.381 -1.1789 -1.4468  0.7378
 3520TIP3    H231976   0.549   3.445  14.505  1.1048  0.3276  1.1329
 3521TIP3   OH231977   1.173   1.997  12.288  0.2560 -0.0306 -1.0676
 3521TIP3    H131978   1.113   2.050  12.339  0.7105 -0.5370  0.0143
 3521TIP3    H231979   1.237   2.060  12.254  0.9433  0.1100  0.4177
 3522TIP3   OH231980   4.369   5.917   5.590 -0.1408  1.0319  0.1633
 3522TIP3    H131981   4.382   5.824   5.571 -0.3973  0.7487  1.3081
 3522TIP3    H231982   4.273   5.926   5.597 -0.0644  1.0919  1.3640
 3523TIP3   OH231983   2.365   3.212  14.699  0.0366 -0.1965  0.0089
 3523TIP3    H131984   2.276   3.240  14.677 -0.1606 -1.1937 -0.5510
 3523TIP3    H231985   2.397   3.278  14.760 -1.8204 -0.8588  1.8352
 3524TIP3   OH231986   4.884   5.053   4.526  0.2700 -0.0595  0.8143
 3524TIP3    H131987   4.908   5.143   4.504 -1.1120  0.0729 -0.3574
 3524TIP3    H231988   4.960   5.001   4.503  0.9883  0.7687  1.2512
 3525TIP3   OH231989   6.741   6.112   4.585 -0.2285  0.1131  0.1070
 3525TIP3    H131990   6.727   6.204   4.563  0.3848 -0.0361 -1.0097
 3525TIP3    H231991   6.654   6.073   4.587 -0.3686  0.1998 -1.9458
 3526TIP3   OH231992   0.822   3.665  16.109  0.1530 -0.1841  0.6108
 3526TIP3    H131993   0.785   3.582  16.141 -0.3925 -0.3781 -0.4699
 3526TIP3    H231994   0.745   3.718  16.085  0.5264 -0.0559 -0.3591
 3527TIP3   OH231995   3.921   4.743   2.903  0.8068 -0.0815  0.7351
 3527TIP3    H131996   3.996   4.802   2.914 -0.1317  1.1618  0.6693
 3527TIP3    H231997   3.857   4.773   2.967 -0.7195  0.6890 -1.0615
 3528TIP3   OH231998   5.208   3.489   0.237 -0.0395 -0.3525  0.5313
 3528TIP3    H131999   5.244   3.483   0.325 -0.6617  0.9743  0.8894
 3528TIP3    H232000   5.271   3.543   0.189  0.9792 -2.1216 -0.2389
 3529TIP3   OH232001   0.439   3.674   0.225  0.6047 -0.0331 -0.2838
 3529TIP3    H132002   0.451   3.692   0.132  0.7880 -2.5394 -0.8332
 3529TIP3    H232003   0.350   3.638   0.230  0.2995  0.8350  0.6558
 3530TIP3   OH232004   1.755   5.829   3.033 -0.0678 -0.2069 -0.0195
 3530TIP3    H132005   1.737   5.748   2.984 -1.4904  0.4993 -0.7307
 3530TIP3    H232006   1.724   5.809   3.122 -1.1624 -0.2119 -0.3810
 3531TIP3   OH232007   1.496   4.970  16.456  0.4372 -0.0308 -0.8669
 3531TIP3    H132008   1.492   5.066  16.449  0.6752 -0.0134 -0.7931
 3531TIP3    H232009   1.405   4.942  16.458  0.3669  0.1891 -0.9898
 3532TIP3   OH232010   1.064   1.379   5.276  0.0428  0.1090 -0.3993
 3532TIP3    H132011   1.116   1.338   5.346  1.7572  1.5749 -0.7222
 3532TIP3    H232012   0.975   1.383   5.311  0.6044 -0.3540  1.1681
 3533TIP3   OH232013   0.776   1.514   2.072 -0.0560  0.5623  0.2089
 3533TIP3    H132014   0.807   1.485   1.986  0.2759  0.1000  0.4826
 3533TIP3    H232015   0.851   1.503   2.130 -0.0584  1.5693  0.4094
 3534TIP3   OH232016   2.060   1.547   3.398 -0.2435 -0.1656 -0.0864
 3534TIP3    H132017   2.108   1.564   3.317  0.9951 -0.1367  0.6343
 3534TIP3    H232018   1.970   1.530   3.369  0.2028 -0.3080 -1.4757
 3535TIP3   OH232019   0.995   3.341   5.711  0.6590 -0.3721 -0.3262
 3535TIP3    H132020   0.940   3.275   5.753  0.9695  0.1309  0.9023
 3535TIP3    H232021   0.987   3.322   5.617 -2.0310  0.0117 -0.2479
 3536TIP3   OH232022   1.437   3.594   0.013  0.1365 -0.5914  0.4106
 3536TIP3    H132023   1.347   3.603   0.046 -0.5709 -0.1137 -1.4634
 3536TIP3    H232024   1.438   3.508  -0.029 -0.7090  0.8227 -2.8398
 3537TIP3   OH232025   4.091   2.244   2.111 -0.1227 -0.1289 -0.1299
 3537TIP3    H132026   4.134   2.163   2.083 -0.9859 -0.7431  0.2661
 3537TIP3    H232027   3.999   2.219   2.122 -0.6267  1.1727 -1.0999
 3538TIP3   OH232028   4.075   3.314   2.118  0.0848  0.2983 -0.0083
 3538TIP3    H132029   4.146   3.259   2.084  0.2833 -0.0297  0.9134
 3538TIP3    H232030   4.118   3.375   2.178 -0.5455 -0.6760  1.4826
 3539TIP3   OH232031   1.554   1.211   2.630  0.3311  0.2555  0.8439
 3539TIP3    H132032   1.493   1.216   2.557  0.9294 -0.9918  0.2267
 3539TIP3    H232033   1.584   1.120   2.630 -0.4345 -0.0651  3.3000
 3540TIP3   OH232034   4.795   5.115  15.381  0.7072  0.4038  0.3407
 3540TIP3    H132035   4.720   5.090  15.435 -0.1862  1.8095 -0.2103
 3540TIP3    H232036   4.760   5.179  15.320  1.8098 -0.7212 -1.5650
 3541TIP3   OH232037   2.332   6.628  12.333  0.0027  0.0500  0.0391
 3541TIP3    H132038   2.254   6.621  12.388  0.5950  0.5330  0.9814
 3541TIP3    H232039   2.401   6.586  12.384  0.5414  0.3928 -0.3938
 3542TIP3   OH232040   2.462   0.334  16.615  0.0281 -0.4213 -0.1222
 3542TIP3    H132041   2.525   0.399  16.585 -0.5145 -0.5142 -1.5201
 3542TIP3    H232042   2.489   0.315  16.705 -0.0589  2.0446  0.5079
 3543TIP3   OH232043   2.346   3.404   4.052  0.3293  0.3183  0.1675
 3543TIP3    H132044   2.316   3.411   3.961  1.0255  0.2873 -0.0712
 3543TIP3    H232045   2.268   3.423   4.104 -0.2387 -0.2753 -0.4303
 3544TIP3   OH232046   5.412   4.589  14.618  0.0574  0.4214  0.1054
 3544TIP3    H132047   5.331   4.540  14.608  0.1130  0.8214 -3.9484
 3544TIP3    H232048   5.481   4.526  14.594  0.9521  0.3545  2.5811
 3545TIP3   OH232049   5.859   5.830  16.668 -0.4413  0.0579 -0.0270
 3545TIP3    H132050   5.891   5.745  16.701 -0.2552  0.9858  2.4441
 3545TIP3    H232051   5.803   5.808  16.594 -0.2691 -2.2243  0.4443
 3546TIP3   OH232052   2.298   0.351  12.319 -0.1816 -0.3091  0.1211
 3546TIP3    H132053   2.206   0.335  12.301  0.0943 -1.1937 -0.6033
 3546TIP3    H232054   2.320   0.429  12.267 -1.1922  1.7668  2.5765
 3547TIP3   OH232055   1.099   6.008  13.012  0.3081 -0.3704 -0.2510
 3547TIP3    H132056   1.175   5.976  13.060  1.0129  0.5207 -0.7271
 3547TIP3    H232057   1.023   5.979  13.063  1.0294  1.3495  1.9320
 3548TIP3   OH232058   4.277   1.193  10.948 -0.4121  0.4494 -0.4244
 3548TIP3    H132059   4.215   1.266  10.951 -1.6082 -0.5582  1.2374
 3548TIP3    H232060   4.359   1.229  10.983 -0.6624  1.2792 -0.6894
 3549TIP3   OH232061   4.509   4.232  13.427  0.1667 -0.2753  0.0194
 3549TIP3    H132062   4.488   4.319  13.392  0.4878 -0.5775 -0.9733
 3549TIP3    H232063   4.435   4.210  13.483  1.0064  1.4958  1.9439
 3550TIP3   OH232064   0.187   6.607  14.991 -0.2542 -0.4358 -0.2043
 3550TIP3    H132065   0.116   6.543  14.982  0.9141 -1.6605 -1.0592
 3550TIP3    H232066   0.182   6.659  14.911 -1.9098  1.3801  0.9747
 3551TIP3   OH232067   2.936   0.489  12.068  0.1212 -0.5807  0.0824
 3551TIP3    H132068   2.911   0.504  12.159 -0.6288 -0.8207 -0.0775
 3551TIP3    H232069   3.010   0.547  12.053  0.2546 -0.5485  0.8507
 3552TIP3   OH232070   1.974   4.114  16.666 -0.2097  0.0531 -0.3801
 3552TIP3    H132071   2.030   4.109  16.744  1.2704  2.7493 -1.1690
 3552TIP3    H232072   1.959   4.022  16.642  3.0956 -0.8465  0.4314
 3553TIP3   OH232073   2.780   1.484   6.819 -0.2708 -0.2179 -0.0659
 3553TIP3    H132074   2.696   1.477   6.865 -0.7598 -0.3825 -0.9369
 3553TIP3    H232075   2.838   1.425   6.866 -0.0181  1.4586  1.8245
 3554TIP3   OH232076   4.078   4.898  10.783  0.3836 -0.8461 -0.3047
 3554TIP3    H132077   4.145   4.957  10.749  0.7471 -1.9992 -1.7045
 3554TIP3    H232078   3.996   4.934  10.750  0.0208  1.5082  2.7567
 3555TIP3   OH232079   4.070   5.619   2.047 -0.2430 -0.3799  0.5412
 3555TIP3    H132080   4.004   5.618   2.116 -0.0273 -1.3869  0.7498
 3555TIP3    H232081   4.040   5.686   1.986 -1.6205 -1.0147  0.4873
 3556TIP3   OH232082   6.634   1.706  12.758  0.4282  0.0297 -0.0950
 3556TIP3    H132083   6.570   1.695  12.688 -2.5100  0.1607  2.3537
 3556TIP3    H232084   6.655   1.800  12.757 -0.0873  0.1444 -0.3889
 3557TIP3   OH232085   2.450   0.007  16.487  0.2505  0.2300  0.1703
 3557TIP3    H132086   2.404   0.078  16.442 -1.6055  0.1170  1.7234
 3557TIP3    H232087   2.513   0.051  16.543  0.1239  0.5848  0.0368
 3558TIP3   OH232088   0.984   2.295  16.993  0.0304  0.3142 -0.1871
 3558TIP3    H132089   0.958   2.273  17.083  0.2300 -1.6166 -0.5431
 3558TIP3    H232090   1.076   2.319  16.999 -0.0836  0.6641  0.1843
 3559TIP3   OH232091   1.870   3.233   3.119 -0.6146  0.3216 -0.1960
 3559TIP3    H132092   1.817   3.206   3.193 -1.4547 -0.3919 -1.0283
 3559TIP3    H232093   1.928   3.159   3.102  0.6099  1.0522  0.6352
 3560TIP3   OH232094   6.322   4.048  12.195  0.1005 -0.0470  0.4498
 3560TIP3    H132095   6.405   4.011  12.226  1.0431 -0.9483 -2.7649
 3560TIP3    H232096   6.255   3.996  12.238  1.3253 -2.1294 -0.0118
 3561TIP3   OH232097   2.958   2.222   1.655 -0.6875 -0.0257  0.5484
 3561TIP3    H132098   3.003   2.287   1.602 -1.1363  0.3673  0.6445
 3561TIP3    H232099   2.964   2.141   1.605  0.2714 -0.0169  0.6374
 3562TIP3   OH232100   2.988   5.312  11.552 -0.5147  0.0211  0.4331
 3562TIP3    H132101   2.916   5.251  11.535 -0.5056  0.0325  0.3562
 3562TIP3    H232102   2.994   5.365  11.473  0.1961 -0.5953  0.0685
 3563TIP3   OH232103   2.459   4.933  15.448 -0.9979  0.3784  0.5035
 3563TIP3    H132104   2.465   4.856  15.503 -2.1449  0.2491  0.4799
 3563TIP3    H232105   2.463   5.007  15.509  0.4624  0.3390  0.4950
 3564TIP3   OH232106   4.799   5.048  16.859 -0.1563 -0.0458  0.2908
 3564TIP3    H132107   4.707   5.055  16.883 -0.2642  1.3978 -0.4155
 3564TIP3    H232108   4.837   5.132  16.887  0.2830  0.5905 -2.0323
 3565TIP3   OH232109   3.344   4.734   0.965  0.0499  0.2906 -0.0208
 3565TIP3    H132110   3.396   4.685   1.028 -0.6417 -0.4374 -0.0113
 3565TIP3    H232111   3.408   4.763   0.899  0.5670 -0.0499  0.3212
 3566TIP3   OH232112   3.849   5.189   3.071  0.0062 -0.0728  0.5016
 3566TIP3    H132113   3.829   5.096   3.085 -0.6093 -0.0813 -0.3831
 3566TIP3    H232114   3.913   5.210   3.140  0.1043 -1.1281  0.7514
 3567TIP3   OH232115   5.448   1.331   5.490  0.0209  0.2630 -0.2166
 3567TIP3    H132116   5.515   1.266   5.510 -0.1969  0.1036 -0.0003
 3567TIP3    H232117   5.406   1.349   5.574 -0.4724  0.0650 -0.4201
 3568TIP3   OH232118   0.828   5.156   5.275  0.0687 -0.1948  0.1313
 3568TIP3    H132119   0.866   5.177   5.360  0.4378  0.6327 -0.2297
 3568TIP3    H232120   0.903   5.128   5.222 -0.1924 -0.9192  0.1383
 3569TIP3   OH232121   2.229   1.471   0.211  0.0110 -0.0953  0.6133
 3569TIP3    H132122   2.190   1.523   0.282  1.7700  1.7683  0.3132
 3569TIP3    H232123   2.156   1.423   0.173 -1.5956  1.5809  1.4487
 3570TIP3   OH232124   4.591   2.416  14.588 -0.3628  0.0450 -0.3460
 3570TIP3    H132125   4.665   2.387  14.640 -0.0266  0.6355 -0.4819
 3570TIP3    H232126   4.565   2.340  14.537 -1.5935 -0.9866  1.6899
 3571TIP3   OH232127   4.991   0.878   0.855  0.0758  0.2627 -0.0864
 3571TIP3    H132128   5.082   0.899   0.831  0.3756  0.6355  1.2784
 3571TIP3    H232129   4.944   0.960   0.841  0.1689  0.3661  0.1958
 3572TIP3   OH232130   3.417   4.470   4.939 -0.1239  0.0132  0.2502
 3572TIP3    H132131   3.487   4.425   4.893 -0.1479 -1.3386  1.4630
 3572TIP3    H232132   3.394   4.544   4.883  2.3914  0.5992 -0.0956
 3573TIP3   OH232133   5.161   1.305   0.120  0.2113 -0.4488 -0.1140
 3573TIP3    H132134   5.174   1.393   0.086  1.1842 -0.3037  0.6058
 3573TIP3    H232135   5.145   1.252   0.042 -1.0854  0.4663 -0.5035
 3574TIP3   OH232136   0.375   0.756  14.460  0.0642 -1.1250 -0.0238
 3574TIP3    H132137   0.301   0.810  14.435 -1.3493 -2.7630  0.4552
 3574TIP3    H232138   0.450   0.797  14.417 -0.8110  1.4951  0.7496
 3575TIP3   OH232139   0.673   2.035   2.142 -0.1692 -0.4496 -0.0505
 3575TIP3    H132140   0.655   2.070   2.055  1.3869 -0.8064 -0.5616
 3575TIP3    H232141   0.736   1.964   2.126 -0.1965 -0.8147  1.3285
 3576TIP3   OH232142   1.947   2.374  11.530  0.0973 -0.3512  0.5165
 3576TIP3    H132143   1.952   2.448  11.591 -1.2918  1.2157 -1.1573
 3576TIP3    H232144   1.900   2.306  11.579  0.6936  0.1532  1.8229
 3577TIP3   OH232145   4.166   6.263   0.252 -0.0953  0.3172 -0.2160
 3577TIP3    H132146   4.220   6.237   0.326 -0.5016  1.4981  0.5365
 3577TIP3    H232147   4.112   6.335   0.286 -2.0540 -0.7158 -0.9485
 3578TIP3   OH232148   3.879   2.509   5.221  0.1217 -0.2923 -0.2789
 3578TIP3    H132149   3.845   2.581   5.167 -2.1286 -0.8599  0.2827
 3578TIP3    H232150   3.852   2.531   5.310  0.6990 -1.1212  0.1141
 3579TIP3   OH232151   5.524   4.559  12.032 -0.2006 -0.1478  0.4313
 3579TIP3    H132152   5.459   4.572  12.101 -0.2100 -0.8863  0.5751
 3579TIP3    H232153   5.585   4.495  12.068  0.5709  0.4896  0.2694
 3580TIP3   OH232154   3.228   6.220  16.411  0.5849  0.0315 -0.0009
 3580TIP3    H132155   3.202   6.247  16.323  2.2494 -1.2575 -0.9724
 3580TIP3    H232156   3.316   6.257  16.422  0.8619 -0.7780  0.6293
 3581TIP3   OH232157   4.863   5.784   0.263  0.3245  0.0634  0.2525
 3581TIP3    H132158   4.771   5.772   0.241  0.4482 -0.2325 -0.1200
 3581TIP3    H232159   4.872   5.877   0.284 -0.1173  0.0333  0.5750
 3582TIP3   OH232160   4.009   5.857   4.168 -0.0953 -0.7025 -0.3758
 3582TIP3    H132161   3.987   5.926   4.105 -0.9757  1.4186  2.0844
 3582TIP3    H232162   3.946   5.787   4.150 -0.5060 -0.0523 -1.6419
 3583TIP3   OH232163   2.693   5.855   4.796 -0.3782  0.3932  0.2694
 3583TIP3    H132164   2.773   5.867   4.745 -0.7831  1.3205 -0.1641
 3583TIP3    H232165   2.625   5.842   4.731 -1.4203  4.4055  0.2840
 3584TIP3   OH232166   6.258   2.400  14.298  0.1729  0.1945  0.2071
 3584TIP3    H132167   6.339   2.444  14.272 -0.4380  1.2978  0.1359
 3584TIP3    H232168   6.195   2.422  14.229 -0.7207  0.9742  1.2302
 3585TIP3   OH232169   2.849   4.488  14.533  0.2163  0.4304 -0.0997
 3585TIP3    H132170   2.883   4.527  14.452 -0.7079  1.2254 -0.1217
 3585TIP3    H232171   2.890   4.401  14.537  0.7115  0.6022 -1.1212
 3586TIP3   OH232172   2.219   6.390  15.511 -0.8276  0.7940  0.0950
 3586TIP3    H132173   2.185   6.461  15.564 -0.3493  0.3362  1.0476
 3586TIP3    H232174   2.232   6.428  15.425 -0.6611  1.8362  0.5669
 3587TIP3   OH232175   0.528   6.741  16.840 -0.6130  0.1311 -0.4393
 3587TIP3    H132176   0.584   6.760  16.914  0.2798 -1.9023 -0.5298
 3587TIP3    H232177   0.447   6.790  16.858  0.1315  0.8618  1.1004
 3588TIP3   OH232178   0.242   1.455   4.646  0.0211  0.2251 -0.2420
 3588TIP3    H132179   0.327   1.492   4.668 -0.0921  0.0693  0.4872
 3588TIP3    H232180   0.185   1.482   4.718  0.0739 -1.8500  0.6655
 3589TIP3   OH232181   0.804   1.179  12.742  0.3414 -0.4167  0.0583
 3589TIP3    H132182   0.760   1.213  12.664  0.2071 -0.0678  0.2825
 3589TIP3    H232183   0.859   1.252  12.772  0.5646 -0.6273  0.1583
 3590TIP3   OH232184   1.514   5.375  14.656  0.1243 -0.2517  0.0033
 3590TIP3    H132185   1.553   5.420  14.730  2.7540 -1.0813 -0.7802
 3590TIP3    H232186   1.535   5.283  14.669 -0.6643 -0.6026 -1.0378
 3591TIP3   OH232187   2.721   3.920  16.501  0.1851 -0.5622 -0.3212
 3591TIP3    H132188   2.639   3.967  16.515  0.4168 -0.3361  0.2719
 3591TIP3    H232189   2.753   3.953  16.417  0.2250  0.1654 -0.0265
 3592TIP3   OH232190   5.059   5.515  17.174  0.2274  1.1026 -0.2297
 3592TIP3    H132191   5.072   5.442  17.234  1.9898  0.9019 -0.7979
 3592TIP3    H232192   4.989   5.486  17.115  1.1715 -0.3298 -0.7014
 3593TIP3   OH232193   4.829   0.164  12.698 -0.4760 -0.4778 -0.2852
 3593TIP3    H132194   4.802   0.248  12.734  0.7585 -0.3691  0.4405
 3593TIP3    H232195   4.841   0.181  12.604 -2.0394 -0.3351 -0.4788
 3594TIP3   OH232196   0.818   1.368   5.386 -0.5084 -0.1853  0.5574
 3594TIP3    H132197   0.805   1.462   5.398  0.9179 -0.0275  1.0796
 3594TIP3    H232198   0.773   1.328   5.461  0.6395  0.2443  1.5166
 3595TIP3   OH232199   1.534   4.131  11.773  0.3744  0.4155 -0.3880
 3595TIP3    H132200   1.595   4.058  11.767  0.6815  0.6993 -0.7301
 3595TIP3    H232201   1.523   4.145  11.868 -2.5400 -2.4150 -0.1469
 3596TIP3   OH232202   6.002   0.990   5.488 -0.2698 -0.3339 -0.1773
 3596TIP3    H132203   6.045   0.924   5.434 -1.0027 -0.3662 -0.7424
 3596TIP3    H232204   6.073   1.046   5.520  0.3570 -1.3695  0.2848
 3597TIP3   OH232205   5.717   1.766   0.700  0.0595 -0.3416 -0.5493
 3597TIP3    H132206   5.810   1.745   0.698 -0.0510 -0.8973 -0.0188
 3597TIP3    H232207   5.710   1.849   0.653  0.7916 -0.4108 -0.7829
 3598TIP3   OH232208   2.581   3.435  16.401  0.4734  0.2000  0.5206
 3598TIP3    H132209   2.492   3.446  16.366  0.2587 -2.4658 -0.0187
 3598TIP3    H232210   2.598   3.516  16.448 -2.0089  1.0602  0.1254
 3599TIP3   OH232211   3.599   3.192  10.794 -0.5290  0.2904  0.1449
 3599TIP3    H132212   3.549   3.267  10.760 -0.8424 -1.3227 -3.4813
 3599TIP3    H232213   3.534   3.139  10.839 -0.3078  2.0339  2.7510
 3600TIP3   OH232214   3.641   0.564   5.641 -0.0675 -0.2829  0.1675
 3600TIP3    H132215   3.709   0.501   5.616 -0.3459 -0.2186 -0.7848
 3600TIP3    H232216   3.595   0.522   5.714 -0.3811 -1.2831 -0.5820
 3601TIP3   OH232217   0.424   5.596   0.803  0.2189  0.4473 -0.1028
 3601TIP3    H132218   0.381   5.586   0.888  2.2180 -0.1204  0.9194
 3601TIP3    H232219   0.476   5.676   0.812 -0.3165  0.9402 -1.1848
 3602TIP3   OH232220   4.015   3.962   0.709  0.5136 -0.5159 -0.5595
 3602TIP3    H132221   4.073   3.979   0.784 -0.6725 -0.1878  0.3287
 3602TIP3    H232222   4.072   3.968   0.633  1.1727  2.6641  0.0261
 3603TIP3   OH232223   6.634   6.518   3.673 -0.5950  0.1727  0.6639
 3603TIP3    H132224   6.572   6.478   3.734 -0.2641  0.4757  1.2095
 3603TIP3    H232225   6.696   6.448   3.652  0.3392  0.5249  2.0899
 3604TIP3   OH232226   5.389   0.359   0.812 -0.0481 -0.5631 -0.0886
 3604TIP3    H132227   5.407   0.271   0.843  0.4140 -0.1771  0.7563
 3604TIP3    H232228   5.332   0.398   0.878 -1.6958 -0.7877 -1.3066
 3605TIP3   OH232229   2.691   1.773  13.932 -0.1970  0.0021 -0.5197
 3605TIP3    H132230   2.603   1.734  13.938  0.2087 -1.0449 -1.1241
 3605TIP3    H232231   2.738   1.717  13.871  0.7825  0.7891 -0.5107
 3606TIP3   OH232232   5.295   6.571   4.557  0.1600  0.0533 -0.2024
 3606TIP3    H132233   5.329   6.587   4.469 -0.3321 -1.2157 -0.6417
 3606TIP3    H232234   5.222   6.631   4.566  0.6501  0.6845 -0.3926
 3607TIP3   OH232235   5.390   6.021  11.351 -0.1409 -0.3827 -0.1336
 3607TIP3    H132236   5.302   6.058  11.350  0.1077  0.2575  0.4944
 3607TIP3    H232237   5.389   5.960  11.425 -0.2113 -0.7770 -0.4570
 3608TIP3   OH232238   1.477   5.975  11.550  0.2937  0.1613  0.1957
 3608TIP3    H132239   1.396   5.996  11.596 -0.0550  0.3471 -0.4958
 3608TIP3    H232240   1.544   5.978  11.618 -0.2320  0.3063  0.7171
 3609TIP3   OH232241   5.679   6.041  16.672 -0.2170 -0.2190 -0.3258
 3609TIP3    H132242   5.607   6.014  16.729 -0.4731  0.7337 -0.1832
 3609TIP3    H232243   5.735   5.964  16.666 -1.0534 -0.8631 -0.1390
 3610TIP3   OH232244   2.246   1.162  16.963  0.5424  0.1392  0.2602
 3610TIP3    H132245   2.270   1.252  16.942  1.4046 -0.5513 -2.0210
 3610TIP3    H232246   2.258   1.155  17.058  1.3564  2.1497  0.3421
 3611TIP3   OH232247   5.562   3.741   5.306  0.5317  0.0657 -0.2621
 3611TIP3    H132248   5.610   3.773   5.382 -0.7225  1.5371 -0.0433
 3611TIP3    H232249   5.491   3.804   5.294 -2.4276 -2.8280  0.5032
 3612TIP3   OH232250   1.999   6.736   2.360  0.7419  0.0745  0.2309
 3612TIP3    H132251   2.039   6.661   2.405 -2.9391 -2.2976 -0.0613
 3612TIP3    H232252   1.911   6.707   2.339 -0.6863  4.3234 -0.5758
 3613TIP3   OH232253   2.348   0.251   0.533 -0.1466  0.0815  0.3073
 3613TIP3    H132254   2.267   0.269   0.486  0.2178 -1.6415 -1.0726
 3613TIP3    H232255   2.346   0.157   0.550  1.2662  0.1216  0.8260
 3614TIP3   OH232256   0.192   3.075   5.969  0.6867 -0.3726 -0.7274
 3614TIP3    H132257   0.153   3.092   5.883 -0.1084 -1.8065 -0.6790
 3614TIP3    H232258   0.126   3.107   6.031  0.7898 -0.3156 -0.6475
 3615TIP3   OH232259   0.344   2.391  16.011 -0.2539  0.1624 -0.0671
 3615TIP3    H132260   0.313   2.373  16.100 -0.1482 -1.4788 -0.3307
 3615TIP3    H232261   0.359   2.305  15.973  0.5204  0.8527 -1.4018
 3616TIP3   OH232262   4.809   6.552  14.759  0.4877 -0.4601 -0.1941
 3616TIP3    H132263   4.741   6.605  14.718 -1.3792 -1.7499  1.0753
 3616TIP3    H232264   4.786   6.462  14.735  2.2968 -0.8897 -0.4690
 3617TIP3   OH232265   3.522   2.515  14.306 -0.4860  0.7116 -0.0669
 3617TIP3    H132266   3.464   2.517  14.229  0.3257  1.0477 -0.6865
 3617TIP3    H232267   3.468   2.551  14.377 -1.8562 -1.2866 -0.0079
 3618TIP3   OH232268   0.015   4.111   0.169 -0.2619 -0.0314  0.5073
 3618TIP3    H132269  -0.034   4.028   0.167 -0.9901  0.3604  1.2591
 3618TIP3    H232270   0.021   4.138   0.077 -0.3148 -0.7456  0.2893
 3619TIP3   OH232271   6.235   3.005  12.726 -0.2660 -0.9671 -0.0170
 3619TIP3    H132272   6.278   3.042  12.802  1.5556 -1.0785 -0.9231
 3619TIP3    H232273   6.192   3.079  12.683  1.2481 -0.3080 -0.4691
 3620TIP3   OH232274   3.745   6.763  11.673 -0.1503 -1.1634 -0.1169
 3620TIP3    H132275   3.768   6.837  11.729  0.5483 -0.9821 -0.6285
 3620TIP3    H232276   3.689   6.800  11.605  1.8260 -0.6542 -1.5604
 3621TIP3   OH232277   0.574   0.002   3.822  0.3340  0.5319  0.1502
 3621TIP3    H132278   0.557  -0.017   3.914  1.7642 -1.4137  0.0761
 3621TIP3    H232279   0.498  -0.031   3.775 -0.8473  2.3971  0.6481
 3622TIP3   OH232280   3.940   4.305   4.818  0.0410 -0.2807 -0.0993
 3622TIP3    H132281   3.967   4.266   4.902  1.7589  1.1546  0.0741
 3622TIP3    H232282   3.996   4.261   4.753  1.0392  0.8913 -0.0617
 3623TIP3   OH232283   5.804   6.462  13.768 -0.4535  0.1359 -0.6753
 3623TIP3    H132284   5.826   6.376  13.733  0.0735 -0.5447  1.2218
 3623TIP3    H232285   5.709   6.465  13.770 -0.4726 -0.3311 -0.9141
 3624TIP3   OH232286   0.128   1.803   4.181 -0.5210 -0.0697 -0.2626
 3624TIP3    H132287   0.191   1.797   4.110 -0.5656  1.2394 -0.4357
 3624TIP3    H232288   0.181   1.800   4.261 -0.3302  0.0129 -0.3855
 3625TIP3   OH232289   2.424   0.300  15.871 -0.5574 -0.1215 -0.9589
 3625TIP3    H132290   2.453   0.257  15.951  0.0673  1.1037 -0.5025
 3625TIP3    H232291   2.378   0.231  15.823  1.7585 -1.7422 -1.0295
 3626TIP3   OH232292   4.560   0.223   6.649 -0.2769  0.0775 -0.1321
 3626TIP3    H132293   4.467   0.231   6.629  0.0112  1.0334 -1.1771
 3626TIP3    H232294   4.576   0.291   6.715 -0.0072  1.0241 -1.1474
 3627TIP3   OH232295   5.655   4.500  13.008 -0.4242 -0.1900  0.4106
 3627TIP3    H132296   5.559   4.490  13.010 -0.3331 -1.8767 -1.0385
 3627TIP3    H232297   5.670   4.593  13.025 -2.2952  0.0505  1.0167
 3628TIP3   OH232298   3.084   4.703  10.536  0.1659 -0.1244 -0.5358
 3628TIP3    H132299   3.114   4.635  10.597 -0.0526  0.6949  0.5217
 3628TIP3    H232300   3.037   4.655  10.468  0.7927 -1.1095 -0.3072
 3629TIP3   OH232301   0.470   4.697  14.888 -0.3330  0.1402  0.4891
 3629TIP3    H132302   0.490   4.776  14.938 -0.7758 -0.6719  2.0187
 3629TIP3    H232303   0.396   4.721  14.833  1.1987  1.5439 -1.1016
 3630TIP3   OH232304   4.255   4.899   3.425  0.1821 -0.2744 -0.2348
 3630TIP3    H132305   4.277   4.841   3.498  0.7512 -0.0282 -0.2061
 3630TIP3    H232306   4.196   4.964   3.462 -0.6605 -0.9709 -0.3213
 3631TIP3   OH232307   2.710   1.033  15.821  0.0004 -0.3065  0.3473
 3631TIP3    H132308   2.766   0.988  15.884  0.8572 -1.9986 -1.5077
 3631TIP3    H232309   2.626   1.043  15.865  1.2696  0.9409  2.6520
 3632TIP3   OH232310   4.046   1.177  12.934  0.5273  0.4351  0.0179
 3632TIP3    H132311   3.969   1.121  12.921 -0.3033  1.7716 -1.1289
 3632TIP3    H232312   4.119   1.116  12.938 -0.3979 -0.7846 -0.6908
 3633TIP3   OH232313   2.043   0.441  14.473  0.5480 -0.2585  0.7703
 3633TIP3    H132314   2.058   0.518  14.417  0.2312  0.4688  1.6657
 3633TIP3    H232315   1.977   0.390  14.426 -0.4859  0.8680  0.9681
 3634TIP3   OH232316   3.469   2.702   2.195  0.2281  0.5595 -0.4967
 3634TIP3    H132317   3.463   2.635   2.127 -0.7079 -0.5916  0.6481
 3634TIP3    H232318   3.563   2.713   2.210  0.4060 -0.2442 -0.9621
 3635TIP3   OH232319   6.239   4.278   0.476 -0.1378  0.3570 -0.8958
 3635TIP3    H132320   6.215   4.260   0.386 -0.6949 -1.1303 -0.4859
 3635TIP3    H232321   6.319   4.330   0.470 -0.7808  1.2250 -2.2351
 3636TIP3   OH232322   2.107   1.902  15.130 -0.0460 -0.4115 -0.7184
 3636TIP3    H132323   2.198   1.873  15.131 -0.1166 -0.6375 -0.3648
 3636TIP3    H232324   2.108   1.985  15.083  0.6821  0.7124  1.2006
 3637TIP3   OH232325   2.035   2.397  11.264  0.0122 -0.1041 -0.1312
 3637TIP3    H132326   2.003   2.399  11.354  0.3680 -0.2142 -0.0005
 3637TIP3    H232327   2.014   2.484  11.230  1.1299  0.4383  0.5030
 3638TIP3   OH232328   3.135   2.296   2.522 -0.0175  0.7695 -0.3913
 3638TIP3    H132329   3.107   2.248   2.444 -0.0074  0.3048 -0.1119
 3638TIP3    H232330   3.216   2.340   2.496 -1.1903  2.4853 -1.3564
 3639TIP3   OH232331   0.258   0.336   3.245 -0.3063 -0.3748  0.1955
 3639TIP3    H132332   0.255   0.245   3.275  3.7463 -0.3392  1.3829
 3639TIP3    H232333   0.327   0.337   3.178 -1.7195  1.5203 -1.3387
 3640TIP3   OH232334   4.000   3.435   6.005 -0.1809 -0.1139  0.0919
 3640TIP3    H132335   3.999   3.340   6.007 -0.6444 -0.1064  0.5476
 3640TIP3    H232336   3.960   3.461   6.089 -0.8421  0.4747 -0.3905
 3641TIP3   OH232337   2.857   1.495   6.161  0.2340 -0.6811  0.5193
 3641TIP3    H132338   2.929   1.451   6.206 -0.9592 -0.7538  2.5064
 3641TIP3    H232339   2.804   1.532   6.232  0.4028  2.7859 -0.9913
 3642TIP3   OH232340   3.779   2.098   4.613  0.0782 -0.0323 -0.1842
 3642TIP3    H132341   3.786   2.002   4.621  0.9036 -0.1840 -2.2720
 3642TIP3    H232342   3.688   2.114   4.591 -0.2746 -0.2356  1.0410
 3643TIP3   OH232343   0.440   6.315   2.237 -0.3434 -0.2797 -0.2363
 3643TIP3    H132344   0.489   6.237   2.263  1.6791  0.8247 -0.5176
 3643TIP3    H232345   0.507   6.374   2.202 -2.0861  0.7834 -1.9696
 3644TIP3   OH232346   1.636   5.859   4.453  0.1460  0.5390 -0.0706
 3644TIP3    H132347   1.567   5.803   4.417  2.2973 -1.0097 -2.1107
 3644TIP3    H232348   1.618   5.946   4.417 -0.5827  0.0974 -0.8091
 3645TIP3   OH232349   5.987   5.104   2.142  0.6734  0.3242  0.1713
 3645TIP3    H132350   5.948   5.034   2.194 -1.4468  1.3866  0.1148
 3645TIP3    H232351   6.021   5.060   2.064 -2.4785 -0.5108 -0.8769
 3646TIP3   OH232352   6.687   4.943   3.481 -0.6869 -0.2959 -0.0299
 3646TIP3    H132353   6.722   4.982   3.401  1.5440 -0.3558  0.8297
 3646TIP3    H232354   6.628   4.874   3.451 -0.2985  0.0234 -1.6128
 3647TIP3   OH232355   5.007   0.003   4.208 -0.4018  0.2647 -0.3557
 3647TIP3    H132356   4.971   0.020   4.295 -2.3640 -3.1843 -0.2973
 3647TIP3    H232357   5.101  -0.002   4.221 -0.7248 -1.7891  2.0209
 3648TIP3   OH232358   0.579   4.237   5.284 -0.6609 -0.3097  0.0561
 3648TIP3    H132359   0.651   4.296   5.304  0.0946 -0.2497 -2.4381
 3648TIP3    H232360   0.545   4.210   5.369  0.2513  2.1294  1.2733
 3649TIP3   OH232361   5.735   6.767  11.155 -0.1443  0.2328  0.1831
 3649TIP3    H132362   5.807   6.831  11.155 -0.0759  0.2003  1.9164
 3649TIP3    H232363   5.778   6.683  11.173 -0.3391 -0.1978 -1.2478
 3650TIP3   OH232364   5.297   0.306   0.062  0.2624  0.1448  0.2295
 3650TIP3    H132365   5.390   0.312   0.041  0.5919 -0.5847  1.3692
 3650TIP3    H232366   5.292   0.233   0.124 -1.1938 -0.4253 -0.5248
 3651TIP3   OH232367   0.447   4.121   5.832 -0.3564 -0.0075 -0.3796
 3651TIP3    H132368   0.516   4.065   5.798  0.4748  0.4178  0.5555
 3651TIP3    H232369   0.403   4.068   5.898 -1.2590 -0.4496 -1.3187
 3652TIP3   OH232370   3.588   4.322  16.633 -0.0867  0.3391  0.4271
 3652TIP3    H132371   3.530   4.305  16.708 -1.3409  1.7109 -0.1810
 3652TIP3    H232372   3.674   4.293  16.663 -0.7606 -0.2192  1.9744
 3653TIP3   OH232373   4.160   3.774   3.774 -0.5873 -0.1258 -0.6060
 3653TIP3    H132374   4.255   3.781   3.783 -0.4999 -0.7252 -1.0382
 3653TIP3    H232375   4.143   3.795   3.682 -0.6876 -1.7314 -0.9801
 3654TIP3   OH232376   3.380   6.230   6.389  0.1677 -0.2992 -0.6178
 3654TIP3    H132377   3.325   6.254   6.463  0.1805  1.5274 -1.1517
 3654TIP3    H232378   3.470   6.236   6.424  0.1098 -1.3808 -0.2659
 3655TIP3   OH232379   1.089   0.605  13.469  0.1226 -0.1311  0.0720
 3655TIP3    H132380   1.079   0.574  13.379  0.9113 -0.9100  0.2395
 3655TIP3    H232381   1.170   0.564  13.500  0.2554  0.7140  0.8972
 3656TIP3   OH232382   4.017   5.471  17.203 -0.3557 -0.3402 -0.1061
 3656TIP3    H132383   4.067   5.429  17.273 -0.6165 -0.2617  0.1258
 3656TIP3    H232384   4.056   5.436  17.123 -0.8228 -1.3287  0.0874
 3657TIP3   OH232385   3.637   6.532   4.014  0.4717 -0.1379 -0.6488
 3657TIP3    H132386   3.649   6.625   3.993  1.3180  0.0613  0.5592
 3657TIP3    H232387   3.655   6.486   3.932 -2.8487  0.8611 -2.1008
 3658TIP3   OH232388   1.224   6.604   3.598  0.0359  0.6148  0.3951
 3658TIP3    H132389   1.298   6.566   3.645 -1.0884  0.4429  2.1128
 3658TIP3    H232390   1.157   6.535   3.599 -0.3448  0.9428 -0.6939
 3659TIP3   OH232391   6.529   6.496   3.972 -0.2683  0.2123  0.2676
 3659TIP3    H132392   6.538   6.421   4.030 -0.5345 -0.9619 -1.1653
 3659TIP3    H232393   6.612   6.499   3.924 -1.1059 -0.5849 -1.2903
 3660TIP3   OH232394   3.655   2.194  14.815 -0.2084 -0.0426  0.5146
 3660TIP3    H132395   3.605   2.131  14.762  1.0348  0.3811 -1.2358
 3660TIP3    H232396   3.726   2.222  14.758  0.3452  1.5658  1.9285
 3661TIP3   OH232397   0.133   1.068  11.155  0.5442 -0.3039  0.0126
 3661TIP3    H132398   0.227   1.073  11.139  0.7702 -1.1174  0.9850
 3661TIP3    H232399   0.124   1.069  11.250 -0.3424 -1.4508 -0.0294
 3662TIP3   OH232400   4.932   5.655   3.954  0.5790  0.3928  0.5832
 3662TIP3    H132401   4.936   5.692   3.866  0.5184 -0.2617  0.2999
 3662TIP3    H232402   4.962   5.565   3.944  1.3622  0.5553  1.3800
 3663TIP3   OH232403   6.321   5.165  17.162  0.5436  0.1770 -0.1686
 3663TIP3    H132404   6.348   5.076  17.186  0.3432  0.1839  0.0900
 3663TIP3    H232405   6.225   5.161  17.158  0.1330  1.3115  3.8492
 3664TIP3   OH232406   5.620   0.837  16.131  0.2341 -0.4994  0.1236
 3664TIP3    H132407   5.610   0.904  16.198 -1.0550  1.0170 -1.5001
 3664TIP3    H232408   5.714   0.824  16.123  0.4779  0.7536  0.8223
 3665TIP3   OH232409   6.745   1.629   0.434  0.0082 -0.3692  0.5307
 3665TIP3    H132410   6.695   1.692   0.381  0.2930 -0.9909 -0.5029
 3665TIP3    H232411   6.775   1.680   0.509 -2.3271  0.0006  1.3222
 3666TIP3   OH232412   2.426   5.055   1.671  0.2650 -0.0920  0.6833
 3666TIP3    H132413   2.516   5.063   1.702  0.3109 -1.9308  1.1511
 3666TIP3    H232414   2.396   4.972   1.707 -1.1691 -0.1763 -0.6002
 3667TIP3   OH232415   0.218   1.023   3.157  0.3235  0.4047  0.0720
 3667TIP3    H132416   0.124   1.008   3.167  0.7458 -2.4152  0.4989
 3667TIP3    H232417   0.236   1.008   3.065  0.4996  0.0696  0.1619
 3668TIP3   OH232418   4.630   4.978  13.546 -0.1258 -0.6963 -0.3964
 3668TIP3    H132419   4.577   5.051  13.515 -0.5328 -0.7241  0.2112
 3668TIP3    H232420   4.660   5.005  13.632  0.4169 -0.9029 -0.5167
 3669TIP3   OH232421   1.332   2.603  13.432 -0.2545  0.2907 -0.3920
 3669TIP3    H132422   1.283   2.528  13.466  2.1957 -1.2987 -0.0895
 3669TIP3    H232423   1.328   2.594  13.337  1.1643 -1.1201 -0.3668
 3670TIP3   OH232424   5.743   2.837  14.372  0.2296  0.6276  0.0300
 3670TIP3    H132425   5.770   2.908  14.314  0.0398  0.8952  0.2686
 3670TIP3    H232426   5.807   2.839  14.444  0.9948 -0.2626 -0.5985
 3671TIP3   OH232427   4.217   0.993  13.054 -0.3488  0.5039  0.0026
 3671TIP3    H132428   4.211   0.925  12.986  1.7342  0.5286 -0.2548
 3671TIP3    H232429   4.158   0.962  13.123  0.6648 -1.7016 -0.0208
 3672TIP3   OH232430   6.054   4.533  16.191  0.4000  0.0141 -0.7028
 3672TIP3    H132431   6.036   4.483  16.270  0.3184 -1.4626 -1.6294
 3672TIP3    H232432   6.097   4.613  16.223 -1.6248  0.5338  1.0013
 3673TIP3   OH232433   3.547   3.557   5.292  0.1474 -0.1754 -0.6000
 3673TIP3    H132434   3.456   3.588   5.295  0.2604  0.2130 -1.0590
 3673TIP3    H232435   3.594   3.618   5.349  0.1533 -0.2594 -0.5159
 3674TIP3   OH232436   2.463   5.187   5.155  0.1767 -0.4312  0.2731
 3674TIP3    H132437   2.399   5.199   5.085  0.4081 -0.1271  0.1091
 3674TIP3    H232438   2.505   5.103   5.135 -2.2955 -2.2473  2.0972
 3675TIP3   OH232439   2.709   3.757   3.543  0.7429 -0.0094 -0.1778
 3675TIP3    H132440   2.781   3.747   3.605  0.2312 -2.8584  0.1164
 3675TIP3    H232441   2.685   3.667   3.520 -1.7453  0.8768 -1.4097
 3676TIP3   OH232442   4.361   4.828  14.734 -0.6698  0.3089  0.4497
 3676TIP3    H132443   4.282   4.813  14.787  0.5008 -1.7351  1.7361
 3676TIP3    H232444   4.433   4.824  14.796  0.6482 -0.6015 -1.0578
 3677TIP3   OH232445   1.624   5.141   1.872 -0.0454  0.3488 -0.3974
 3677TIP3    H132446   1.649   5.054   1.902  1.6901  0.7893 -0.4654
 3677TIP3    H232447   1.539   5.127   1.828 -0.4073 -1.0638  0.6686
 3678TIP3   OH232448   1.343   2.457   4.795 -0.6428  0.5495  0.3432
 3678TIP3    H132449   1.384   2.468   4.881 -0.8331  0.7435  0.4094
 3678TIP3    H232450   1.314   2.545   4.770  1.4642  0.9428 -0.9734
 3679TIP3   OH232451   4.821   5.628  16.884 -0.2307  0.1242 -0.5458
 3679TIP3    H132452   4.885   5.695  16.909 -0.0730 -0.2623  0.1122
 3679TIP3    H232453   4.854   5.547  16.924 -2.7917  0.4767  2.6910
 3680TIP3   OH232454   4.646   5.421   2.076  0.4533 -0.0569 -0.2465
 3680TIP3    H132455   4.550   5.417   2.084  0.2963 -0.4251 -1.8216
 3680TIP3    H232456   4.678   5.406   2.164 -0.9286 -2.0584  0.0064
 3681TIP3   OH232457   3.843   5.474   5.056  0.0208  0.2780  0.7289
 3681TIP3    H132458   3.844   5.521   4.973 -0.9554 -0.6465  0.1812
 3681TIP3    H232459   3.936   5.470   5.082  0.5020 -0.5467 -0.9613
 3682TIP3   OH232460   3.148   5.019   6.226  0.1683 -0.6476 -0.1449
 3682TIP3    H132461   3.211   4.950   6.209 -1.0864 -2.2282  1.2876
 3682TIP3    H232462   3.074   4.975   6.268 -0.2092  1.6949  1.9142
 3683TIP3   OH232463   5.082   5.530  13.616 -0.4352  0.1171  0.0100
 3683TIP3    H132464   5.160   5.522  13.561 -0.9754 -2.0729 -0.5347
 3683TIP3    H232465   5.008   5.524  13.555 -1.0461 -1.7947  0.8550
 3684TIP3   OH232466   5.365   1.368   3.693 -0.2218 -0.3461 -0.7014
 3684TIP3    H132467   5.396   1.278   3.682  0.8903 -0.1236  0.3634
 3684TIP3    H232468   5.325   1.390   3.609  0.2361 -1.5519 -1.2610
 3685TIP3   OH232469   2.808   6.392   3.895  0.0556 -0.0809 -0.2941
 3685TIP3    H132470   2.719   6.361   3.881 -0.0997  0.8167 -1.4528
 3685TIP3    H232471   2.852   6.318   3.938 -1.1696 -0.6184  0.1037
 3686TIP3   OH232472   2.106   1.997  12.054 -0.1551 -0.3888  0.0116
 3686TIP3    H132473   2.197   1.970  12.058 -0.4696 -1.6403 -0.7422
 3686TIP3    H232474   2.101   2.053  11.976 -0.0712 -0.4676 -0.0489
 3687TIP3   OH232475   3.225   3.565  14.974  0.0396 -0.2658 -0.5890
 3687TIP3    H132476   3.321   3.565  14.971  0.1731  3.2546 -1.0375
 3687TIP3    H232477   3.199   3.631  14.909 -2.3930  2.0584  2.3959
 3688TIP3   OH232478   1.481   2.054   5.291  0.5013 -0.5785  0.5885
 3688TIP3    H132479   1.528   2.133   5.318  1.3401 -0.6332 -0.6406
 3688TIP3    H232480   1.546   1.984   5.297 -0.0710 -1.0749  1.0905
 3689TIP3   OH232481   5.313   1.354  15.350 -0.2353  0.1213 -0.8507
 3689TIP3    H132482   5.294   1.261  15.345 -0.6092  0.1624 -0.3363
 3689TIP3    H232483   5.398   1.359  15.394 -0.0096  0.0113 -1.2691
 3690TIP3   OH232484   0.778   6.718   6.044  0.0548 -0.0687  0.6041
 3690TIP3    H132485   0.844   6.649   6.060 -0.0234 -0.2618  0.1021
 3690TIP3    H232486   0.819   6.798   6.078  0.2388 -0.3243  0.9898
 3691TIP3   OH232487   3.973   1.798  13.400 -0.0108  0.2889  0.1452
 3691TIP3    H132488   4.047   1.739  13.414 -1.1999 -1.5861 -1.0108
 3691TIP3    H232489   4.012   1.884  13.387  2.0529 -0.7973 -1.3515
 3692TIP3   OH232490   5.284   4.556  15.953 -0.4057  0.6072  0.1495
 3692TIP3    H132491   5.357   4.606  15.990 -1.2112  1.0622  1.1738
 3692TIP3    H232492   5.312   4.464  15.960  0.1734  0.7883  0.2808
 3693TIP3   OH232493   4.004   2.697  11.741  0.2766 -0.6533 -0.4212
 3693TIP3    H132494   3.987   2.783  11.778  0.0104 -2.1393  3.2569
 3693TIP3    H232495   3.919   2.653  11.742  0.7900 -1.6736 -0.2178
 3694TIP3   OH232496   5.931   6.706  17.012  0.4412 -0.6918 -0.6171
 3694TIP3    H132497   5.983   6.785  17.022 -1.8016  0.8275 -0.1283
 3694TIP3    H232498   5.895   6.690  17.100  2.1790 -3.3208 -0.2681
 3695TIP3   OH232499   4.924   5.728  14.687  0.3782  0.5710  0.1873
 3695TIP3    H132500   4.830   5.743  14.673  0.8846  3.1468 -1.1680
 3695TIP3    H232501   4.930   5.636  14.714 -2.6209  0.6744  1.6123
 3696TIP3   OH232502   3.358   5.435   0.259 -0.4511  0.3350  0.3797
 3696TIP3    H132503   3.426   5.457   0.324  0.3369  0.9015 -0.6000
 3696TIP3    H232504   3.408   5.406   0.182 -1.2398  2.1560 -0.8803
 3697TIP3   OH232505   4.247   2.023   6.043  0.1313  0.1949 -0.1160
 3697TIP3    H132506   4.186   2.035   6.115  1.1585  0.9268  0.6541
 3697TIP3    H232507   4.203   2.063   5.967 -1.9125 -2.4478 -0.4989
 3698TIP3   OH232508   6.665   0.166   1.103  0.2121  0.0317 -0.0627
 3698TIP3    H132509   6.631   0.096   1.048  0.1644  0.0473 -0.0538
 3698TIP3    H232510   6.758   0.148   1.111  0.5106  0.8234 -1.3413
 3699TIP3   OH232511   2.741   0.907   3.946 -0.1422  0.8534 -0.1804
 3699TIP3    H132512   2.820   0.889   3.997  0.6440  0.1430 -1.5964
 3699TIP3    H232513   2.671   0.862   3.995  0.3992  1.0529  0.8084
 3700TIP3   OH232514   1.589   2.191   3.816 -0.1301 -0.1806  0.5030
 3700TIP3    H132515   1.633   2.240   3.885  0.0364  2.2073 -1.1627
 3700TIP3    H232516   1.661   2.153   3.765 -0.1882 -0.4737  0.6383
 3701TIP3   OH232517   6.745   3.080   1.766 -0.3440  0.1113 -0.0621
 3701TIP3    H132518   6.677   3.036   1.818 -0.9879 -0.0939 -1.0589
 3701TIP3    H232519   6.707   3.166   1.746  0.2143  0.4825  0.4318
 3702TIP3   OH232520   6.337   0.504   3.070 -0.3993 -0.2321 -0.6581
 3702TIP3    H132521   6.414   0.488   3.015 -0.8889 -1.2412 -1.0769
 3702TIP3    H232522   6.273   0.544   3.011 -0.4510 -0.0688 -0.4908
 3703TIP3   OH232523   2.713   3.086  14.727  0.0058  0.2341 -0.1180
 3703TIP3    H132524   2.655   3.121  14.795 -0.1415 -0.0896 -0.0707
 3703TIP3    H232525   2.787   3.146  14.724  1.0868 -0.8721  1.8351
 3704TIP3   OH232526   0.042   5.987   4.823 -0.3596  0.4009 -0.0115
 3704TIP3    H132527   0.048   6.064   4.879 -0.4166  0.1900  0.2877
 3704TIP3    H232528  -0.002   6.018   4.744 -1.7736  0.3399  0.7316
 3705TIP3   OH232529   0.721   2.190  13.557 -0.2022  0.4386 -0.3857
 3705TIP3    H132530   0.651   2.221  13.499 -0.3235  0.5327 -0.1898
 3705TIP3    H232531   0.747   2.106  13.519 -0.1899  0.5605 -0.6521
 3706TIP3   OH232532   3.624   5.064   5.600 -0.1580  0.1582 -0.2602
 3706TIP3    H132533   3.636   5.087   5.692 -0.6290 -0.3389 -0.0719
 3706TIP3    H232534   3.654   4.974   5.593 -2.9958 -0.9202  0.1007
 3707TIP3   OH232535   2.880   3.937  17.159 -0.2356  0.6705  0.3714
 3707TIP3    H132536   2.926   3.997  17.217 -0.0325 -0.4000  1.3700
 3707TIP3    H232537   2.941   3.864  17.147 -0.8300  0.2352 -0.0670
 3708TIP3   OH232538   6.253   5.917  12.492  0.1209 -0.4236 -0.1349
 3708TIP3    H132539   6.174   5.936  12.542  0.1666 -2.4928  0.8286
 3708TIP3    H232540   6.239   5.960  12.408 -0.9712  1.2224  0.8389
 3709TIP3   OH232541   1.380   4.459   5.198 -0.4949 -0.2077  0.1322
 3709TIP3    H132542   1.287   4.473   5.182 -0.5449 -1.5944 -0.9039
 3709TIP3    H232543   1.418   4.547   5.196 -1.4408  0.1976 -1.7178
 3710TIP3   OH232544   5.115   1.667  14.271  0.0378  0.2697  0.1592
 3710TIP3    H132545   5.138   1.578  14.244  1.2743  0.5574  0.2119
 3710TIP3    H232546   5.101   1.660  14.366 -1.2193 -0.1200 -0.0353
 3711TIP3   OH232547   3.744   4.893  12.747 -0.2408  0.0687 -0.0897
 3711TIP3    H132548   3.744   4.797  12.747  0.7831  0.0180 -1.7698
 3711TIP3    H232549   3.674   4.918  12.687 -1.9643  0.4833  1.9736
 3712TIP3   OH232550   3.293   2.470  17.013 -0.1491  0.1081  0.1867
 3712TIP3    H132551   3.355   2.441  17.080  0.1980 -0.2007 -0.2593
 3712TIP3    H232552   3.335   2.547  16.974  0.7356 -0.9982 -1.1819
 3713TIP3   OH232553   3.990   1.308   4.821  0.3367 -0.2369  0.0677
 3713TIP3    H132554   4.072   1.269   4.789  0.3605 -0.2053  0.0900
 3713TIP3    H232555   3.975   1.264   4.905  1.2161  0.9390  0.8879
 3714TIP3   OH232556   5.243   2.715  13.643 -0.0994  0.5742 -0.1587
 3714TIP3    H132557   5.240   2.719  13.739  0.7718 -1.5184  0.0094
 3714TIP3    H232558   5.169   2.659  13.619  1.0226 -0.8241 -0.4930
 3715TIP3   OH232559   2.082   2.724  12.240  0.3216  0.1960  0.1185
 3715TIP3    H132560   2.061   2.787  12.309 -2.0467  0.9028 -1.1450
 3715TIP3    H232561   2.127   2.776  12.173  0.5517  0.0017  0.1200
 3716TIP3   OH232562   1.703   2.334   2.367  0.0061 -0.6325 -0.3867
 3716TIP3    H132563   1.676   2.252   2.407  0.0784 -0.1886  0.5831
 3716TIP3    H232564   1.777   2.311   2.312  0.7183 -1.0477  0.7244
 3717TIP3   OH232565   5.832   1.770   5.378 -0.0081  0.5945  0.1173
 3717TIP3    H132566   5.762   1.800   5.320 -1.3058  1.5281  2.0542
 3717TIP3    H232567   5.806   1.682   5.405  1.1655 -0.3073 -1.4962
 3718TIP3   OH232568   2.555   0.236  10.950  0.9589 -0.2356  0.2495
 3718TIP3    H132569   2.529   0.249  10.859 -2.5645  0.5221  1.2032
 3718TIP3    H232570   2.644   0.270  10.954  1.5138 -0.9193 -3.0060
 3719TIP3   OH232571   1.314   4.951  14.960 -0.0713 -0.5291 -0.5722
 3719TIP3    H132572   1.354   4.864  14.957 -0.2712 -0.7362  1.4243
 3719TIP3    H232573   1.222   4.935  14.979  0.0057  0.1116  0.4247
 3720TIP3   OH232574   2.974   2.156   1.910 -0.2175  0.3525 -0.3067
 3720TIP3    H132575   2.992   2.186   1.821 -0.8869  0.0694 -0.5497
 3720TIP3    H232576   2.879   2.160   1.918 -0.2457 -0.5882  0.0426
 3721TIP3   OH232577   1.116   6.612   3.355  0.0515 -0.3610 -0.0813
 3721TIP3    H132578   1.163   6.609   3.439  2.3494  2.7337 -1.0595
 3721TIP3    H232579   1.164   6.550   3.299  0.6036 -0.0007 -0.0120
 3722TIP3   OH232580   6.659   4.879   2.599 -0.6470  0.1880 -0.0864
 3722TIP3    H132581   6.644   4.785   2.603 -0.7692  0.2127  0.0381
 3722TIP3    H232582   6.571   4.917   2.591 -0.6041  0.2957 -0.0473
 3723TIP3   OH232583   4.255   3.272   1.698  0.2285  0.4927 -0.5351
 3723TIP3    H132584   4.248   3.364   1.726  0.3049  0.2378  0.3639
 3723TIP3    H232585   4.214   3.270   1.612 -0.4736  1.2292 -0.2358
 3724TIP3   OH232586   3.223   0.933   1.197 -0.1622 -0.2430  0.3238
 3724TIP3    H132587   3.128   0.923   1.185 -0.1349 -2.4900  1.4869
 3724TIP3    H232588   3.259   0.850   1.167  1.7356  1.3020 -2.0891
 3725TIP3   OH232589   3.709   6.424  17.023  0.2708  0.3338 -0.0825
 3725TIP3    H132590   3.745   6.375  16.949  0.5988 -0.4347  0.5630
 3725TIP3    H232591   3.660   6.358  17.073  0.2676  0.7805  0.5124
 3726TIP3   OH232592   5.194   3.604   0.681  0.1921  0.0723  0.1439
 3726TIP3    H132593   5.231   3.576   0.765 -1.2536 -1.5172  0.2924
 3726TIP3    H232594   5.252   3.675   0.652  1.3606 -0.0867  1.9423
 3727TIP3   OH232595   1.330   3.078   1.637  0.2893 -0.3425 -0.3668
 3727TIP3    H132596   1.349   2.987   1.659 -0.1795  0.1927  2.8084
 3727TIP3    H232597   1.244   3.095   1.677 -0.0885  1.2619 -1.7186
 3728TIP3   OH232598   6.570   2.662  14.548  0.0970  0.3260 -0.4132
 3728TIP3    H132599   6.533   2.750  14.557  1.9823  1.0336  1.3631
 3728TIP3    H232600   6.637   2.672  14.480 -0.1932  0.0803 -0.7335
 3729TIP3   OH232601   4.597   3.685   4.531 -0.2167  0.2420  0.2645
 3729TIP3    H132602   4.568   3.605   4.573  0.1160  0.1595  0.3382
 3729TIP3    H232603   4.530   3.750   4.554 -0.0289  0.2034  0.9301
 3730TIP3   OH232604   4.027   6.038   3.381  0.4627  0.0522  0.9431
 3730TIP3    H132605   4.002   5.985   3.305  3.9989 -1.1182  0.4073
 3730TIP3    H232606   3.949   6.040   3.435 -1.0839 -2.2765 -0.9694
 3731TIP3   OH232607   4.687   1.941   1.947  0.2620  0.1357 -0.0963
 3731TIP3    H132608   4.689   1.854   1.985 -1.4397 -0.9260 -2.1750
 3731TIP3    H232609   4.601   1.946   1.904 -0.2233  3.3093  0.9715
 3732TIP3   OH232610   4.707   3.098   5.659  0.8416  0.0466  0.3970
 3732TIP3    H132611   4.800   3.105   5.682  0.4071 -1.3904  2.8895
 3732TIP3    H232612   4.696   3.007   5.631 -0.0110 -0.0789  1.1095
 3733TIP3   OH232613   3.201   4.913  16.876  0.4530  0.3938  0.3379
 3733TIP3    H132614   3.225   4.946  16.962 -1.4897 -1.2643  1.6185
 3733TIP3    H232615   3.110   4.939  16.865  0.0416 -1.1862 -0.2629
 3734TIP3   OH232616   3.812   1.057  14.386 -0.1034 -0.6625 -0.1188
 3734TIP3    H132617   3.728   1.011  14.392  0.9086 -2.8288 -1.4793
 3734TIP3    H232618   3.844   1.037  14.298  2.1098 -0.3420  0.5697
 3735TIP3   OH232619   6.401   3.687   2.382  0.2397  0.4812  0.2493
 3735TIP3    H132620   6.331   3.710   2.444 -0.7924 -0.6160 -0.4462
 3735TIP3    H232621   6.362   3.702   2.296  2.0694  3.2177 -0.2369
 3736TIP3   OH232622   1.868   3.827  15.931  0.3567 -0.0525 -0.3853
 3736TIP3    H132623   1.836   3.791  16.014 -0.3659 -0.0200 -0.6406
 3736TIP3    H232624   1.791   3.825  15.873  0.2798  1.8381 -0.4209
 3737TIP3   OH232625   0.583   0.898  14.058 -0.0794  0.1054 -0.5739
 3737TIP3    H132626   0.531   0.848  13.994 -0.9726  0.8582 -0.4508
 3737TIP3    H232627   0.610   0.977  14.010  1.0270 -0.3032 -0.6570
 3738TIP3   OH232628   5.895   1.608  14.687  0.2201  0.0425  0.0496
 3738TIP3    H132629   5.989   1.587  14.687  0.7225  2.0506 -0.5425
 3738TIP3    H232630   5.869   1.600  14.779  1.5022  1.4407  0.5820
 3739TIP3   OH232631   0.165   3.543  15.168 -0.3798 -0.3448  0.1838
 3739TIP3    H132632   0.084   3.512  15.128  0.5588 -0.3893 -1.7600
 3739TIP3    H232633   0.150   3.637  15.182 -0.1133  0.0851 -2.0151
 3740TIP3   OH232634   2.968   3.790   5.725  0.4156 -0.4229 -0.2097
 3740TIP3    H132635   2.969   3.726   5.797  1.3702  0.2326  0.3862
 3740TIP3    H232636   2.876   3.796   5.699  0.0017 -0.4320  1.1876
 3741TIP3   OH232637   2.480   2.340  17.177  0.1134  0.3373  0.3252
 3741TIP3    H132638   2.395   2.338  17.221  0.3360 -0.6183  0.7518
 3741TIP3    H232639   2.462   2.306  17.089  0.1887 -0.7184  0.7000
 3742TIP3   OH232640   6.680   0.295  13.883  0.2074  0.0861 -0.5320
 3742TIP3    H132641   6.664   0.227  13.817  2.8621  0.4537 -1.6863
 3742TIP3    H232642   6.690   0.376  13.833  0.9477  0.6093  0.4254
 3743TIP3   OH232643   4.303   3.584  16.677  0.3507 -0.8866 -0.0677
 3743TIP3    H132644   4.255   3.502  16.691  0.2022 -0.9269 -0.7651
 3743TIP3    H232645   4.282   3.608  16.587  0.0822  0.1221  0.2500
 3744TIP3   OH232646   5.427   5.353  15.446 -0.4754  0.6388  0.4937
 3744TIP3    H132647   5.337   5.321  15.443 -0.0610 -0.6656  1.1728
 3744TIP3    H232648   5.436   5.404  15.365 -2.0430  1.4767  0.8064
 3745TIP3   OH232649   6.235   0.623   1.180  0.2987  0.2335 -0.1605
 3745TIP3    H132650   6.150   0.587   1.153 -0.0263  1.0858 -0.3145
 3745TIP3    H232651   6.212   0.691   1.243  0.9094  0.0469  0.2610
 3746TIP3   OH232652   1.150   6.178  15.873  0.4623 -0.2880 -0.2207
 3746TIP3    H132653   1.187   6.263  15.848  2.0179 -1.1527 -1.0502
 3746TIP3    H232654   1.110   6.193  15.958  1.4320  1.0923  0.0315
 3747TIP3   OH232655   0.916   1.742   2.441  0.3746 -0.3450 -0.0713
 3747TIP3    H132656   0.952   1.738   2.529 -0.2375  0.2660  0.2149
 3747TIP3    H232657   0.914   1.651   2.411 -0.0713 -0.6261  0.8081
 3748TIP3   OH232658   5.083   0.461   3.017 -0.1227 -0.5830  0.1411
 3748TIP3    H132659   4.993   0.427   3.019 -0.3498 -0.1117 -1.2689
 3748TIP3    H232660   5.127   0.407   2.951 -0.4536  1.6859 -2.0630
 3749TIP3   OH232661   2.001   3.386  17.221 -0.1883 -0.3157 -0.1240
 3749TIP3    H132662   1.968   3.375  17.311  2.7946  0.8256  1.2469
 3749TIP3    H232663   1.962   3.313  17.172  0.7933 -3.1289  2.9394
 3750TIP3   OH232664   1.196   4.953   0.991  0.0023 -0.1320 -0.3724
 3750TIP3    H132665   1.110   4.973   0.954  0.5638  0.6641 -1.2995
 3750TIP3    H232666   1.210   4.861   0.972 -0.3206 -0.0734 -0.9006
 3751TIP3   OH232667   0.590   5.034   5.311  0.4588  0.2413 -0.0509
 3751TIP3    H132668   0.674   5.067   5.278  0.1632 -1.6198 -2.9833
 3751TIP3    H232669   0.557   5.105   5.366  2.4029  2.4317 -1.4906
 3752TIP3   OH232670   0.783   4.062  12.847  0.1724 -0.1301  0.2877
 3752TIP3    H132671   0.736   4.145  12.840  0.4714 -0.0574 -1.3297
 3752TIP3    H232672   0.714   3.995  12.851 -0.0696  0.1363  0.5805
 3753TIP3   OH232673   3.538   0.724  16.741  0.6467  0.0321  0.0181
 3753TIP3    H132674   3.596   0.719  16.816  0.7554 -1.9808 -0.1493
 3753TIP3    H232675   3.497   0.810  16.747 -0.5740 -0.6443  3.3090
 3754TIP3   OH232676   5.265   4.500  13.323  0.2200  0.2720  0.5909
 3754TIP3    H132677   5.200   4.566  13.349  2.0731  2.5396 -0.1931
 3754TIP3    H232678   5.216   4.438  13.269 -1.7821  0.4368  2.0801
 3755TIP3   OH232679   0.254   6.772   2.079  0.0893  0.8701  0.4973
 3755TIP3    H132680   0.211   6.717   2.144  1.8304 -0.1482  0.8125
 3755TIP3    H232681   0.188   6.782   2.010 -0.7107 -0.5312  1.0180
 3756TIP3   OH232682   1.869   0.230   5.323  0.3564 -0.1069  0.5036
 3756TIP3    H132683   1.817   0.299   5.364  0.0697  0.3129 -0.5344
 3756TIP3    H232684   1.859   0.155   5.381 -0.9490  0.1335  0.6229
 3757TIP3   OH232685   5.644   1.835  17.205  0.3370  0.1261  0.2553
 3757TIP3    H132686   5.648   1.798  17.117  3.5859 -0.9918  0.7328
 3757TIP3    H232687   5.683   1.921  17.197 -3.7728  2.2104 -0.1297
 3758TIP3   OH232688   0.262   3.627   4.388 -0.1200 -0.2151  0.0351
 3758TIP3    H132689   0.227   3.674   4.464  0.6483 -1.2223  1.0619
 3758TIP3    H232690   0.193   3.565   4.364 -0.4464  0.2449 -0.2203
 3759TIP3   OH232691   6.269   5.981   0.940  0.0386 -0.2093  0.0370
 3759TIP3    H132692   6.284   6.015   1.029 -0.6917 -1.0203  0.4946
 3759TIP3    H232693   6.231   6.055   0.893 -0.1373  0.0581  0.5810
 3760TIP3   OH232694   1.887   4.291   1.173 -0.0934  0.1453 -0.0719
 3760TIP3    H132695   1.943   4.357   1.132 -1.1972  0.7383 -0.6481
 3760TIP3    H232696   1.949   4.230   1.213  0.9634  1.2319  0.0272
 3761TIP3   OH232697   2.136   0.708  11.245 -0.8111 -0.0237 -0.3819
 3761TIP3    H132698   2.058   0.747  11.203 -0.2569  2.9372  1.0306
 3761TIP3    H232699   2.135   0.744  11.333  2.7772  1.1299 -0.6668
 3762TIP3   OH232700   5.066   3.931   0.023 -0.0420 -0.4405 -0.5099
 3762TIP3    H132701   5.041   3.845   0.056 -1.2214  0.4193  0.9940
 3762TIP3    H232702   4.988   3.963  -0.023 -0.6678  0.9124  1.3543
 3763TIP3   OH232703   5.643   3.908  10.873  0.5455 -0.5695  0.1267
 3763TIP3    H132704   5.647   3.963  10.951  2.1394 -1.0910  0.4450
 3763TIP3    H232705   5.579   3.841  10.894  1.0711 -0.7920  1.0612
 3764TIP3   OH232706   5.964   2.923   4.481  0.2321  0.1978 -0.0236
 3764TIP3    H132707   6.038   2.982   4.463 -0.8363  1.2666 -1.1097
 3764TIP3    H232708   5.954   2.926   4.576  0.9897  0.7653  0.0546
 3765TIP3   OH232709   4.210   0.876   5.024  0.1841  0.0888 -0.1911
 3765TIP3    H132710   4.272   0.854   5.093 -0.0034  0.0835 -0.0220
 3765TIP3    H232711   4.258   0.935   4.966  0.7835 -0.9792 -0.8074
 3766TIP3   OH232712   2.223   0.765  16.605  0.2250 -0.5466  0.3872
 3766TIP3    H132713   2.248   0.857  16.599  0.0592 -0.5845 -1.5308
 3766TIP3    H232714   2.297   0.723  16.650 -0.3211  0.6995  2.5817
 3767TIP3   OH232715   6.190   1.509   1.233  0.4820 -0.3498 -0.2869
 3767TIP3    H132716   6.121   1.444   1.227 -0.3954  0.2352  2.3397
 3767TIP3    H232717   6.267   1.460   1.263 -0.0387 -0.3077  1.1849
 3768TIP3   OH232718   4.832   5.846  14.404  0.3201  0.7258  0.0881
 3768TIP3    H132719   4.829   5.751  14.405  1.0946  0.6827 -0.7349
 3768TIP3    H232720   4.923   5.868  14.428 -0.0856  1.2935  1.2230
 3769TIP3   OH232721   1.870   3.285   4.302  0.5464 -0.2162  0.3022
 3769TIP3    H132722   1.804   3.313   4.238  1.6950  1.6983 -0.0966
 3769TIP3    H232723   1.860   3.345   4.375  0.9575 -0.7890  0.8455
 3770TIP3   OH232724   0.277   3.295   0.704 -0.1635 -0.1038  0.5215
 3770TIP3    H132725   0.256   3.382   0.736  1.6145  0.9959 -1.0543
 3770TIP3    H232726   0.208   3.239   0.739 -0.2595  1.5374  3.2572
 3771TIP3   OH232727   1.226   6.741  17.187  0.2806 -0.1522  0.5227
 3771TIP3    H132728   1.214   6.820  17.239  0.8997  1.2630 -1.3691
 3771TIP3    H232729   1.317   6.746  17.156  0.1257 -1.2660 -0.1785
 3772TIP3   OH232730   5.120   6.027   4.656 -0.0619 -0.4046  0.8238
 3772TIP3    H132731   5.090   6.005   4.744  0.5689 -2.6450  0.5598
 3772TIP3    H232732   5.054   5.988   4.598  0.1936 -0.0612  0.2919
 3773TIP3   OH232733   5.952   0.678  16.488  0.6693  0.3340  0.0669
 3773TIP3    H132734   5.952   0.659  16.394 -0.6235  2.5738 -0.4388
 3773TIP3    H232735   6.021   0.743  16.500  1.1001 -0.2253  0.7793
 3774TIP3   OH232736   3.514   2.249  12.564  0.0396 -0.0160 -0.1352
 3774TIP3    H132737   3.570   2.326  12.578  1.1445 -0.6411 -1.0180
 3774TIP3    H232738   3.542   2.187  12.631  0.4476 -0.3594 -0.6272
 3775TIP3   OH232739   3.758   3.615  17.258 -0.5684  0.2781  0.3355
 3775TIP3    H132740   3.685   3.670  17.229  0.2841  0.8930 -0.6600
 3775TIP3    H232741   3.726   3.576  17.340 -1.6824  1.2177  0.3778
 3776TIP3   OH232742   4.924   5.951  12.625  0.1939  0.0675  0.2691
 3776TIP3    H132743   4.884   5.868  12.652  1.6280  0.2546  3.3229
 3776TIP3    H232744   4.850   6.006  12.598 -1.3275 -0.6537  2.6979
 3777TIP3   OH232745   0.786   5.691   1.267 -0.3400  0.1786  0.1702
 3777TIP3    H132746   0.770   5.699   1.173  1.5571  0.3652 -0.1675
 3777TIP3    H232747   0.730   5.619   1.295 -1.1220  0.2888 -1.0356
 3778TIP3   OH232748   1.741   2.706   4.110  0.2468 -0.1742  0.3531
 3778TIP3    H132749   1.767   2.665   4.193  0.2949  1.8070  1.3573
 3778TIP3    H232750   1.824   2.717   4.062  0.2765 -0.8529  0.2309
 3779TIP3   OH232751   3.006   0.861  10.459 -0.4725 -0.6831 -0.1059
 3779TIP3    H132752   2.979   0.874  10.549 -0.7979 -0.3648 -0.2477
 3779TIP3    H232753   3.087   0.810  10.465  0.4855  0.8469  0.4409
 3780TIP3   OH232754   4.926   2.404   3.694  0.0861 -0.2672  0.3219
 3780TIP3    H132755   5.015   2.376   3.714 -0.0646 -0.0141  1.4109
 3780TIP3    H232756   4.891   2.336   3.637  0.6768 -0.8232  0.6204
 3781TIP3   OH232757   0.350   4.843  16.224 -0.5187  0.0529  0.0651
 3781TIP3    H132758   0.293   4.900  16.173 -1.6751 -0.4637  0.7373
 3781TIP3    H232759   0.434   4.844  16.177 -1.1102  0.7262 -1.0126
 3782TIP3   OH232760   0.333   0.730   2.031  0.2366  0.0494  0.1784
 3782TIP3    H132761   0.299   0.669   1.966  0.3157  2.0833 -1.9204
 3782TIP3    H232762   0.260   0.788   2.051  0.0015 -0.9415  2.5492
 3783TIP3   OH232763   0.425   3.750  17.241  0.6433 -0.3548 -0.1705
 3783TIP3    H132764   0.359   3.820  17.241  0.4533 -0.4083 -3.1656
 3783TIP3    H232765   0.488   3.776  17.175  2.6629 -1.2518  1.3039
 3784TIP3   OH232766   6.382   4.817   1.821  0.4978  0.0514 -0.2272
 3784TIP3    H132767   6.352   4.775   1.741  4.0802  0.1882 -1.8168
 3784TIP3    H232768   6.423   4.747   1.872 -1.5356  0.0078  1.5181
 3785TIP3   OH232769   5.617   6.199   3.281  0.6662  0.3488  0.3385
 3785TIP3    H132770   5.556   6.131   3.309  1.2475 -0.2359  0.1828
 3785TIP3    H232771   5.594   6.216   3.190  0.1269  0.7953  0.5515
 3786TIP3   OH232772   3.141   1.105  10.472 -0.1931  0.0071 -0.3122
 3786TIP3    H132773   3.168   1.064  10.554  0.6151 -0.3992 -0.7688
 3786TIP3    H232774   3.067   1.052  10.442  0.2846 -0.5867 -0.4543
 3787TIP3   OH232775   1.917   2.736  14.864  0.2541  0.3532  0.3138
 3787TIP3    H132776   1.933   2.804  14.929  1.7022 -0.9123  1.3698
 3787TIP3    H232777   1.824   2.743  14.844  0.1624  1.9575  1.1608
 3788TIP3   OH232778   0.822   1.565   3.126 -0.2397  0.1124  0.0778
 3788TIP3    H132779   0.753   1.615   3.082  1.4950 -0.2520 -3.4540
 3788TIP3    H232780   0.777   1.490   3.164 -1.9173  0.3712 -1.2754
 3789TIP3   OH232781   0.685   5.815   3.729 -0.1120  0.2783 -0.1699
 3789TIP3    H132782   0.721   5.889   3.680  0.6509 -1.7004 -2.8453
 3789TIP3    H232783   0.648   5.757   3.662 -0.9594 -1.6525  1.8128
 3790TIP3   OH232784   3.526   6.572   4.449  0.1970 -0.0537 -0.1035
 3790TIP3    H132785   3.554   6.597   4.537  2.5039 -1.1671 -0.4402
 3790TIP3    H232786   3.462   6.503   4.462  1.4004 -1.0510  0.7391
 3791TIP3   OH232787   2.655   6.404   1.248 -0.2413 -0.6958 -0.3697
 3791TIP3    H132788   2.725   6.396   1.313 -0.4136 -0.3410 -0.1374
 3791TIP3    H232789   2.591   6.338   1.275 -0.7267  0.0443  0.3579
 3792TIP3   OH232790   6.214   4.832   6.367  0.0216 -0.1621 -0.5445
 3792TIP3    H132791   6.284   4.897   6.352  0.2250  0.2744  1.9124
 3792TIP3    H232792   6.150   4.850   6.299  0.2697  2.4008 -0.1999
 3793TIP3   OH232793   0.477   5.276  16.552 -0.4978 -0.4314  0.2431
 3793TIP3    H132794   0.393   5.300  16.512 -0.8477  1.1702  1.7669
 3793TIP3    H232795   0.469   5.307  16.643  0.6449 -2.8949  1.2672
 3794TIP3   OH232796   4.691   4.543  12.834 -0.3777 -0.2811 -0.6512
 3794TIP3    H132797   4.730   4.604  12.897 -0.0218 -0.7738 -0.3904
 3794TIP3    H232798   4.744   4.555  12.755 -1.6796  1.3468 -1.3356
 3795TIP3   OH232799   6.409   2.446  12.065  0.1494 -0.2550 -0.3856
 3795TIP3    H132800   6.456   2.490  11.994  1.3128 -0.9871 -0.0955
 3795TIP3    H232801   6.345   2.390  12.021 -0.2385  0.4923 -0.7949
 3796TIP3   OH232802   6.211   1.715   5.057  0.2423 -0.5130  0.0466
 3796TIP3    H132803   6.193   1.640   5.114 -1.2916  0.5602  1.0526
 3796TIP3    H232804   6.179   1.790   5.106 -0.7090  0.5229 -2.0288
 3797TIP3   OH232805   1.710   2.098   1.516 -0.8325  0.0848  0.3000
 3797TIP3    H132806   1.626   2.087   1.562 -1.2504  2.2617  0.1853
 3797TIP3    H232807   1.771   2.042   1.564 -1.9267 -0.0625  1.6037
 3798TIP3   OH232808   3.652   2.663   1.181  0.0109 -0.5091 -0.5522
 3798TIP3    H132809   3.623   2.747   1.144 -0.0659 -0.7787 -1.1079
 3798TIP3    H232810   3.737   2.683   1.221 -0.4685  0.0581  0.2064
 3799TIP3   OH232811   1.357   2.420   1.648  0.4364  0.0542  0.1527
 3799TIP3    H132812   1.391   2.500   1.606 -1.9066  0.6394 -0.7530
 3799TIP3    H232813   1.352   2.356   1.576  0.9485 -0.4900  0.5881
 3800TIP3   OH232814   6.080   6.181   0.313 -0.1924 -0.1965 -0.0555
 3800TIP3    H132815   6.112   6.125   0.241 -1.5457  0.0309 -0.8696
 3800TIP3    H232816   6.009   6.131   0.353  0.9720 -0.6075  1.5954
 3801TIP3   OH232817   6.649   3.617   2.493  0.7041  0.0412 -0.1742
 3801TIP3    H132818   6.647   3.524   2.512  0.6443  0.4941  2.2629
 3801TIP3    H232819   6.571   3.633   2.440 -1.4841 -0.6801  2.6449
 3802TIP3   OH232820   5.735   0.579   0.232 -0.4904  0.1276  0.2126
 3802TIP3    H132821   5.703   0.568   0.322 -0.1878 -3.5485  0.0436
 3802TIP3    H232822   5.726   0.492   0.193  1.9822  0.9185 -2.4752
 3803TIP3   OH232823   5.954   2.882   1.505  0.9902 -0.2027  0.2152
 3803TIP3    H132824   5.983   2.801   1.548  1.5539 -0.5381 -0.7628
 3803TIP3    H232825   5.859   2.876   1.506  0.9937 -0.3406  1.1410
 3804TIP3   OH232826   2.897   1.207   5.007 -0.0274 -0.2644 -0.3428
 3804TIP3    H132827   2.930   1.183   5.094  0.5307 -0.7579 -0.6861
 3804TIP3    H232828   2.836   1.279   5.024  1.8847  1.3119  0.2367
 3805TIP3   OH232829   3.539   0.080  13.211  0.0878 -0.4305 -0.2418
 3805TIP3    H132830   3.573   0.132  13.139 -0.0449 -0.4989 -0.3552
 3805TIP3    H232831   3.484   0.140  13.261 -0.1353 -0.4832 -0.4230
 3806TIP3   OH232832   5.874   0.595  11.276 -0.0838 -0.1425  0.1069
 3806TIP3    H132833   5.952   0.567  11.229  0.9169 -0.1529  1.7004
 3806TIP3    H232834   5.843   0.517  11.322 -0.2905  0.1504  0.4812
 3807TIP3   OH232835   2.910   1.545  13.913 -0.3112 -0.4865  0.1619
 3807TIP3    H132836   2.866   1.584  13.838 -1.4701  0.6982  1.3896
 3807TIP3    H232837   2.841   1.538  13.980  1.0191 -0.0309  1.6361
 3808TIP3   OH232838   0.498   1.147   3.749  0.3980  0.1786 -0.5381
 3808TIP3    H132839   0.525   1.060   3.779  1.5014  0.8875  0.6214
 3808TIP3    H232840   0.405   1.138   3.729 -0.0991 -0.7117  1.8687
 3809TIP3   OH232841   2.511   2.674  16.255  0.0045  0.4350 -0.0335
 3809TIP3    H132842   2.545   2.761  16.278  0.3006  0.9707 -2.2961
 3809TIP3    H232843   2.558   2.649  16.176 -0.6740 -1.4439  0.0973
 3810TIP3   OH232844   1.222   1.788  15.284 -0.5822  0.0058 -0.4834
 3810TIP3    H132845   1.187   1.854  15.344 -0.6106 -0.4487  0.0129
 3810TIP3    H232846   1.287   1.740  15.336 -1.7924 -1.4919 -0.2480
 3811TIP3   OH232847   2.693   0.972   0.658  0.1596  0.5225 -0.0189
 3811TIP3    H132848   2.787   0.986   0.652  0.1715  0.3853 -0.1481
 3811TIP3    H232849   2.668   1.009   0.743  0.3829  0.2543  0.1646
 3812TIP3   OH232850   4.146   4.467   1.059 -0.5876  0.2958  0.1049
 3812TIP3    H132851   4.059   4.500   1.036 -1.2578 -1.4283  0.0761
 3812TIP3    H232852   4.136   4.432   1.148  0.1656  0.3606  0.2214
 3813TIP3   OH232853   1.999   1.857   6.130 -0.3552  0.9752  0.4776
 3813TIP3    H132854   2.075   1.805   6.106 -0.3183 -0.0929  2.6611
 3813TIP3    H232855   1.953   1.873   6.047  0.4876 -1.1664 -0.4638
 3814TIP3   OH232856   4.396   4.065  15.279  0.1721 -0.0656  0.0493
 3814TIP3    H132857   4.376   4.088  15.189 -2.1565 -2.0044  0.0054
 3814TIP3    H232858   4.457   3.992  15.273  0.1878 -0.0541  0.0646
 3815TIP3   OH232859   5.444   4.220   0.128 -0.2886  0.3157 -0.0296
 3815TIP3    H132860   5.532   4.257   0.125  0.3238 -1.1312 -0.3890
 3815TIP3    H232861   5.415   4.221   0.037 -0.6904  0.8645  0.0982
 3816TIP3   OH232862   2.976   4.289  13.737  0.0091 -0.5745 -0.6085
 3816TIP3    H132863   3.048   4.249  13.689  0.0205 -0.4816 -0.6680
 3816TIP3    H232864   2.962   4.373  13.695 -0.1347 -0.5917 -0.5962
 3817TIP3   OH232865   3.077   2.101   2.713 -0.7097  0.1114 -0.5306
 3817TIP3    H132866   3.082   2.162   2.639 -0.2221 -0.8351 -1.2970
 3817TIP3    H232867   3.162   2.057   2.713 -1.2398 -0.9208 -0.2962
 3818TIP3   OH232868   2.638   6.377  11.932  0.6589  0.2497 -0.2331
 3818TIP3    H132869   2.662   6.290  11.963  0.0823  0.9661  2.5485
 3818TIP3    H232870   2.584   6.362  11.854  0.1436 -1.8944  0.4810
 3819TIP3   OH232871   1.782   4.756  17.226 -0.0286 -0.3391 -0.0849
 3819TIP3    H132872   1.780   4.734  17.319 -1.7136  0.3163  0.0659
 3819TIP3    H232873   1.765   4.850  17.223  0.3464 -0.2899 -1.0400
 3820TIP3   OH232874   0.283   0.564  10.941 -0.5168 -0.0573  0.3289
 3820TIP3    H132875   0.277   0.605  10.854 -0.0624  0.5858  0.5888
 3820TIP3    H232876   0.370   0.524  10.942 -1.8937 -3.4134 -0.9092
 3821TIP3   OH232877   1.966   5.004  12.456  1.7168  0.1263  0.4964
 3821TIP3    H132878   1.988   5.024  12.365  1.2064 -0.4940  0.2256
 3821TIP3    H232879   2.044   5.027  12.505  2.4947 -0.7779 -0.2706
 3822TIP3   OH232880   4.323   5.109   1.238 -0.4980  0.2772 -0.7804
 3822TIP3    H132881   4.293   5.093   1.149  1.1054 -2.3867 -0.9693
 3822TIP3    H232882   4.311   5.026   1.283  1.3772  0.6885  0.6323
 3823TIP3   OH232883   3.223   3.847  13.216 -0.2442  0.4181  0.4433
 3823TIP3    H132884   3.213   3.813  13.305 -0.1448  4.4927  2.1913
 3823TIP3    H232885   3.317   3.864  13.208 -0.1224 -0.7073 -0.8363
 3824TIP3   OH232886   5.044   1.998   0.560 -0.4019 -0.0109  0.7042
 3824TIP3    H132887   5.057   1.906   0.585  1.1604 -0.3724 -1.1591
 3824TIP3    H232888   5.092   2.048   0.626  0.7138 -0.7189  0.4618
 3825TIP3   OH232889   6.728   3.520  11.207 -0.1205  0.4501 -0.0119
 3825TIP3    H132890   6.732   3.440  11.260  0.0760  0.5754  0.1611
 3825TIP3    H232891   6.637   3.549  11.216 -0.7584 -0.8575 -1.7108
 3826TIP3   OH232892   6.117   0.876   1.291  0.6356 -0.6306 -0.2771
 3826TIP3    H132893   6.112   0.925   1.210  1.5782 -0.1782 -0.0735
 3826TIP3    H232894   6.057   0.921   1.351  1.6384  0.4257 -0.0272
 3827TIP3   OH232895   2.440   3.439  13.698 -0.2077 -0.0597  0.1624
 3827TIP3    H132896   2.470   3.529  13.709 -0.6206  0.1117 -0.0862
 3827TIP3    H232897   2.460   3.396  13.781  0.5644  0.0966  0.0607
 3828TIP3   OH232898   5.423   6.301  14.001 -0.4912 -0.1019  0.0709
 3828TIP3    H132899   5.478   6.263  13.933 -0.5229  1.3965 -0.8362
 3828TIP3    H232900   5.413   6.393  13.976 -2.3645 -0.0306  0.9017
 3829TIP3   OH232901   2.705   0.647   3.185 -0.6951  0.5900  0.4038
 3829TIP3    H132902   2.788   0.690   3.207 -1.4905  2.1005  0.6202
 3829TIP3    H232903   2.643   0.679   3.250 -1.8179  0.7851 -0.7123
 3830TIP3   OH232904   5.682   6.452  14.375  0.2247  0.1361  0.1745
 3830TIP3    H132905   5.716   6.504  14.302  0.8630 -0.1416  0.2609
 3830TIP3    H232906   5.596   6.489  14.394 -2.0005 -2.4255 -3.5245
 3831TIP3   OH232907   4.967   0.508  15.064  0.1794  0.2766 -0.7334
 3831TIP3    H132908   4.988   0.421  15.032 -3.2859 -0.0604 -2.5380
 3831TIP3    H232909   5.034   0.565  15.025  2.0637 -1.3924 -0.0932
 3832TIP3   OH232910   4.666   4.278  11.759  0.2160  0.0469 -0.6897
 3832TIP3    H132911   4.651   4.371  11.741  2.9028  0.9642  1.1898
 3832TIP3    H232912   4.759   4.272  11.782  0.1001 -3.0979 -0.5061
 3833TIP3   OH232913   0.227   4.217   1.568  0.3993  0.6498  0.0208
 3833TIP3    H132914   0.238   4.134   1.615  1.2337  0.8560  0.2123
 3833TIP3    H232915   0.244   4.283   1.635 -0.1318  0.9720 -0.1640
 3834TIP3   OH232916   4.191   1.107  11.267 -0.9268 -0.1846  0.6370
 3834TIP3    H132917   4.280   1.138  11.283 -0.9709 -0.6076  1.7883
 3834TIP3    H232918   4.141   1.187  11.246 -0.1482 -0.0295 -0.7820
 3835TIP3   OH232919   5.709   5.638  14.906  0.2892 -0.1216  0.0686
 3835TIP3    H132920   5.739   5.587  14.830  0.4078 -0.1486  0.1334
 3835TIP3    H232921   5.688   5.572  14.972 -2.4689 -0.2700 -0.8557
 3836TIP3   OH232922   2.986   0.188  13.580 -0.1119  0.1737  0.8314
 3836TIP3    H132923   2.964   0.170  13.488  2.2899 -1.1677  0.4364
 3836TIP3    H232924   3.058   0.251  13.576  1.2874 -1.2993  1.6546
 3837TIP3   OH232925   1.832   0.103   2.616 -0.0824  0.1109 -0.0577
 3837TIP3    H132926   1.745   0.140   2.602  0.3274  0.8022 -0.8407
 3837TIP3    H232927   1.870   0.157   2.686 -0.2157 -0.0877  0.1704
 3838TIP3   OH232928   4.580   2.783  12.310  0.1837  0.5162 -0.6403
 3838TIP3    H132929   4.504   2.739  12.350  0.4406  0.2162 -0.4709
 3838TIP3    H232930   4.597   2.857  12.367  1.7913 -1.0289  1.0201
 3839TIP3   OH232931   2.400   6.270  12.410  0.5785 -0.8279 -0.2934
 3839TIP3    H132932   2.312   6.306  12.421  1.1573  0.3712  0.7414
 3839TIP3    H232933   2.457   6.346  12.413  1.8983 -1.8012  2.3768
 3840TIP3   OH232934   3.250   3.040  14.746  0.7783  0.1101  0.0383
 3840TIP3    H132935   3.266   3.127  14.708 -1.1992  0.1829 -0.7623
 3840TIP3    H232936   3.296   3.042  14.830 -0.1620  2.3983  0.5729
 3841TIP3   OH232937   3.932   2.358   5.842  0.9824 -0.2535  0.4543
 3841TIP3    H132938   3.859   2.391   5.894  1.7065  0.4155  1.0742
 3841TIP3    H232939   3.894   2.288   5.790 -0.3558  0.8304 -0.0847
 3842TIP3   OH232940   4.990   5.004   1.075  0.0150  0.0993  0.3941
 3842TIP3    H132941   4.956   4.921   1.110 -1.2705 -0.4417 -1.9220
 3842TIP3    H232942   4.920   5.037   1.019  1.7086  1.1154 -1.2573
 3843TIP3   OH232943   0.646   2.977   0.678  0.0885  0.0302  0.3658
 3843TIP3    H132944   0.648   2.885   0.705  0.1509  0.0638  0.4768
 3843TIP3    H232945   0.611   3.024   0.754 -0.4702  0.0330  0.1100
 3844TIP3   OH232946   4.690   3.749  10.676  0.0236  0.0114 -0.0434
 3844TIP3    H132947   4.742   3.827  10.657 -0.0987  0.2069  0.4076
 3844TIP3    H232948   4.606   3.765  10.633 -0.4527  0.7035  1.1034
 3845TIP3   OH232949   3.956   1.518  12.212  0.5062 -0.1851  0.0363
 3845TIP3    H132950   3.939   1.443  12.155  1.5961  0.3329 -1.0304
 3845TIP3    H232951   4.048   1.540  12.195  0.8706 -0.0206  2.0467
 3846TIP3   OH232952   6.259   5.092  15.424  0.3399 -0.2702 -0.0468
 3846TIP3    H132953   6.185   5.146  15.397 -0.1023  0.0932  1.7699
 3846TIP3    H232954   6.318   5.153  15.469  1.2276 -0.7588 -0.5366
 3847TIP3   OH232955   4.369   3.145  16.712  0.1106  0.5925 -0.3942
 3847TIP3    H132956   4.415   3.227  16.729  0.6198  0.2073  0.0999
 3847TIP3    H232957   4.383   3.092  16.790  0.9672 -0.5114 -1.2578
 3848TIP3   OH232958   6.040   3.561   1.676  0.6583  0.1098 -0.4007
 3848TIP3    H132959   5.949   3.589   1.668  1.0536  1.1945 -1.4152
 3848TIP3    H232960   6.089   3.625   1.625  2.1534  0.3922  1.2891
 3849TIP3   OH232961   1.933   2.247   2.208 -0.3756  0.4775  0.0230
 3849TIP3    H132962   1.918   2.299   2.129 -1.8872  1.7937  1.1259
 3849TIP3    H232963   2.026   2.258   2.227 -0.3760  1.6067 -0.5858
 3850TIP3   OH232964   5.674   4.085  13.247 -0.1298  0.1108 -0.0351
 3850TIP3    H132965   5.671   4.179  13.266  1.7717 -0.0283  1.2654
 3850TIP3    H232966   5.729   4.049  13.316  0.0624 -1.8109 -1.1324
 3851TIP3   OH232967   2.766   0.174  17.249  0.2989  0.3351  0.0908
 3851TIP3    H132968   2.817   0.146  17.325  1.0858 -0.0831 -0.5771
 3851TIP3    H232969   2.812   0.251  17.216  0.5671 -0.1146 -0.5877
 3852TIP3   OH232970   1.540   1.692   2.078  0.1738 -0.3184 -0.1861
 3852TIP3    H132971   1.449   1.705   2.051  0.4126  0.6124 -0.5710
 3852TIP3    H232972   1.589   1.689   1.996  0.4812 -0.9863  0.0127
 3853TIP3   OH232973   0.652   2.834  16.704 -0.3492 -0.0745 -0.3525
 3853TIP3    H132974   0.716   2.773  16.740 -0.1774 -0.0038 -0.5309
 3853TIP3    H232975   0.570   2.811  16.746  0.4848  2.4649  3.0356
 3854TIP3   OH232976   2.681   1.914  11.905 -0.1700 -0.2179 -0.1124
 3854TIP3    H132977   2.679   1.852  11.978  0.7419 -1.3796 -1.0367
 3854TIP3    H232978   2.589   1.925  11.880 -0.3771 -0.8249  0.3703
 3855TIP3   OH232979   4.190   3.212  13.043  0.5158  0.5000  0.4277
 3855TIP3    H132980   4.231   3.134  13.080 -0.8182 -0.6946 -0.5147
 3855TIP3    H232981   4.230   3.223  12.957  1.1059  1.2087  0.7821
 3856TIP3   OH232982   5.306   6.417  11.279 -0.1672 -0.2593  0.1113
 3856TIP3    H132983   5.266   6.464  11.206 -0.1347  2.5689  1.7741
 3856TIP3    H232984   5.259   6.449  11.356  1.4254 -1.2880  1.5680
 3857TIP3   OH232985   6.773   6.407  17.309 -0.0778 -0.2783  0.6194
 3857TIP3    H132986   6.852   6.444  17.271  0.0000  0.3837  1.4083
 3857TIP3    H232987   6.730   6.481  17.351 -2.2822 -0.1156 -1.6502
 3858TIP3   OH232988   0.614   0.190   5.292  0.1916 -0.4932 -0.0348
 3858TIP3    H132989   0.680   0.254   5.263 -2.1303  1.9858 -0.1924
 3858TIP3    H232990   0.619   0.192   5.387 -0.4464  0.6149 -0.0132
 3859TIP3   OH232991   3.650   4.143  14.133  0.8382  0.3262 -0.2342
 3859TIP3    H132992   3.589   4.075  14.163 -1.5807  0.3406 -4.2731
 3859TIP3    H232993   3.724   4.093  14.099  0.2097 -0.1861 -0.9041
 3860TIP3   OH232994   4.887   0.363   3.337 -0.7223  0.0015 -0.8126
 3860TIP3    H132995   4.860   0.341   3.247  0.0504 -1.6853 -0.6759
 3860TIP3    H232996   4.974   0.323   3.346  0.1940  2.0347 -0.0076
 3861TIP3   OH232997   5.379   3.543  12.332 -0.4033  0.4950 -0.9150
 3861TIP3    H132998   5.343   3.483  12.267 -1.8919 -1.7764  1.7778
 3861TIP3    H232999   5.455   3.583  12.288  0.8258 -3.4477 -2.9038
 3862TIP3   OH233000   5.525   0.076  11.970  0.1304  0.5650 -1.0689
 3862TIP3    H133001   5.552   0.062  12.061  0.6658  1.1288 -1.1391
 3862TIP3    H233002   5.429   0.075  11.974  0.1361 -0.6005 -0.6896
 3863TIP3   OH233003   2.147   1.539   0.657  0.5442  0.4389  0.2243
 3863TIP3    H133004   2.057   1.539   0.690  0.3004  0.0275 -0.4032
 3863TIP3    H233005   2.194   1.601   0.713 -0.3958  1.5302 -0.1585
 3864TIP3   OH233006   3.965   3.797   4.840  0.5131 -0.0402  1.0114
 3864TIP3    H133007   4.046   3.845   4.855  0.1660  0.4897  1.2356
 3864TIP3    H233008   3.939   3.821   4.751  2.4190 -2.9557 -0.5146
 3865TIP3   OH233009   2.756   5.357   0.100 -0.3015 -0.3555 -0.2590
 3865TIP3    H133010   2.700   5.319   0.167 -0.9588  1.4742  0.2826
 3865TIP3    H233011   2.708   5.343   0.018 -0.5080 -0.7250 -0.0763
 3866TIP3   OH233012   5.883   1.032  17.279 -0.5774 -0.2412 -0.5943
 3866TIP3    H133013   5.852   1.093  17.346  0.6343  1.6681 -1.6804
 3866TIP3    H233014   5.977   1.024  17.296 -0.4662 -0.6387 -1.3652
 3867TIP3   OH233015   4.568   6.004   1.941 -0.5607 -0.3051 -0.6113
 3867TIP3    H133016   4.604   5.964   2.020  1.4077 -0.3771 -1.4844
 3867TIP3    H233017   4.482   6.037   1.967 -0.6649 -1.8171  1.0885
 3868TIP3   OH233018   3.632   0.204   5.469 -0.6778 -0.0394  0.3590
 3868TIP3    H133019   3.613   0.143   5.397  1.1133 -0.2897  0.0373
 3868TIP3    H233020   3.688   0.271   5.430 -1.4469  1.0538  1.0499
 3869TIP3   OH233021   6.536   6.287  16.723 -0.1142 -0.9712 -0.2565
 3869TIP3    H133022   6.449   6.248  16.722 -0.6520  0.1928 -1.0478
 3869TIP3    H233023   6.589   6.227  16.776 -1.4579 -1.5592  0.4715
 3870TIP3   OH233024   6.655   0.510   2.550  1.0681  0.1004  0.7906
 3870TIP3    H133025   6.596   0.558   2.491  0.3324 -1.8278 -0.1548
 3870TIP3    H233026   6.667   0.567   2.625 -3.2144  0.0670  1.7331
 3871TIP3   OH233027   5.528   2.866   1.321 -0.0258 -0.1565 -0.0880
 3871TIP3    H133028   5.563   2.888   1.408 -2.1210  1.3711  0.4547
 3871TIP3    H233029   5.590   2.906   1.260  0.5783  0.2052  0.7317
 3872TIP3   OH233030   0.748   0.966   0.314  0.0360  0.2067 -0.4084
 3872TIP3    H133031   0.821   0.926   0.361 -0.1683  1.6970  1.3051
 3872TIP3    H233032   0.670   0.920   0.347  0.1270 -1.0961 -1.9214
 3873TIP3   OH233033   1.127   0.733   5.639 -0.5470 -0.1262  0.1559
 3873TIP3    H133034   1.102   0.814   5.595 -1.2497  0.4479  1.5519
 3873TIP3    H233035   1.176   0.761   5.716  1.3504 -1.1427 -0.6358
 3874TIP3   OH233036   3.182   2.534   3.806 -0.0270 -0.3309  0.5734
 3874TIP3    H133037   3.088   2.537   3.826 -0.3611 -0.1106 -0.9455
 3874TIP3    H233038   3.200   2.442   3.789 -0.0999 -0.2870  0.2603
 3875TIP3   OH233039   3.365   6.720  11.957 -0.0335 -0.2427  0.1762
 3875TIP3    H133040   3.306   6.785  11.918  0.4828 -0.0148 -0.2369
 3875TIP3    H233041   3.312   6.640  11.960 -0.1622 -0.2171 -0.8198
 3876TIP3   OH233042   6.487   0.339   4.818 -0.2167  0.7518  0.4530
 3876TIP3    H133043   6.394   0.320   4.832 -0.0488 -1.1126 -0.5831
 3876TIP3    H233044   6.532   0.289   4.886  0.0406  2.3489  1.5176
 3877TIP3   OH233045   5.273   4.024   0.815  0.3201 -0.5055 -0.0768
 3877TIP3    H133046   5.211   4.059   0.878  0.7172  0.7759 -0.3721
 3877TIP3    H233047   5.321   3.956   0.863  2.4835  2.2176  1.9163
 3878TIP3   OH233048   1.956   0.778  16.224  0.5936 -0.5738  0.0789
 3878TIP3    H133049   1.956   0.858  16.171 -0.4551 -0.6729 -0.0990
 3878TIP3    H233050   2.034   0.731  16.196  0.5494 -0.1967 -0.7256
 3879TIP3   OH233051   5.688   3.252  11.466  0.1050 -0.2492  0.3133
 3879TIP3    H133052   5.617   3.283  11.522  0.4517 -0.6760  1.0040
 3879TIP3    H233053   5.660   3.166  11.437 -0.4418  0.3099 -0.8506
 3880TIP3   OH233054   5.485   5.479   2.573 -0.0354 -0.7647 -0.3985
 3880TIP3    H133055   5.441   5.550   2.527  0.8358  1.1593  1.5327
 3880TIP3    H233056   5.416   5.436   2.623 -0.0953  1.3166  1.4953
 3881TIP3   OH233057   3.537   3.480   4.786 -0.0205  0.7160 -0.2537
 3881TIP3    H133058   3.586   3.524   4.855 -0.4344  1.1466 -0.2277
 3881TIP3    H233059   3.554   3.531   4.707  1.1095 -0.2470 -0.6556
 3882TIP3   OH233060   4.190   1.049  15.035 -0.8043 -0.2551 -0.2263
 3882TIP3    H133061   4.157   1.047  15.125 -0.5636  1.8762 -0.0318
 3882TIP3    H233062   4.269   0.995  15.038 -0.6493 -0.0029  0.9189
 3883TIP3   OH233063   4.368   4.893  12.608  0.0447  0.9905  0.4316
 3883TIP3    H133064   4.458   4.902  12.639 -0.0569  0.6113  0.8442
 3883TIP3    H233065   4.376   4.843  12.526  0.2340  1.2550  0.2872
 3884TIP3   OH233066   5.599   5.899   4.095 -0.6809  0.8035  0.9827
 3884TIP3    H133067   5.626   5.890   4.187 -4.1926  1.2860  2.1955
 3884TIP3    H233068   5.593   5.809   4.063 -1.0039  0.5439  1.7505
 3885TIP3   OH233069   1.467   1.758   4.937  0.4339  0.1874 -0.7519
 3885TIP3    H133070   1.509   1.784   4.855  0.2028  0.8095 -0.6787
 3885TIP3    H233071   1.527   1.788   5.005 -1.6759  4.4880 -0.4346
 3886TIP3   OH233072   1.539   2.111   2.436 -0.4947 -0.1238 -0.3273
 3886TIP3    H133073   1.543   2.050   2.363  1.7218 -1.0269  0.4574
 3886TIP3    H233074   1.468   2.078   2.491  0.2700 -1.7141 -0.2298
 3887TIP3   OH233075   2.162   1.636   0.001  0.4148 -0.0563  0.1661
 3887TIP3    H133076   2.122   1.566  -0.052 -1.1373  0.5447  0.4711
 3887TIP3    H233077   2.213   1.590   0.067  0.6398 -0.8613 -0.5395
 3888TIP3   OH233078   1.542   0.833   4.603 -0.0132 -0.0122  0.2421
 3888TIP3    H133079   1.459   0.873   4.630  0.3831 -0.2256  1.8675
 3888TIP3    H233080   1.534   0.741   4.629  0.9137  0.0715  0.8668
 3889TIP3   OH233081   1.802   6.375  16.087  0.6663 -0.1960  0.0596
 3889TIP3    H133082   1.870   6.437  16.061  1.6716 -0.6430  1.5092
 3889TIP3    H233083   1.785   6.323  16.008 -0.8002  2.3915 -1.4480
 3890TIP3   OH233084   3.911   4.738  10.475 -0.0164 -0.1619  0.0475
 3890TIP3    H133085   3.827   4.735  10.429 -0.0992  0.2287  0.1656
 3890TIP3    H233086   3.903   4.813  10.534  0.8007  0.5004 -0.6728
 3891TIP3   OH233087   5.824   4.532   4.837 -0.4386 -0.1865  0.0894
 3891TIP3    H133088   5.835   4.494   4.925 -2.7278 -1.1230  0.0473
 3891TIP3    H233089   5.812   4.626   4.853 -1.6806 -0.4555  0.9033
 3892TIP3   OH233090   3.533   4.802  15.007  0.1597 -0.4203 -0.0997
 3892TIP3    H133091   3.481   4.867  14.959 -0.2023 -0.5778  0.0741
 3892TIP3    H233092   3.477   4.777  15.081 -0.1987 -1.7733 -0.7913
 3893TIP3   OH233093   5.315   4.928  13.300  0.1319 -0.4290  0.1305
 3893TIP3    H133094   5.367   4.944  13.379 -0.4311 -1.4417  0.7426
 3893TIP3    H233095   5.341   4.840  13.272  0.5146  0.0209 -0.9857
 3894TIP3   OH233096   5.725   4.101   2.456  0.4038  0.0294  0.5608
 3894TIP3    H133097   5.748   4.150   2.377  3.4730  0.6452  1.7051
 3894TIP3    H233098   5.671   4.029   2.424 -1.4052  2.1708 -1.6062
 3895TIP3   OH233099   3.264   3.457  15.226 -0.6067  0.6032  0.1632
 3895TIP3    H133100   3.332   3.509  15.184  0.1367  0.1230  0.7655
 3895TIP3    H233101   3.183   3.484  15.181  0.2701 -0.8240 -2.5065
 3896TIP3   OH233102   0.939   1.052   5.659 -0.7535 -0.0062  0.4695
 3896TIP3    H133103   0.855   1.032   5.701 -0.7595  1.0713  0.9889
 3896TIP3    H233104   1.002   1.057   5.730 -0.2589 -0.6609  0.0944
 3897TIP3   OH233105   1.408   3.362   0.521 -0.1246  0.2336 -0.3905
 3897TIP3    H133106   1.464   3.388   0.447  0.5530 -1.0509 -0.3484
 3897TIP3    H233107   1.324   3.340   0.480 -0.1870  0.8714 -0.6138
 3898TIP3   OH233108   0.416   3.432  12.914  0.3552  0.1486 -0.1407
 3898TIP3    H133109   0.484   3.407  12.977  0.7280 -2.1280 -1.3453
 3898TIP3    H233110   0.334   3.404  12.956  0.2589  1.4973  0.6391
 3899TIP3   OH233111   4.548   4.674  16.808 -0.1770  0.4158 -0.2916
 3899TIP3    H133112   4.564   4.714  16.894  0.8765  0.6161 -0.5596
 3899TIP3    H233113   4.454   4.658  16.806 -0.4576  1.8072  0.3000
 3900TIP3   OH233114   3.323   0.855   4.553 -0.3006 -0.1288 -0.0557
 3900TIP3    H133115   3.348   0.946   4.567  0.4000 -0.2691 -0.3073
 3900TIP3    H233116   3.402   0.805   4.574 -1.0266 -0.7751  1.1967
 3901TIP3   OH233117   3.777   4.764   3.881 -0.1142  0.2824  0.4519
 3901TIP3    H133118   3.702   4.823   3.874 -0.4712 -0.3677 -2.1896
 3901TIP3    H233119   3.851   4.821   3.902 -0.2854  1.9004 -2.8092
 3902TIP3   OH233120   4.169   5.873   4.422 -0.3206 -0.2526  0.4227
 3902TIP3    H133121   4.115   5.826   4.358 -2.1339  0.2384  1.5280
 3902TIP3    H233122   4.222   5.933   4.369 -1.2547 -0.3582 -0.6728
 3903TIP3   OH233123   0.568   4.312  11.137  0.0984 -0.4075  0.2457
 3903TIP3    H133124   0.595   4.401  11.158  1.9181 -0.9449  0.3424
 3903TIP3    H233125   0.522   4.320  11.054  0.8669  0.5399 -0.1066
 3904TIP3   OH233126   5.053   3.091  16.999 -0.2952  0.2039  0.4635
 3904TIP3    H133127   4.991   3.078  17.071  1.5289 -0.1313  2.0791
 3904TIP3    H233128   5.132   3.045  17.027  0.6222  0.3772 -1.6228
 3905TIP3   OH233129   3.042   2.298   3.168  0.1879  0.6230 -0.0647
 3905TIP3    H133130   3.100   2.346   3.227  0.7431 -1.8087  1.5098
 3905TIP3    H233131   2.985   2.248   3.226 -0.1444 -0.8377 -1.5698
 3906TIP3   OH233132   6.459   3.244  14.946  0.3064 -0.1560 -0.0279
 3906TIP3    H133133   6.542   3.243  14.899  1.0783  2.7004  1.0854
 3906TIP3    H233134   6.479   3.206  15.032 -0.3609 -2.3388 -0.7483
 3907TIP3   OH233135   4.119   5.154   4.218  0.0482 -0.4770  0.1676
 3907TIP3    H133136   4.128   5.093   4.291  1.6153  0.8033  1.1354
 3907TIP3    H233137   4.205   5.156   4.177 -0.0856  0.7372 -0.1053
 3908TIP3   OH233138   0.686   1.257  15.576  0.1253  0.2579 -0.7676
 3908TIP3    H133139   0.657   1.171  15.545 -1.2181  0.0602  0.8604
 3908TIP3    H233140   0.626   1.319  15.535 -0.6578  0.1348  0.1439
 3909TIP3   OH233141   4.142   5.379  15.248 -0.0092 -0.0657 -0.3979
 3909TIP3    H133142   4.206   5.377  15.319  0.5162 -3.7573 -0.7883
 3909TIP3    H233143   4.125   5.473  15.234  1.1137  0.8833  3.3875
 3910TIP3   OH233144   2.686   2.183  11.590  0.0475 -0.5242  0.0061
 3910TIP3    H133145   2.681   2.258  11.530  4.5742  1.3639  1.5697
 3910TIP3    H233146   2.650   2.216  11.672  0.0462 -0.8284  0.1270
 3911TIP3   OH233147   0.423   3.701  13.038 -0.2270 -0.1313 -0.5144
 3911TIP3    H133148   0.390   3.642  12.970  0.9045 -0.1896 -1.0296
 3911TIP3    H233149   0.517   3.707  13.022  0.2234 -0.7769  1.5323
 3912TIP3   OH233150   4.123   1.574  16.143 -0.1378 -0.3763  0.2331
 3912TIP3    H133151   4.113   1.543  16.053 -1.1584  0.7685 -0.0733
 3912TIP3    H233152   4.049   1.537  16.190  0.8963 -1.7286  0.8450
 3913TIP3   OH233153   4.652   5.904   1.213 -0.2658 -0.4413 -0.0557
 3913TIP3    H133154   4.609   5.919   1.129 -0.2299  0.2117  0.0400
 3913TIP3    H233155   4.624   5.816   1.238 -0.2978 -0.6323 -0.7338
 3914TIP3   OH233156   1.254   2.883  16.409  0.0138 -0.5705 -0.4040
 3914TIP3    H133157   1.325   2.820  16.396 -1.5130 -2.2478 -1.0870
 3914TIP3    H233158   1.204   2.880  16.328 -0.6678  0.8153 -0.0597
 3915TIP3   OH233159   3.471   0.855   3.985 -0.0259  0.4493  0.5247
 3915TIP3    H133160   3.492   0.929   4.041 -1.0715 -0.1792  1.8035
 3915TIP3    H233161   3.406   0.888   3.924  0.4590  0.9005  0.2413
 3916TIP3   OH233162   0.714   4.782  14.368  0.8067  0.4006 -0.1174
 3916TIP3    H133163   0.724   4.687  14.364 -0.1580  0.1456  2.0406
 3916TIP3    H233164   0.708   4.801  14.462  1.9300  2.7109 -0.4397
 3917TIP3   OH233165   2.304   0.045  16.741  0.2585 -0.6081  0.3175
 3917TIP3    H133166   2.384   0.085  16.775 -0.5932  0.9941  0.5525
 3917TIP3    H233167   2.312   0.053  16.646  1.0105 -1.7749  0.2691
 3918TIP3   OH233168   0.964   1.577  11.454 -0.3894  0.0205  0.3011
 3918TIP3    H133169   0.936   1.668  11.456  0.7666  0.4093 -0.4211
 3918TIP3    H233170   1.052   1.579  11.418 -0.2850 -1.3745  0.4021
 3919TIP3   OH233171   3.270   5.637  16.155  0.8849  0.0926  0.0426
 3919TIP3    H133172   3.236   5.630  16.244 -0.1558 -0.7329 -0.3847
 3919TIP3    H233173   3.317   5.555  16.141 -1.7764 -1.3758 -1.2246
 3920TIP3   OH233174   0.496   0.733  11.485 -0.5662 -0.1979  0.0916
 3920TIP3    H133175   0.467   0.700  11.400 -2.0139  1.8238 -0.2900
 3920TIP3    H233176   0.535   0.818  11.465  1.1546 -0.6671  1.2344
 3921TIP3   OH233177   2.976   4.814  13.674  0.4049  0.0362 -0.6987
 3921TIP3    H133178   2.996   4.907  13.683  1.0229 -0.1155 -0.5110
 3921TIP3    H233179   2.881   4.810  13.682  0.1755  0.8666 -2.4562
 3922TIP3   OH233180   5.424   5.537   1.816  0.6871 -0.0599  0.1701
 3922TIP3    H133181   5.407   5.571   1.728 -0.1879  0.4778  0.5288
 3922TIP3    H233182   5.510   5.573   1.839  0.5619  0.4710 -0.1533
 3923TIP3   OH233183   5.309   5.216  16.753  0.0511 -0.5191 -0.1135
 3923TIP3    H133184   5.264   5.265  16.821  2.5190  0.4410  0.9619
 3923TIP3    H233185   5.274   5.250  16.671  0.4743  1.9158  0.6379
 3924TIP3   OH233186   1.409   4.941   3.156  0.4784 -0.1259  0.7780
 3924TIP3    H133187   1.367   4.856   3.145  0.6028  0.1162 -2.4167
 3924TIP3    H233188   1.496   4.921   3.191  1.1594 -1.5573 -1.5103
 3925TIP3   OH233189   1.704   5.539   1.604  0.5275 -0.0416 -0.0348
 3925TIP3    H133190   1.681   5.556   1.513 -0.7091 -1.1607  0.0472
 3925TIP3    H233191   1.773   5.472   1.600  0.9888  0.4299 -0.1505
 3926TIP3   OH233192   6.646   5.601  14.761 -0.4117  0.3329 -0.4935
 3926TIP3    H133193   6.687   5.565  14.840 -0.0110 -0.4382 -1.0391
 3926TIP3    H233194   6.592   5.673  14.793 -1.0032 -0.5613  0.6106
 3927TIP3   OH233195   2.656   5.539  11.573 -0.3566 -0.0539  0.0746
 3927TIP3    H133196   2.669   5.454  11.531 -0.2211  0.0990 -0.1982
 3927TIP3    H233197   2.693   5.602  11.511  0.3818  0.1305  0.7008
 3928TIP3   OH233198   1.356   2.667  11.084  0.3663 -0.0539  0.6992
 3928TIP3    H133199   1.329   2.576  11.068  2.9255 -0.7808  0.1391
 3928TIP3    H233200   1.383   2.668  11.176 -2.1024  0.8807  1.5075
 3929TIP3   OH233201   6.637   6.445   1.414  0.7951  0.1375 -0.0686
 3929TIP3    H133202   6.729   6.422   1.427  0.4990 -1.3523 -0.4642
 3929TIP3    H233203   6.594   6.421   1.496  0.4093 -1.1910 -0.6388
 3930TIP3   OH233204   0.469   3.723  14.909 -0.1082  0.1152 -0.3685
 3930TIP3    H133205   0.504   3.778  14.979 -1.0540 -1.1905  1.1862
 3930TIP3    H233206   0.523   3.644  14.911  0.0289  0.1677 -1.3279
 3931TIP3   OH233207   4.791   1.662   2.294 -0.5200 -0.1706  0.3614
 3931TIP3    H133208   4.736   1.732   2.328 -0.7932  0.4195 -1.2397
 3931TIP3    H233209   4.758   1.645   2.206  1.6092 -0.0374 -0.5383
 3932TIP3   OH233210   6.599   2.322  12.736 -0.4732 -0.5151  0.1958
 3932TIP3    H133211   6.508   2.331  12.709 -0.2613 -0.5468 -0.5440
 3932TIP3    H233212   6.631   2.244  12.691 -0.4659 -1.3288  1.5388
 3933TIP3   OH233213   5.664   4.005   4.819 -0.1134  0.3842 -0.4363
 3933TIP3    H133214   5.665   3.971   4.909  0.8455  1.1576 -0.1334
 3933TIP3    H233215   5.590   3.961   4.777 -1.0621  0.5717  0.9588
 3934TIP3   OH233216   3.355   2.463   4.752 -0.2315  0.3770 -0.2573
 3934TIP3    H133217   3.305   2.543   4.733  1.5831  1.9514  1.2669
 3934TIP3    H233218   3.404   2.446   4.671  2.2559  3.0936  0.5195
 3935TIP3   OH233219   0.024   1.124  15.333 -0.3318  0.0174  0.3202
 3935TIP3    H133220  -0.007   1.053  15.277 -3.0880  0.6760  0.8221
 3935TIP3    H233221   0.098   1.162  15.285  0.1341 -2.0830 -0.7538
 3936TIP3   OH233222   3.977   0.753  10.472  0.5191 -0.5859  0.3369
 3936TIP3    H133223   3.944   0.843  10.461 -0.5574 -1.1175 -1.0556
 3936TIP3    H233224   4.033   0.758  10.549  0.7817  1.3651  0.0738
 3937TIP3   OH233225   2.111   4.592  11.362 -0.0244 -0.6658  0.6260
 3937TIP3    H133226   2.149   4.559  11.444  0.6485 -3.0401 -0.5488
 3937TIP3    H233227   2.182   4.585  11.298 -0.9112 -0.0728 -0.4628
 3938TIP3   OH233228   4.653   3.153  14.502 -0.7671  0.1193 -0.0384
 3938TIP3    H133229   4.700   3.236  14.508 -2.0252  0.8119  0.7678
 3938TIP3    H233230   4.650   3.120  14.592 -0.6712 -0.5796 -0.2837
 3939TIP3   OH233231   0.054   4.256  14.878  0.3124  0.2079  0.8173
 3939TIP3    H133232   0.122   4.204  14.920 -0.4430 -2.4973 -1.0808
 3939TIP3    H233233  -0.017   4.259  14.942  0.7744 -0.1479  1.3608
 3940TIP3   OH233234   0.552   0.184  11.615 -0.4653 -0.2803 -0.5114
 3940TIP3    H133235   0.495   0.116  11.580 -0.0253 -0.7245 -0.3745
 3940TIP3    H233236   0.593   0.145  11.691  0.6216 -0.2504 -1.0581
 3941TIP3   OH233237   0.775   4.858  12.443  0.0427 -0.5430  0.1758
 3941TIP3    H133238   0.809   4.777  12.404  2.4474  0.8942 -0.8848
 3941TIP3    H233239   0.788   4.925  12.375 -2.2775  0.7137  0.8610
 3942TIP3   OH233240   1.414   1.173  15.870 -0.0332  0.2742 -0.5750
 3942TIP3    H133241   1.503   1.147  15.894 -0.5428  0.3625  1.5939
 3942TIP3    H233242   1.394   1.248  15.926 -0.9588  1.2447 -2.1099
 3943TIP3   OH233243   0.397   2.642   4.430 -0.1126  0.2810 -0.4298
 3943TIP3    H133244   0.411   2.731   4.398  1.0936 -0.2823 -1.5764
 3943TIP3    H233245   0.479   2.619   4.474 -1.1422  0.4282  1.6595
 3944TIP3   OH233246   6.647   1.947   3.299  0.5295  0.1092  0.1916
 3944TIP3    H133247   6.623   1.951   3.206 -4.4984 -0.0865  1.2161
 3944TIP3    H233248   6.634   2.037   3.331  0.8074 -0.1267  0.9929
 3945TIP3   OH233249   0.595   2.011  14.077  0.2092  0.4102  0.1148
 3945TIP3    H133250   0.556   2.098  14.070 -2.0162 -0.5951 -0.8312
 3945TIP3    H233251   0.616   1.987  13.987  0.7246 -0.0780  0.3584
 3946TIP3   OH233252   0.634   5.453   0.075 -0.0602 -0.2645 -0.6204
 3946TIP3    H133253   0.715   5.463   0.024  0.3032  0.7280  0.1287
 3946TIP3    H233254   0.633   5.361   0.101  1.5875  0.0158  0.5834
 3947TIP3   OH233255   6.310   5.840   2.138 -0.2435 -0.2423  0.2812
 3947TIP3    H133256   6.322   5.919   2.085  1.2219 -0.1137  0.7530
 3947TIP3    H233257   6.277   5.775   2.076 -0.4419  0.4458 -0.3576
 3948TIP3   OH233258   2.785   1.294   1.777 -0.6000  0.1865 -0.5454
 3948TIP3    H133259   2.808   1.300   1.685  0.0906 -0.7084 -0.4512
 3948TIP3    H233260   2.826   1.213   1.807  0.8828  1.4248  1.0082
 3949TIP3   OH233261   2.612   2.803   2.730 -0.7764  0.1832 -0.3079
 3949TIP3    H133262   2.552   2.801   2.656 -1.4496 -0.3079  0.2386
 3949TIP3    H233263   2.698   2.823   2.691 -1.0853 -0.2368 -1.2329
 3950TIP3   OH233264   5.656   6.522   3.813  0.0523  0.0281 -0.6560
 3950TIP3    H133265   5.653   6.427   3.814 -2.0416  0.0559 -0.8681
 3950TIP3    H233266   5.600   6.548   3.740 -2.2067  1.4334  1.4135
 3951TIP3   OH233267   0.124   5.988   3.366 -0.0951  0.1141 -0.1362
 3951TIP3    H133268   0.173   5.949   3.294 -0.9655 -1.5510  0.1310
 3951TIP3    H233269   0.041   6.015   3.327 -0.9654 -1.6774  0.3855
 3952TIP3   OH233270   6.299   4.853   4.615  0.0993 -0.0318 -0.4258
 3952TIP3    H133271   6.383   4.863   4.658  0.8637 -0.3394 -1.8022
 3952TIP3    H233272   6.290   4.932   4.561 -0.0760 -0.4217 -0.9741
 3953TIP3   OH233273   3.045   4.778   6.700  0.4644 -0.3229  0.0492
 3953TIP3    H133274   3.077   4.856   6.655  1.6595 -0.1207  1.1849
 3953TIP3    H233275   2.995   4.731   6.634 -0.1519  1.3171 -0.7071
 3954TIP3   OH233276   4.813   0.623   6.238  0.2938  0.0709 -0.5423
 3954TIP3    H133277   4.877   0.578   6.293 -0.1829  0.2867  0.1991
 3954TIP3    H233278   4.734   0.629   6.292  0.7015  2.9331 -0.1022
 3955TIP3   OH233279   5.697   4.956   3.949 -0.1316 -0.7378 -0.3203
 3955TIP3    H133280   5.774   4.973   3.894 -0.3830 -0.7855 -0.6891
 3955TIP3    H233281   5.644   4.895   3.898 -1.6099  1.1471 -1.1597
 3956TIP3   OH233282   0.900   2.609  17.145  0.1708  0.8273 -0.1902
 3956TIP3    H133283   0.840   2.539  17.120  1.9648 -1.2917  1.0631
 3956TIP3    H233284   0.889   2.676  17.077 -3.4004  0.5029 -0.1129
 3957TIP3   OH233285   5.683   1.732   3.592 -0.2182 -0.5039 -0.0748
 3957TIP3    H133286   5.591   1.708   3.595 -0.4875  0.3851 -0.7522
 3957TIP3    H233287   5.726   1.673   3.654 -1.3992 -0.2131  1.0507
 3958TIP3   OH233288   2.524   5.679  11.840 -0.0935 -0.0736 -0.0014
 3958TIP3    H133289   2.616   5.703  11.825 -0.5491  2.2261  0.6028
 3958TIP3    H233290   2.476   5.725  11.772 -0.9424 -0.0760  0.5877
 3959TIP3   OH233291   4.706   0.864  14.643 -0.1058 -0.3619 -0.1531
 3959TIP3    H133292   4.778   0.878  14.581 -0.4067 -1.5529 -0.8047
 3959TIP3    H233293   4.745   0.880  14.729  0.5519  0.4374 -0.5819
 3960TIP3   OH233294   4.330   4.403   3.736  0.8338 -0.1124  0.4079
 3960TIP3    H133295   4.283   4.455   3.802  0.7881  0.2857  0.0710
 3960TIP3    H233296   4.318   4.312   3.763  1.6895  0.0900  1.5162
 3961TIP3   OH233297   0.694   5.381   3.705  0.2178 -0.0757  0.1488
 3961TIP3    H133298   0.681   5.364   3.798  0.7745 -0.4792  0.1611
 3961TIP3    H233299   0.691   5.295   3.664  0.3588  0.0624 -0.1538
 3962TIP3   OH233300   2.573   0.339   4.575 -0.1214  0.3420 -0.5252
 3962TIP3    H133301   2.523   0.419   4.592 -1.5011 -0.1338 -2.0284
 3962TIP3    H233302   2.507   0.270   4.574  0.7486 -0.5070 -1.2415
 3963TIP3   OH233303   3.607   0.890   2.336 -0.2573 -0.0891  0.1988
 3963TIP3    H133304   3.557   0.853   2.408 -0.3264  0.1032  0.2521
 3963TIP3    H233305   3.637   0.975   2.369 -0.1318 -0.0816  0.0680
 3964TIP3   OH233306   4.326   5.471  14.367  0.5285 -0.0529  0.3190
 3964TIP3    H133307   4.390   5.537  14.392  1.2777 -0.7936  0.3927
 3964TIP3    H233308   4.269   5.463  14.443 -1.0977  2.2470 -0.5447
 3965TIP3   OH233309   2.812   6.199  13.933 -0.5029  0.0594  0.0505
 3965TIP3    H133310   2.880   6.132  13.932 -2.0430 -1.6610  2.3445
 3965TIP3    H233311   2.846   6.268  13.990 -0.3799 -0.4696  0.6235
 3966TIP3   OH233312   3.468   3.579   1.726  0.0643  0.5041  0.0964
 3966TIP3    H133313   3.462   3.631   1.646  0.2631 -1.0069 -0.9365
 3966TIP3    H233314   3.397   3.612   1.781 -0.5557  1.0664 -0.9999
 3967TIP3   OH233315   6.335   6.533  10.520 -0.1441 -0.1850  1.0865
 3967TIP3    H133316   6.265   6.599  10.515  0.5563  0.5887  1.1987
 3967TIP3    H233317   6.344   6.514  10.613  0.2087  0.1802  1.1301
 3968TIP3   OH233318   0.116   0.316  12.918 -0.7473  0.3145 -0.0457
 3968TIP3    H133319   0.035   0.293  12.963  0.0948 -1.3954  0.6609
 3968TIP3    H233320   0.099   0.296  12.826 -0.6232 -1.5932  0.3151
 3969TIP3   OH233321   0.189   5.580   4.415  0.2008  0.1125 -0.2230
 3969TIP3    H133322   0.149   5.532   4.487 -2.1803 -0.7417 -1.9891
 3969TIP3    H233323   0.274   5.608   4.449  0.8667 -3.5242  1.6549
 3970TIP3   OH233324   6.682   1.160  16.005 -0.3483  0.5571 -0.1522
 3970TIP3    H133325   6.758   1.162  16.063 -1.1497 -0.5378  0.9918
 3970TIP3    H233326   6.715   1.189  15.920  0.6059  3.4546  1.1009
 3971TIP3   OH233327   2.479   1.476  11.399  0.3671 -0.4979  0.3415
 3971TIP3    H133328   2.401   1.458  11.347  0.3122  1.5848 -0.4052
 3971TIP3    H233329   2.543   1.412  11.368  0.1861  0.3507 -2.0413
 3972TIP3   OH233330   2.158   2.592   6.533  0.2468  0.5404  0.0782
 3972TIP3    H133331   2.209   2.518   6.566  0.2514  0.3812 -0.2841
 3972TIP3    H233332   2.079   2.552   6.495  0.0989  0.7445  0.1698
 3973TIP3   OH233333   5.395   2.930   6.653 -0.3348 -0.3407  0.0400
 3973TIP3    H133334   5.473   2.958   6.700  0.8558  1.4788 -2.7693
 3973TIP3    H233335   5.421   2.847   6.612  0.3938  0.5809 -1.4100
 3974TIP3   OH233336   4.141   2.932   0.440  0.1312 -0.2763  0.0087
 3974TIP3    H133337   4.116   2.868   0.373 -2.7213  1.3241 -0.5722
 3974TIP3    H233338   4.236   2.940   0.430  0.0709 -1.5948 -2.4605
 3975TIP3   OH233339   3.904   6.193   1.752  0.1946 -0.2493  0.1400
 3975TIP3    H133340   3.849   6.263   1.788  0.8919 -0.0347  0.8325
 3975TIP3    H233341   3.853   6.113   1.763 -0.2090  0.0205  0.2399
 3976TIP3   OH233342   5.510   6.072   2.026  0.6239  0.3811 -0.6818
 3976TIP3    H133343   5.429   6.103   1.986  0.5678 -0.4506 -1.2213
 3976TIP3    H233344   5.482   6.021   2.102  0.7137  1.4997  0.1328
 3977TIP3   OH233345   6.166   5.789   1.896  0.3503  0.2524  0.0309
 3977TIP3    H133346   6.127   5.770   1.810  1.0798 -0.7950 -0.0967
 3977TIP3    H233347   6.100   5.839   1.943 -0.1379  0.6716 -1.0748
 3978TIP3   OH233348   2.020   5.124  12.764 -0.9318 -0.1233  0.2656
 3978TIP3    H133349   2.098   5.146  12.714 -0.7620  1.3655  1.1178
 3978TIP3    H233350   1.963   5.077  12.703  1.0984 -2.3358 -0.0509
 3979TIP3   OH233351   1.299   1.091   2.921 -0.2269  0.0914  0.3172
 3979TIP3    H133352   1.216   1.070   2.963  0.3187 -0.6222  1.0528
 3979TIP3    H233353   1.350   1.136   2.988 -0.1684  0.9224 -0.2632
 3980TIP3   OH233354   5.945   5.551   0.679  0.4754 -0.1922  0.4256
 3980TIP3    H133355   5.999   5.616   0.725  0.5838  1.1168 -1.4006
 3980TIP3    H233356   6.009   5.498   0.631  0.2448  0.3441 -0.4934
 3981TIP3   OH233357   2.499   5.914   6.062 -0.0587  0.6099  0.0245
 3981TIP3    H133358   2.551   5.938   5.985 -0.0415  0.8580  0.1123
 3981TIP3    H233359   2.499   5.993   6.116 -1.3689  0.9444 -0.4260
 3982TIP3   OH233360   5.134   5.007   6.311  0.7087  0.7761 -0.1701
 3982TIP3    H133361   5.211   4.961   6.344  0.4412 -0.7266 -1.4998
 3982TIP3    H233362   5.153   5.099   6.328  0.6992  0.2166  3.7714
 3983TIP3   OH233363   2.997   5.435   4.101  0.2037 -0.0458 -0.5504
 3983TIP3    H133364   3.053   5.359   4.116 -0.3908 -0.7417 -1.7372
 3983TIP3    H233365   3.032   5.502   4.160  0.2897 -1.4481  1.0856
 3984TIP3   OH233366   5.703   5.205   2.788 -0.2225  0.3617 -0.2856
 3984TIP3    H133367   5.796   5.188   2.799  0.0181  1.5182 -0.4231
 3984TIP3    H233368   5.699   5.287   2.738 -1.3099  0.1521 -0.5692
 3985TIP3   OH233369   0.983   1.014  16.351  0.0101  0.6278  0.3542
 3985TIP3    H133370   0.931   0.984  16.425  0.4040 -1.0874 -0.0283
 3985TIP3    H233371   0.939   1.094  16.321 -0.8339  0.6828  1.6733
 3986TIP3   OH233372   2.624   1.246   2.683 -0.2862  0.5521 -0.5372
 3986TIP3    H133373   2.554   1.243   2.748  1.2758  1.8916  1.3350
 3986TIP3    H233374   2.597   1.184   2.615 -2.0632 -0.8291  1.3076
 3987TIP3   OH233375   3.088   1.271  17.128 -0.0434  0.4546 -0.4214
 3987TIP3    H133376   3.125   1.335  17.188  0.1851 -0.3724  0.3509
 3987TIP3    H233377   3.159   1.210  17.111 -0.2363  0.4323 -1.1936
 3988TIP3   OH233378   4.772   5.685   6.059  0.4163 -0.4748 -0.4325
 3988TIP3    H133379   4.688   5.728   6.075  1.2210  1.0498 -0.0909
 3988TIP3    H233380   4.788   5.632   6.137  2.0019  3.0725  1.9040
 3989TIP3   OH233381   3.860   5.402   1.532 -0.4397 -0.0280 -0.1749
 3989TIP3    H133382   3.894   5.326   1.580 -1.9195 -0.6498 -0.0751
 3989TIP3    H233383   3.791   5.367   1.475  0.3234  0.9150 -1.7631
 3990TIP3   OH233384   0.346   1.938  12.747  0.1589 -0.5674 -0.2509
 3990TIP3    H133385   0.404   1.976  12.681 -0.5229 -1.5563 -1.4591
 3990TIP3    H233386   0.381   1.969  12.831  1.3037  0.3638 -1.0469
 3991TIP3   OH233387   2.533   2.812  13.733 -0.0342 -0.1001 -0.1359
 3991TIP3    H133388   2.572   2.872  13.797 -0.1224  0.3338 -0.4851
 3991TIP3    H233389   2.547   2.725  13.770  5.3477 -0.5308 -2.2189
 3992TIP3   OH233390   4.635   1.175  11.384 -0.2478 -0.4644  0.0094
 3992TIP3    H133391   4.575   1.244  11.413  1.7416  0.3570  2.5993
 3992TIP3    H233392   4.702   1.222  11.333 -0.9650 -1.1509 -1.6226
 3993TIP3   OH233393   5.764   0.134   0.400 -0.1145  0.3496 -0.4406
 3993TIP3    H133394   5.859   0.135   0.415 -0.3665  0.5984  1.4584
 3993TIP3    H233395   5.737   0.046   0.426 -0.4557  0.3996 -0.6147
 3994TIP3   OH233396   1.232   2.351  16.097  0.0571 -0.3288  0.1656
 3994TIP3    H133397   1.292   2.398  16.039  1.8038  0.1511  2.2485
 3994TIP3    H233398   1.149   2.351  16.049  1.4679 -0.3280 -2.4811
 3995TIP3   OH233399   5.250   0.009  16.666  0.1126  0.0216  0.0753
 3995TIP3    H133400   5.248   0.025  16.760 -0.5646  2.1130 -0.2462
 3995TIP3    H233401   5.200   0.082  16.628  1.3412 -0.1345 -1.9833
 3996TIP3   OH233402   6.290   4.511  14.753 -0.0919 -0.3693 -0.1288
 3996TIP3    H133403   6.235   4.461  14.693  0.7124 -0.3708 -0.8845
 3996TIP3    H233404   6.242   4.592  14.768 -0.6439 -0.6828 -0.1888
 3997TIP3   OH233405   4.884   3.252  14.861 -0.4098 -0.0690 -0.8059
 3997TIP3    H133406   4.800   3.297  14.850 -1.0975 -1.0202  0.2668
 3997TIP3    H233407   4.862   3.171  14.908  1.0380 -0.6065 -0.9964
 3998TIP3   OH233408   2.008   5.307   2.879 -0.3669 -0.6419 -0.1577
 3998TIP3    H133409   1.917   5.285   2.897 -0.6150  0.0567 -0.5290
 3998TIP3    H233410   2.048   5.318   2.965 -0.3177 -2.1399  0.0470
 3999TIP3   OH233411   2.742   4.119   6.572  0.1740  0.4908  0.1922
 3999TIP3    H133412   2.763   4.093   6.482 -0.6554 -1.4812  0.5177
 3999TIP3    H233413   2.703   4.206   6.564 -1.7341 -0.4448 -1.6153
 4000TIP3   OH233414   4.522   1.305  16.157 -0.2519  0.2620  0.2491
 4000TIP3    H133415   4.539   1.333  16.067 -1.2355  0.3854  0.0876
 4000TIP3    H233416   4.445   1.355  16.183 -0.4703 -0.3855  0.8765
 4001TIP3   OH233417   3.809   2.153   0.760  0.5496  0.2766 -0.5185
 4001TIP3    H133418   3.714   2.144   0.763  0.5314  0.6975  0.6393
 4001TIP3    H233419   3.834   2.168   0.851  1.4833  2.4867 -1.0932
 4002TIP3   OH233420   1.795   0.079  15.387 -0.1411  0.5138 -0.3060
 4002TIP3    H133421   1.756   0.021  15.322  1.3400 -2.5369  1.3046
 4002TIP3    H233422   1.880   0.103  15.350  0.6009 -1.0312  0.2801
 4003TIP3   OH233423   6.339   1.586  13.843  0.2638  0.2219 -0.2371
 4003TIP3    H133424   6.357   1.510  13.899 -0.3500  0.1152 -0.1805
 4003TIP3    H233425   6.391   1.570  13.763  1.3649  0.5094  0.3920
 4004TIP3   OH233426   1.553   6.371   1.463 -0.3423 -0.4161  0.5766
 4004TIP3    H133427   1.492   6.303   1.433 -1.4282  0.4476  0.7499
 4004TIP3    H233428   1.526   6.389   1.553  0.4567 -0.3172  0.8028
 4005TIP3   OH233429   4.717   0.689   1.608 -0.8340  0.4548 -0.3719
 4005TIP3    H133430   4.734   0.775   1.570  1.4017  0.8390  1.3547
 4005TIP3    H233431   4.794   0.636   1.585 -1.1789 -0.4290  0.4179
 4006TIP3   OH233432   2.665   0.259  12.589  0.6474  0.2488 -0.6004
 4006TIP3    H133433   2.698   0.182  12.637  0.5019 -0.2845 -1.3417
 4006TIP3    H233434   2.593   0.225  12.537 -0.0541  1.0958 -0.2019
 4007TIP3   OH233435   1.510   5.229  16.491  0.1702  0.3745 -0.5074
 4007TIP3    H133436   1.546   5.292  16.429  1.3088 -0.5675 -0.8397
 4007TIP3    H233437   1.437   5.275  16.531 -0.1847  1.2454 -2.0613
 4008TIP3   OH233438   6.346   3.879   1.175  0.3011 -0.4049 -0.5067
 4008TIP3    H133439   6.354   3.793   1.218  1.4195  0.0797  0.3043
 4008TIP3    H233440   6.309   3.860   1.089  0.8154 -1.7295 -0.4505
 4009TIP3   OH233441   2.833   5.676  13.195  0.3000  0.5969  0.1542
 4009TIP3    H133442   2.761   5.652  13.254  0.1956  0.7032  0.0708
 4009TIP3    H233443   2.905   5.701  13.253 -0.4679  2.7762  0.2846
 4010TIP3   OH233444   4.689   4.620  13.225  0.1465  0.1977  0.1187
 4010TIP3    H133445   4.734   4.538  13.246  1.7868  1.0338 -0.0641
 4010TIP3    H233446   4.748   4.665  13.165 -1.2887  0.9949 -0.7448
 4011TIP3   OH233447   0.582   1.671  11.658  0.2024 -0.1302  0.0293
 4011TIP3    H133448   0.577   1.658  11.564  3.3311 -1.1846 -0.1102
 4011TIP3    H233449   0.521   1.607  11.695  0.1687 -0.8495 -1.2323
 4012TIP3   OH233450   2.833   4.147   5.965 -0.5654  0.0015 -0.0762
 4012TIP3    H133451   2.815   4.055   5.985  0.7160  0.0086  1.3239
 4012TIP3    H233452   2.832   4.152   5.870 -0.5140 -1.4920 -0.1772
 4013TIP3   OH233453   2.096   1.650   3.960  0.1885  0.6451 -0.5963
 4013TIP3    H133454   2.179   1.613   3.990 -0.2402  0.9583  1.0697
 4013TIP3    H233455   2.120   1.715   3.895  1.2131  0.4495 -0.4273
 4014TIP3   OH233456   5.804   1.280  14.115 -0.4794  0.4009  0.2228
 4014TIP3    H133457   5.741   1.208  14.125  1.3285 -1.4696 -0.9907
 4014TIP3    H233458   5.887   1.236  14.097  0.8184  2.8205 -0.0585
 4015TIP3   OH233459   4.757   1.355  16.283 -0.1362 -0.6179 -0.1466
 4015TIP3    H133460   4.681   1.307  16.250 -0.0387 -0.4167 -0.6761
 4015TIP3    H233461   4.818   1.358  16.209  0.6908 -1.3848  0.4919
 4016TIP3   OH233462   2.004   6.053  11.516 -0.3029 -0.3734 -0.5093
 4016TIP3    H133463   1.962   6.057  11.430  0.4920  0.2591 -0.8770
 4016TIP3    H233464   1.995   6.142  11.551 -0.2583 -0.5237 -0.1096
 4017TIP3   OH233465   2.308   2.460  13.867 -0.2343 -0.2740  0.4709
 4017TIP3    H133466   2.220   2.424  13.852 -1.1034  1.4677  1.0845
 4017TIP3    H233467   2.317   2.462  13.962  1.9049 -3.5687  0.4978
 4018TIP3   OH233468   1.480   2.009  14.820  0.2688  0.3515 -1.0719
 4018TIP3    H133469   1.489   1.992  14.914 -0.4983 -1.8960 -1.3452
 4018TIP3    H233470   1.397   2.056  14.811  1.1646  2.1159 -0.5098
 4019TIP3   OH233471   5.526   0.584  12.643  0.5315 -0.8086  0.5612
 4019TIP3    H133472   5.572   0.500  12.649  0.1066 -1.1423 -0.5507
 4019TIP3    H233473   5.580   0.645  12.693  1.2999 -1.5607  0.6665
 4020TIP3   OH233474   2.398   3.358  12.816 -0.0960 -0.0580  0.3011
 4020TIP3    H133475   2.415   3.278  12.768  0.8170  0.5953 -0.5007
 4020TIP3    H233476   2.480   3.408  12.811 -0.7406  1.0704  0.4590
 4021TIP3   OH233477   5.693   5.599  14.591 -0.7032 -0.1378  0.6539
 4021TIP3    H133478   5.691   5.694  14.580 -0.6791 -0.3508 -1.7195
 4021TIP3    H233479   5.604   5.571  14.567  0.2080 -0.9411 -2.1925
 4022TIP3   OH233480   6.182   0.679  13.603  0.1731  0.1712 -0.7067
 4022TIP3    H133481   6.167   0.754  13.661  0.9566 -0.9636  1.0396
 4022TIP3    H233482   6.110   0.682  13.540 -0.9147  1.2525  0.5477
 4023TIP3   OH233483   6.277   5.549  13.710  0.2483 -0.8679  0.0505
 4023TIP3    H133484   6.205   5.508  13.662 -0.9157  0.5896  0.4751
 4023TIP3    H233485   6.352   5.492  13.694 -0.8156 -2.0287 -1.0257
 4024TIP3   OH233486   2.302   5.174   3.130  0.2622  0.0352  0.0127
 4024TIP3    H133487   2.238   5.165   3.201 -0.8744  0.1386 -0.9662
 4024TIP3    H233488   2.289   5.263   3.097  2.2145  0.7399  0.9682
 4025TIP3   OH233489   3.969   3.206   3.725 -0.5710  0.0533  0.1541
 4025TIP3    H133490   4.032   3.135   3.711 -0.6152 -0.0963  0.6946
 4025TIP3    H233491   3.929   3.186   3.810 -1.5583 -0.0040 -0.3235
 4026TIP3   OH233492   1.120   5.059  13.793  0.0997  0.0633  0.2431
 4026TIP3    H133493   1.032   5.089  13.768 -0.5496 -0.3864  1.8556
 4026TIP3    H233494   1.111   4.965  13.804  0.8416 -0.0119  0.2214
 4027TIP3   OH233495   3.602   5.183  14.803  0.2231 -0.1785 -0.3303
 4027TIP3    H133496   3.647   5.158  14.883 -1.8685 -0.8964  0.7087
 4027TIP3    H233497   3.614   5.108  14.744 -0.3006 -0.7348  0.2546
 4028TIP3   OH233498   2.779   1.030  12.341 -0.0536 -0.3751  0.0886
 4028TIP3    H133499   2.860   1.081  12.340 -0.5708  0.4802  0.7934
 4028TIP3    H233500   2.803   0.947  12.382  0.5420 -0.2634 -0.0277
 4029TIP3   OH233501   3.891   1.238  14.684 -0.7028 -0.0381  0.1491
 4029TIP3    H133502   3.833   1.310  14.658  0.0006  0.5105  0.0519
 4029TIP3    H233503   3.965   1.244  14.623  1.2404  1.5800  2.4816
 4030TIP3   OH233504   1.993   0.851   0.549  0.2194  0.1028 -0.1282
 4030TIP3    H133505   2.063   0.916   0.549 -1.2215  1.7373 -0.4566
 4030TIP3    H233506   1.941   0.872   0.471 -1.6565  0.1538  1.0647
 4031TIP3   OH233507   0.172   0.395  16.356  0.0472 -0.0224 -0.4343
 4031TIP3    H133508   0.254   0.440  16.336  0.4898 -0.9114 -0.6823
 4031TIP3    H233509   0.133   0.445  16.427  0.9328  0.2650 -0.1389
 4032TIP3   OH233510   2.959   4.367   3.218  0.3722  0.0172 -1.0312
 4032TIP3    H133511   2.935   4.311   3.292 -0.2010 -0.3385 -1.4753
 4032TIP3    H233512   2.928   4.319   3.141  1.8740 -0.0998 -1.5883
 4033TIP3   OH233513   2.779   1.345   2.966  0.7621  0.1129 -0.1536
 4033TIP3    H133514   2.795   1.312   2.878  1.1661  2.1094 -0.8686
 4033TIP3    H233515   2.821   1.281   3.023  1.8288 -0.4119 -1.4774
 4034TIP3   OH233516   0.231   4.246   1.292 -0.5494 -0.4003  0.1528
 4034TIP3    H133517   0.221   4.252   1.387 -0.5994  0.0829  0.1197
 4034TIP3    H233518   0.142   4.238   1.259 -0.8065  2.1713 -0.0243
 4035TIP3   OH233519   1.535   0.781   2.107 -0.3091  0.1570  0.5768
 4035TIP3    H133520   1.492   0.794   2.192 -2.2238 -0.5754 -0.2200
 4035TIP3    H233521   1.483   0.833   2.046  0.1197 -0.5235 -0.3966
 4036TIP3   OH233522   1.510   3.300  15.394  0.6638 -0.1001  0.8100
 4036TIP3    H133523   1.432   3.309  15.449 -0.8414 -2.7844 -0.6606
 4036TIP3    H233524   1.580   3.277  15.454  0.1232  1.3229  2.0510
 4037TIP3   OH233525   2.653   0.829   5.798 -0.1377 -0.5300  0.1292
 4037TIP3    H133526   2.626   0.919   5.817 -0.1029 -0.4478 -0.2140
 4037TIP3    H233527   2.649   0.785   5.883 -0.6197 -0.3296  0.2145
 4038TIP3   OH233528   0.080   0.939   1.026 -0.0367 -0.6162 -0.5589
 4038TIP3    H133529   0.161   0.989   1.034 -0.1227  0.0188 -2.9061
 4038TIP3    H233530   0.104   0.862   0.975 -0.9019 -0.3278 -1.4456
 4039TIP3   OH233531   0.112   3.775  15.690  0.2239  0.4436  0.5588
 4039TIP3    H133532   0.017   3.786  15.693 -0.0479 -1.2396 -0.4197
 4039TIP3    H233533   0.127   3.714  15.617  1.8817 -0.9307  1.9450
 4040TIP3   OH233534   1.698   5.231   5.108  0.1780  0.4642 -0.6484
 4040TIP3    H133535   1.767   5.205   5.046  1.5571 -0.4153  1.1634
 4040TIP3    H233536   1.634   5.160   5.103  1.1123 -0.4679  0.1007
 4041TIP3   OH233537   5.918   5.421   5.023  0.0471  0.5847 -0.3644
 4041TIP3    H133538   5.981   5.384   4.962 -0.5968 -1.2054 -0.0171
 4041TIP3    H233539   5.963   5.422   5.107 -0.3263 -0.6730 -0.1208
 4042TIP3   OH233540   3.742   5.165  10.432  0.0330 -0.6654 -0.1384
 4042TIP3    H133541   3.819   5.115  10.405  1.4330  0.0647  2.2650
 4042TIP3    H233542   3.775   5.252  10.454 -1.9752  0.6253 -1.8262
 4043TIP3   OH233543   0.453   1.732  16.312  0.0466 -0.6754  0.5588
 4043TIP3    H133544   0.380   1.757  16.256 -0.0903 -0.0018  1.0122
 4043TIP3    H233545   0.518   1.802  16.298  1.0047 -1.7427 -0.5356
 4044TIP3   OH233546   3.970   3.403   3.142 -0.4207 -0.4989  0.0539
 4044TIP3    H133547   3.950   3.488   3.180 -0.3110 -0.6949  0.5603
 4044TIP3    H233548   3.911   3.396   3.067  0.7872  0.7754 -1.0731
 4045TIP3   OH233549   5.768   4.352  12.757 -0.0241 -0.0859  0.0948
 4045TIP3    H133550   5.680   4.378  12.786 -0.3099 -0.9478  0.0487
 4045TIP3    H233551   5.811   4.434  12.734 -0.8092  0.3542  0.1436
 4046TIP3   OH233552   6.020   6.208  13.504  0.1215 -0.0022  0.5578
 4046TIP3    H133553   6.069   6.284  13.538  1.2808 -0.0428 -0.9171
 4046TIP3    H233554   6.088   6.148  13.473 -0.8440 -0.6057 -0.4378
 4047TIP3   OH233555   4.026   5.622  14.796 -0.4041  0.1451 -0.1070
 4047TIP3    H133556   3.953   5.660  14.747  0.2951 -0.0022 -1.3029
 4047TIP3    H233557   3.998   5.533  14.817 -0.4835  0.0019 -0.7884
 4048TIP3   OH233558   3.279   3.834  13.569  0.3817  0.1142 -0.1088
 4048TIP3    H133559   3.281   3.811  13.662  2.9607  2.5648  0.5805
 4048TIP3    H233560   3.292   3.752  13.523  0.6618 -0.9334  1.7518
 4049TIP3   OH233561   5.672   5.680  15.756 -0.3547 -0.0901 -0.3168
 4049TIP3    H133562   5.691   5.740  15.684  0.0220 -1.5403 -1.4706
 4049TIP3    H233563   5.577   5.686  15.767 -0.3842  0.3560 -0.7675
 4050TIP3   OH233564   6.381   4.693   2.495  0.2377  0.0389  0.4956
 4050TIP3    H133565   6.468   4.653   2.498  0.1528 -0.4626 -1.8194
 4050TIP3    H233566   6.325   4.631   2.543  0.7370 -0.8605 -0.0673
 4051TIP3   OH233567   1.501   2.457  12.892  0.5329  0.6820 -0.2237
 4051TIP3    H133568   1.413   2.425  12.913  0.3668 -0.7928 -2.7527
 4051TIP3    H233569   1.560   2.397  12.938  0.2296  0.6765  0.1637
 4052TIP3   OH233570   3.921   4.567  15.443  0.0200  0.3821  0.0942
 4052TIP3    H133571   3.922   4.541  15.535 -0.9200 -1.3086 -0.3308
 4052TIP3    H233572   3.830   4.554  15.416  0.6104 -0.7630 -1.4955
 4053TIP3   OH233573   6.222   0.573   3.500  0.7800 -0.5284  0.5639
 4053TIP3    H133574   6.308   0.573   3.457  0.4604  0.9567 -0.1216
 4053TIP3    H233575   6.193   0.482   3.494  1.5291 -0.7101 -0.7682
 4054TIP3   OH233576   1.629   4.407   0.118  0.0949  0.3057  0.0615
 4054TIP3    H133577   1.564   4.474   0.140  1.1403  1.7639 -1.0564
 4054TIP3    H233578   1.638   4.413   0.022  1.4115 -0.2935  0.1168
 4055TIP3   OH233579   5.438   4.293  14.801  0.2362 -0.6164 -0.4315
 4055TIP3    H133580   5.496   4.252  14.864  0.5623  0.3658 -0.0698
 4055TIP3    H233581   5.443   4.387  14.821 -0.8837 -0.4407 -0.8898
 4056TIP3   OH233582   1.289   4.907  10.468  0.4699 -0.2912 -0.0676
 4056TIP3    H133583   1.383   4.911  10.485  0.4190 -1.1031  0.4936
 4056TIP3    H233584   1.251   4.878  10.551 -0.3515  0.6814 -0.0872
 4057TIP3   OH233585   4.903   2.397   4.776  0.2310  0.6592  0.3447
 4057TIP3    H133586   4.907   2.328   4.843 -1.3464  1.0799  0.9237
 4057TIP3    H233587   4.818   2.385   4.734  1.7608 -0.5418 -2.7243
 4058TIP3   OH233588   0.172   4.682   4.452  0.2512 -0.1615 -0.0156
 4058TIP3    H133589   0.157   4.589   4.467 -1.3569 -0.0689 -0.8061
 4058TIP3    H233590   0.089   4.723   4.476  0.1561  0.7926 -1.8656
 4059TIP3   OH233591   2.261   5.931   5.064 -0.2427 -0.2858  0.0854
 4059TIP3    H133592   2.320   5.951   5.137 -0.9067  1.6927  0.1373
 4059TIP3    H233593   2.194   5.874   5.102 -0.8075  1.0457  1.1506
 4060TIP3   OH233594   2.662   2.915  16.242 -0.0045 -0.0342  0.2989
 4060TIP3    H133595   2.663   2.939  16.150  0.6882  1.6777  0.7039
 4060TIP3    H233596   2.754   2.921  16.269 -0.2021 -0.4815  1.1094
 4061TIP3   OH233597   5.514   6.132   0.669 -0.0275 -0.1338 -0.8178
 4061TIP3    H133598   5.594   6.117   0.618 -0.1241 -0.6008 -0.8373
 4061TIP3    H233599   5.488   6.045   0.699 -1.3431 -0.1939 -2.0389
 4062TIP3   OH233600   5.380   2.243   4.900 -0.8510  0.7058 -0.3973
 4062TIP3    H133601   5.387   2.337   4.916  0.5792  0.3921  1.0986
 4062TIP3    H233602   5.451   2.222   4.840 -0.8233  0.4929 -0.2921
 4063TIP3   OH233603   3.547   0.548  14.252  0.2550  0.0464 -0.2439
 4063TIP3    H133604   3.631   0.503  14.253 -0.9355 -2.5376  2.4888
 4063TIP3    H233605   3.552   0.609  14.325 -0.2627 -0.2754  0.0702
 4064TIP3   OH233606   6.580   2.657   2.941  0.2273 -0.1974 -0.2844
 4064TIP3    H133607   6.544   2.577   2.980  1.4995 -0.6825 -0.0520
 4064TIP3    H233608   6.673   2.638   2.928  0.2682  0.7195 -1.6066
 4065TIP3   OH233609   5.137   2.050  14.444  0.0001  0.6497 -0.3619
 4065TIP3    H133610   5.218   2.099  14.425  0.5619 -0.2713 -0.4103
 4065TIP3    H233611   5.076   2.116  14.475  1.4165  1.1041  1.6531
 4066TIP3   OH233612   3.467   1.348   3.575 -0.2276  0.2465 -0.6498
 4066TIP3    H133613   3.559   1.351   3.600 -0.3845 -1.9879  0.4370
 4066TIP3    H233614   3.419   1.336   3.657 -1.8753  4.2130 -0.7739
 4067TIP3   OH233615   1.349   1.165  15.600 -0.0328 -0.3663 -0.2556
 4067TIP3    H133616   1.365   1.142  15.692 -1.4927  0.0067  0.1056
 4067TIP3    H233617   1.396   1.248  15.588 -2.2319  1.1578  1.0311
 4068TIP3   OH233618   3.952   3.381   1.569 -0.1219  0.1843  0.1051
 4068TIP3    H133619   4.003   3.454   1.533  0.8024 -0.2985  0.4108
 4068TIP3    H233620   3.955   3.394   1.663  0.9462 -0.8110  0.2319
 4069TIP3   OH233621   0.687   2.572  15.602 -0.2567 -0.3025  0.1625
 4069TIP3    H133622   0.617   2.509  15.583  0.9307 -1.7224  0.3407
 4069TIP3    H233623   0.765   2.533  15.564  0.4810  1.2043  0.0770
 4070TIP3   OH233624   2.712   6.517   5.237  0.1482 -0.3033  0.1794
 4070TIP3    H133625   2.696   6.609   5.259  1.5963  0.1503 -0.5373
 4070TIP3    H233626   2.798   6.498   5.274  0.3739 -1.0109 -0.6678
 4071TIP3   OH233627   6.076   0.333   4.830 -0.2149  0.0295  0.4100
 4071TIP3    H133628   6.099   0.423   4.805 -0.4327  0.9028  3.0551
 4071TIP3    H233629   5.984   0.324   4.807  0.1723 -0.0665 -1.2156
 4072TIP3   OH233630   0.014   0.263   6.698  0.1395  0.7992  0.0941
 4072TIP3    H133631   0.096   0.311   6.691  0.2798  0.3675 -1.6829
 4072TIP3    H233632   0.034   0.176   6.662 -0.6695  0.1295  1.1906
 4073TIP3   OH233633   5.945   2.288  14.625  0.0792 -0.3364 -0.9719
 4073TIP3    H133634   5.872   2.239  14.663  0.8750  0.1836  1.3905
 4073TIP3    H233635   5.915   2.378  14.624  0.5118 -0.1736 -0.3356
 4074TIP3   OH233636   6.319   4.698   6.564  0.5874  0.1330  0.1410
 4074TIP3    H133637   6.393   4.655   6.607 -0.0752 -2.3908 -1.0596
 4074TIP3    H233638   6.356   4.737   6.485  1.2403  2.1867  1.3636
 4075TIP3   OH233639   1.785   2.618  16.845 -0.3915  0.6083 -0.2886
 4075TIP3    H133640   1.805   2.527  16.869 -0.8344  1.0491  1.9712
 4075TIP3    H233641   1.863   2.667  16.869  0.2241  0.7606 -2.3847
 4076TIP3   OH233642   5.153   3.435  14.190  0.4767  0.2989  0.2794
 4076TIP3    H133643   5.152   3.405  14.099  2.7830  1.3980 -0.1807
 4076TIP3    H233644   5.210   3.373  14.235  0.8923  0.8428  0.5194
 4077TIP3   OH233645   5.040   5.920  16.401 -0.1245  0.9798 -0.2443
 4077TIP3    H133646   5.035   5.990  16.466 -0.4062  0.6960  0.0443
 4077TIP3    H233647   5.026   5.840  16.451 -2.2338  0.8704 -0.9039
 4078TIP3   OH233648   0.158   5.807   0.507  0.6508  0.1991  0.1949
 4078TIP3    H133649   0.096   5.839   0.442 -0.4205  1.1548  1.6283
 4078TIP3    H233650   0.110   5.738   0.555  1.4496 -0.5528 -0.0600
 4079TIP3   OH233651   0.848   4.679  14.041 -0.3821 -0.9430  0.4258
 4079TIP3    H133652   0.921   4.672  14.103 -1.0494 -0.0970  1.3379
 4079TIP3    H233653   0.771   4.693  14.096 -0.7377  1.9057 -0.6358
 4080TIP3   OH233654   4.549   6.721   6.112  0.3715 -0.1289 -0.1395
 4080TIP3    H133655   4.521   6.633   6.087 -2.1140  0.5796 -0.1788
 4080TIP3    H233656   4.489   6.746   6.183 -0.0620  2.0901 -1.1962
 4081TIP3   OH233657   4.533   3.703  12.315  0.1434  0.0261 -0.7127
 4081TIP3    H133658   4.534   3.678  12.407  0.6964  2.0195 -0.1173
 4081TIP3    H233659   4.443   3.686  12.287 -0.6689  1.4128  0.8478
 4082TIP3   OH233660   0.978   4.250   2.794 -0.5968 -0.2054 -0.0764
 4082TIP3    H133661   1.014   4.275   2.879 -1.1753 -0.6209  0.3022
 4082TIP3    H233662   0.884   4.238   2.811 -0.7794  0.0799 -0.8591
 4083TIP3   OH233663   5.840   1.799  10.811  0.3993  0.1478  0.2348
 4083TIP3    H133664   5.833   1.788  10.716  1.3781  3.9978 -0.4698
 4083TIP3    H233665   5.919   1.750  10.836 -1.2922 -3.1276 -0.3137
 4084TIP3   OH233666   1.455   1.695  17.050 -0.2074 -0.1400  0.1732
 4084TIP3    H133667   1.509   1.617  17.032  1.1577  1.0488 -1.1429
 4084TIP3    H233668   1.419   1.679  17.137  2.7786 -0.7615  1.4442
 4085TIP3   OH233669   0.930   5.021  16.396  0.2532  0.4721 -0.8267
 4085TIP3    H133670   0.938   5.110  16.359  0.1160  0.4372 -0.9424
 4085TIP3    H233671   0.841   4.994  16.374 -0.7214  1.3887  1.6379
 4086TIP3   OH233672   4.142   5.935  13.111  0.1954  0.0935  1.0507
 4086TIP3    H133673   4.091   5.879  13.170 -2.3702  0.7457 -0.3988
 4086TIP3    H233674   4.150   5.884  13.030  0.4063  0.6621  0.7055
 4087TIP3   OH233675   0.619   2.577   0.009  0.6114  1.3710  1.0888
 4087TIP3    H133676   0.595   2.613  -0.077  0.4132 -0.7322  0.2166
 4087TIP3    H233677   0.537   2.542   0.044  1.3627 -1.6456  0.1580
 4088TIP3   OH233678   0.342   2.107  16.020  0.1148 -0.5142 -0.5885
 4088TIP3    H133679   0.320   2.084  16.110  0.3354  0.7919 -0.1868
 4088TIP3    H233680   0.422   2.058  16.002 -0.0842 -0.9994 -0.1840
 4089TIP3   OH233681   3.249   6.144   5.233 -0.2535  0.4450  0.4375
 4089TIP3    H133682   3.247   6.100   5.148  0.5558  1.0440  0.0963
 4089TIP3    H233683   3.233   6.236   5.213 -0.6193  0.5101  1.0020
 4090TIP3   OH233684   5.068   2.890   0.611 -0.4441  0.6148  0.0059
 4090TIP3    H133685   5.133   2.857   0.672 -1.0338 -1.3358 -0.3451
 4090TIP3    H233686   4.985   2.883   0.658 -0.6154  1.3838 -0.1742
 4091TIP3   OH233687   0.107   3.657   3.539  0.7135 -0.4245 -0.5758
 4091TIP3    H133688   0.179   3.653   3.476  0.0854 -0.0665 -1.3377
 4091TIP3    H233689   0.041   3.598   3.503 -0.0454  0.5302 -0.7748
 4092TIP3   OH233690   4.249   2.595  15.810 -0.0425  0.1628  0.2299
 4092TIP3    H133691   4.329   2.544  15.814 -0.2092 -0.0407  1.3376
 4092TIP3    H233692   4.217   2.585  15.720  2.2212  1.8874 -0.8637
 4093TIP3   OH233693   5.175   2.022   0.809  0.4415 -0.0558 -0.3000
 4093TIP3    H133694   5.164   1.960   0.881  1.6180 -0.8490 -0.7757
 4093TIP3    H233695   5.259   1.999   0.770  0.6713  1.5240 -0.8130
 4094TIP3   OH233696   3.964   6.481  16.593 -0.1187  0.1468 -0.5467
 4094TIP3    H133697   3.884   6.515  16.553  0.4182 -0.6589 -2.3980
 4094TIP3    H233698   3.934   6.409  16.648 -0.8152  0.8898  0.0833
 4095TIP3   OH233699   3.811   5.658   4.845  0.4683 -0.5107 -0.8080
 4095TIP3    H133700   3.764   5.718   4.788  0.4369  0.5569  0.3049
 4095TIP3    H233701   3.857   5.599   4.785  2.4161  2.0511 -2.0334
 4096TIP3   OH233702   4.635   6.138  15.627 -0.1314 -0.9347  0.0604
 4096TIP3    H133703   4.693   6.200  15.582 -0.4912 -1.7163 -1.5621
 4096TIP3    H233704   4.682   6.115  15.707  1.1763 -0.5131 -0.5592
 4097TIP3   OH233705   4.027   0.682  16.859 -0.1665 -0.1132  0.4744
 4097TIP3    H133706   4.018   0.589  16.877  0.8326 -0.3559 -0.2056
 4097TIP3    H233707   4.012   0.725  16.944 -0.6643 -0.8769  0.7816
 4098TIP3   OH233708   4.670   6.690  15.976  0.0975  0.0552  0.5219
 4098TIP3    H133709   4.744   6.645  15.934  1.7645  2.3841  0.8011
 4098TIP3    H233710   4.657   6.643  16.058 -0.5610 -2.0472 -0.7056
 4099TIP3   OH233711   4.804   2.061   4.561 -0.5239 -0.2604  0.3666
 4099TIP3    H133712   4.834   2.070   4.652 -2.6553 -2.4528  1.3683
 4099TIP3    H233713   4.850   1.984   4.528  1.4065  1.3724 -1.0352
 4100TIP3   OH233714   5.812   4.354  16.949 -0.0084 -0.2135 -0.6675
 4100TIP3    H133715   5.787   4.426  17.007 -1.3232 -0.9298 -0.2941
 4100TIP3    H233716   5.846   4.287  17.008 -0.2125 -0.4723 -0.8428
 4101TIP3   OH233717   3.537   5.229  15.210 -0.1049  0.2834  0.5144
 4101TIP3    H133718   3.459   5.253  15.161  0.4064 -0.1194 -0.5242
 4101TIP3    H233719   3.508   5.226  15.302 -1.0156  1.2603  0.2684
 4102TIP3   OH233720   2.053   2.905  13.784  0.3028 -0.2658  0.6802
 4102TIP3    H133721   2.037   2.842  13.715  0.9971  0.1488  0.1258
 4102TIP3    H233722   2.128   2.957  13.753  0.3451  0.2137  1.5371
 4103TIP3   OH233723   1.467   2.617   1.972  0.2027 -0.2079  0.5061
 4103TIP3    H133724   1.433   2.554   2.035 -1.9822 -0.1913 -0.5700
 4103TIP3    H233725   1.508   2.685   2.026 -3.0513  0.6989  2.1331
 4104TIP3   OH233726   1.493   0.444   3.898 -0.2461 -0.1922  0.1125
 4104TIP3    H133727   1.543   0.519   3.867 -0.7204 -0.4134 -1.2474
 4104TIP3    H233728   1.550   0.369   3.883  0.1954 -0.1410  1.3953
 4105TIP3   OH233729   6.484   3.653   0.104  0.1194  0.1606 -0.1829
 4105TIP3    H133730   6.490   3.709   0.181 -3.2047  1.6734 -0.8561
 4105TIP3    H233731   6.489   3.713   0.030  0.1076 -0.8925 -1.0693
 4106TIP3   OH233732   4.051   6.012   4.635  0.5949  0.3454  0.3576
 4106TIP3    H133733   4.101   5.965   4.568  0.5931  0.1193  0.5157
 4106TIP3    H233734   4.116   6.070   4.675  0.6198  0.4062  0.2307
 4107TIP3   OH233735   2.679   4.745   0.213 -0.0904  0.0628  0.1676
 4107TIP3    H133736   2.709   4.835   0.227  0.0235 -0.1952  1.9304
 4107TIP3    H233737   2.587   4.753   0.190  0.2417  0.6732 -1.0249
 4108TIP3   OH233738   3.766   3.010  14.160  0.3232  0.0381  0.1800
 4108TIP3    H133739   3.770   2.976  14.249 -1.8854  1.6251  0.9851
 4108TIP3    H233740   3.752   3.104  14.171 -1.9404  0.0231 -1.7662
 4109TIP3   OH233741   3.654   5.572   4.295  0.3198 -0.0251  0.0720
 4109TIP3    H133742   3.585   5.623   4.336  0.2554 -1.0343  1.3153
 4109TIP3    H233743   3.644   5.586   4.201 -1.4299  0.0216  0.2460
 4110TIP3   OH233744   3.857   4.047  15.943  0.0775 -0.1157 -0.1546
 4110TIP3    H133745   3.941   4.004  15.960  1.3573  2.4781  0.5794
 4110TIP3    H233746   3.792   3.991  15.986  1.7177 -0.8693  1.4766
 4111TIP3   OH233747   3.320   4.146  11.844  0.1488  0.2338  0.2158
 4111TIP3    H133748   3.415   4.157  11.852  0.3842 -1.1702 -0.3679
 4111TIP3    H233749   3.283   4.219  11.894  1.5292  0.2227  1.3152
 4112TIP3   OH233750   2.422   6.246   1.577 -0.7887  0.2379 -0.1045
 4112TIP3    H133751   2.399   6.217   1.665  0.0747 -1.0599 -0.2776
 4112TIP3    H233752   2.339   6.275   1.539 -1.3577 -0.1937  0.7771
 4113TIP3   OH233753   5.470   0.293  15.139 -0.2509 -0.5271  0.1776
 4113TIP3    H133754   5.473   0.375  15.089  2.0838 -1.1965 -0.9228
 4113TIP3    H233755   5.482   0.320  15.230 -0.9027  0.4291  0.0002
 4114TIP3   OH233756   0.358   4.901   5.679 -0.7236 -0.1399  0.2362
 4114TIP3    H133757   0.307   4.886   5.600  0.6425 -0.8097 -0.5621
 4114TIP3    H233758   0.299   4.947   5.738 -1.8536  0.1412 -1.0751
 4115TIP3   OH233759   1.452   0.659  12.357 -0.5475 -0.1704  0.2385
 4115TIP3    H133760   1.506   0.737  12.346  0.3010 -0.5153  1.6693
 4115TIP3    H233761   1.366   0.692  12.383 -0.9863  0.3680 -1.7290
 4116TIP3   OH233762   3.383   1.670   2.399  0.2275 -0.4930  0.0441
 4116TIP3    H133763   3.389   1.588   2.351  1.3103 -1.1399  1.2219
 4116TIP3    H233764   3.317   1.655   2.466  0.3041 -0.3568  0.1519
 4117TIP3   OH233765   5.712   0.665   1.125 -0.0611  0.1103  0.0590
 4117TIP3    H133766   5.630   0.643   1.081  0.7749  0.4991 -1.7570
 4117TIP3    H233767   5.689   0.736   1.185 -1.2564 -0.5477  0.4098
 4118TIP3   OH233768   3.480   2.799   0.994 -0.5568  0.6957  0.5845
 4118TIP3    H133769   3.442   2.715   0.968  1.3981 -0.6582  1.8542
 4118TIP3    H233770   3.420   2.864   0.957 -2.9478 -1.2342  0.7732
 4119TIP3   OH233771   2.526   0.990  16.852  0.2857 -0.6357 -0.1619
 4119TIP3    H133772   2.525   0.929  16.926  1.8374 -1.5431 -0.8271
 4119TIP3    H233773   2.547   1.075  16.891  0.8305 -1.0537  0.4805
 4120TIP3   OH233774   4.189   5.061  16.426  0.2135 -0.0051  0.2540
 4120TIP3    H133775   4.177   5.077  16.332  1.5641  0.2511  0.1076
 4120TIP3    H233776   4.280   5.033  16.434 -0.0702 -0.6270  1.4185
 4121TIP3   OH233777   2.401   6.070  14.357  0.1443  0.0874 -0.4033
 4121TIP3    H133778   2.467   6.070  14.287 -1.0337 -0.0244 -1.5551
 4121TIP3    H233779   2.360   5.984  14.351 -0.8995  0.5821 -0.4859
 4122TIP3   OH233780   1.246   2.836  17.140 -0.3625  0.5189  0.1182
 4122TIP3    H133781   1.222   2.761  17.194  1.7814 -0.1848  0.1950
 4122TIP3    H233782   1.282   2.798  17.060 -1.1591  1.5125 -0.7354
 4123TIP3   OH233783   2.420   5.627   3.531  0.6721 -0.1406  0.2872
 4123TIP3    H133784   2.471   5.557   3.572  1.4979 -0.3003 -0.9522
 4123TIP3    H233785   2.418   5.604   3.438 -0.6727  0.4997  0.1340
 4124TIP3   OH233786   3.926   5.513  11.074  0.0549  0.2863 -0.5072
 4124TIP3    H133787   3.895   5.514  10.984 -0.6667 -0.7333 -0.2841
 4124TIP3    H233788   3.907   5.424  11.105  1.7141  0.1240  0.1514
 4125TIP3   OH233789   4.806   2.600   3.585  0.1413 -0.6862 -0.5687
 4125TIP3    H133790   4.791   2.552   3.503 -1.7580  0.0004 -0.6623
 4125TIP3    H233791   4.869   2.546   3.633  1.0700 -1.2580 -2.3344
 4126TIP3   OH233792   4.602   1.450   0.337 -0.2790  0.0278 -1.0850
 4126TIP3    H133793   4.570   1.443   0.247 -1.3457 -0.2566 -0.7021
 4126TIP3    H233794   4.524   1.469   0.389  0.4034  0.7342 -0.2764
 4127TIP3   OH233795   2.242   2.899  15.784  0.0233  0.0619  0.2539
 4127TIP3    H133796   2.267   2.975  15.731  0.4475 -0.7871 -0.7922
 4127TIP3    H233797   2.198   2.841  15.722  1.5089 -1.4519  0.5469
 4128TIP3   OH233798   4.850   0.667  10.444  0.3626 -0.7896  0.1692
 4128TIP3    H133799   4.914   0.596  10.452  1.9192  0.5373  0.0442
 4128TIP3    H233800   4.903   0.745  10.423 -1.2977  0.3735  0.1033
 4129TIP3   OH233801   0.226   1.194   0.514 -0.0708 -0.3336 -0.5585
 4129TIP3    H133802   0.311   1.237   0.516 -0.3225  0.1586  0.6732
 4129TIP3    H233803   0.211   1.165   0.605 -1.2944 -0.2177 -0.6985
 4130TIP3   OH233804   2.532   6.570   6.278  0.7038 -0.0870 -0.8482
 4130TIP3    H133805   2.612   6.592   6.325 -0.8011 -0.0005  1.8403
 4130TIP3    H233806   2.523   6.475   6.288  0.3899 -0.0744 -0.9974
 4131TIP3   OH233807   4.054   4.202   0.470  0.5881  0.3461 -0.2737
 4131TIP3    H133808   4.042   4.139   0.399  1.0915  0.8626 -0.8305
 4131TIP3    H233809   3.978   4.261   0.461  0.3225  0.0489  0.0066
 4132TIP3   OH233810   4.549   6.407  13.498  0.2026 -0.4124 -0.5041
 4132TIP3    H133811   4.624   6.466  13.505  0.1430 -0.2192 -1.3336
 4132TIP3    H233812   4.588   6.320  13.489  0.3673 -0.2362 -1.6972
 4133TIP3   OH233813   1.546   3.273   3.919 -0.0871 -0.3530 -0.4269
 4133TIP3    H133814   1.541   3.275   3.824 -1.9031 -1.8901 -0.4172
 4133TIP3    H233815   1.539   3.180   3.942 -0.0354  0.0160  1.2234
 4134TIP3   OH233816   4.855   0.300   2.230  0.2486  0.1973 -0.3700
 4134TIP3    H133817   4.839   0.363   2.160  0.5082  0.8757  0.1762
 4134TIP3    H233818   4.775   0.301   2.282  0.1862 -0.0592 -0.4565
 4135TIP3   OH233819   0.831   3.932  13.184  0.0785  0.8577  0.1433
 4135TIP3    H133820   0.917   3.934  13.141 -0.1660  1.0729 -0.3446
 4135TIP3    H233821   0.842   3.871  13.257  0.1671 -0.4455 -0.9279
 4136TIP3   OH233822   2.111   0.317   1.271 -0.2062 -0.6880  0.3765
 4136TIP3    H133823   2.023   0.326   1.310  1.0438 -0.2595  3.3653
 4136TIP3    H233824   2.114   0.227   1.240 -1.3522 -1.0388  1.2054
 4137TIP3   OH233825   6.386   4.245   6.116 -0.0030  0.5686  0.1780
 4137TIP3    H133826   6.389   4.198   6.199 -1.2177 -0.0755 -0.1318
 4137TIP3    H233827   6.317   4.310   6.127  0.0198  0.6676 -0.2258
 4138TIP3   OH233828   3.115   4.742   2.148  0.3442 -0.0807 -0.0152
 4138TIP3    H133829   3.101   4.690   2.069 -1.7160 -1.3108  1.0795
 4138TIP3    H233830   3.198   4.787   2.132  0.4160 -0.9187 -2.5101
 4139TIP3   OH233831   3.728   2.894   0.097 -0.7099 -0.2199 -0.0666
 4139TIP3    H133832   3.733   2.961   0.165  3.1707  0.6549 -0.9899
 4139TIP3    H233833   3.738   2.811   0.143 -0.0701  0.2241  0.6006
 4140TIP3   OH233834   1.652   3.226   0.201 -0.3289 -0.5172  0.3252
 4140TIP3    H133835   1.627   3.309   0.242  1.6561  0.2205  0.1705
 4140TIP3    H233836   1.638   3.161   0.270 -1.7599 -0.0677  0.5023
 4141TIP3   OH233837   0.212   0.229  11.627 -0.6317 -0.1143  0.0682
 4141TIP3    H133838   0.261   0.154  11.594  1.4500  1.0100  0.4138
 4141TIP3    H233839   0.194   0.208  11.719  1.4925  0.4522  0.6793
 4142TIP3   OH233840   4.182   6.246  11.663 -0.6451 -0.1959 -0.0830
 4142TIP3    H133841   4.220   6.322  11.620 -1.8929  0.8205  0.5383
 4142TIP3    H233842   4.127   6.205  11.596  1.2571 -1.5115 -0.8963
 4143TIP3   OH233843   3.069   5.658  14.592 -0.0019  0.2823  0.0679
 4143TIP3    H133844   3.119   5.735  14.564  0.5483 -0.9417 -2.6095
 4143TIP3    H233845   2.982   5.671  14.554 -0.8593  0.8854  2.0701
 4144TIP3   OH233846   6.484   6.013   5.405 -0.0519 -0.1238  0.4575
 4144TIP3    H133847   6.423   5.982   5.338 -0.0745  1.6485 -0.4018
 4144TIP3    H233848   6.429   6.036   5.480 -0.3803  0.7301 -0.0323
 4145TIP3   OH233849   0.726   0.759  15.002 -0.3632 -0.3207  0.2235
 4145TIP3    H133850   0.802   0.722  14.958  0.3183 -0.0581  1.1415
 4145TIP3    H233851   0.762   0.802  15.080 -1.4969 -0.5434  0.8895
 4146TIP3   OH233852   3.893   4.061   5.268  0.3017  0.2940  0.2448
 4146TIP3    H133853   3.940   4.047   5.350  2.6241  0.2951 -1.0074
 4146TIP3    H233854   3.886   3.974   5.229 -0.2961  0.3750  0.1511
 4147TIP3   OH233855   2.620   1.904  15.388  0.4931  0.4098 -0.3744
 4147TIP3    H133856   2.620   2.000  15.384 -1.9825  0.4310 -3.5181
 4147TIP3    H233857   2.528   1.879  15.382  1.1836 -2.1713 -1.9165
 4148TIP3   OH233858   2.579   1.798   5.382 -0.1023 -0.0610 -0.2956
 4148TIP3    H133859   2.634   1.789   5.304  1.6501 -0.8529  0.9619
 4148TIP3    H233860   2.593   1.889   5.411  1.1610 -0.4540  0.4086
 4149TIP3   OH233861   6.187   2.038   1.956  0.1774 -0.1380 -0.1143
 4149TIP3    H133862   6.195   2.016   1.863  1.2313  0.2364 -0.1283
 4149TIP3    H233863   6.163   1.955   1.998 -0.4990 -0.2721 -0.7309
 4150TIP3   OH233864   0.576   4.509  14.040 -0.0083  0.0164 -0.3146
 4150TIP3    H133865   0.566   4.594  14.084  0.7458  0.2865 -0.6536
 4150TIP3    H233866   0.498   4.460  14.065  0.9302 -0.2846  2.3082
 4151TIP3   OH233867   6.518   4.061   0.472 -0.7131 -0.1156  0.3244
 4151TIP3    H133868   6.521   4.061   0.568  1.4253  1.5148  0.3335
 4151TIP3    H233869   6.493   4.150   0.450  1.0289  0.1932 -0.5913
 4152TIP3   OH233870   1.669   1.104  15.924  0.0713  0.7151 -0.7014
 4152TIP3    H133871   1.691   1.082  16.014 -1.0718  1.6889 -0.1547
 4152TIP3    H233872   1.655   1.019  15.881 -0.8391  0.2670  0.4327
 4153TIP3   OH233873   2.443   4.474   4.811 -0.5729  0.1355  0.0232
 4153TIP3    H133874   2.435   4.386   4.773 -1.0257  0.1118  0.1678
 4153TIP3    H233875   2.469   4.529   4.737 -2.0367  0.1981 -0.4790
 4154TIP3   OH233876   6.091   3.178  16.619  0.7156  0.2183 -0.3228
 4154TIP3    H133877   6.030   3.231  16.567  2.4062  2.4960 -0.1324
 4154TIP3    H233878   6.145   3.133  16.554 -0.9460 -1.6893 -0.4908
 4155TIP3   OH233879   0.031   2.201  14.086 -0.1125 -0.2088 -0.2944
 4155TIP3    H133880   0.019   2.267  14.018  0.7675 -1.7186 -1.9949
 4155TIP3    H233881   0.121   2.215  14.117 -0.2325 -0.0433 -0.0205
 4156TIP3   OH233882   2.071   6.558  15.294  0.0498 -0.0781  0.1270
 4156TIP3    H133883   2.162   6.574  15.270  0.0507 -1.1082 -0.6648
 4156TIP3    H233884   2.022   6.628  15.251  0.2971 -0.5822 -1.0080
 4157TIP3   OH233885   6.224   5.033   3.072  0.5940 -0.2947  0.0218
 4157TIP3    H133886   6.134   5.026   3.104  0.7944  0.6031  0.8355
 4157TIP3    H233887   6.261   5.105   3.122  1.7717 -0.6576 -0.3026
 4158TIP3   OH233888   1.409   5.489   1.581 -0.4498 -0.2984  0.2184
 4158TIP3    H133889   1.365   5.572   1.601  0.4766  0.3784 -0.4294
 4158TIP3    H233890   1.502   5.506   1.599 -0.1928 -1.0610 -0.3194
 4159TIP3   OH233891   5.348   3.170  10.810  0.0359 -0.0469 -0.4459
 4159TIP3    H133892   5.340   3.105  10.880  0.0251  0.0991 -0.3129
 4159TIP3    H233893   5.375   3.250  10.854 -1.4522  0.4623 -0.3953
 4160TIP3   OH233894   3.481   6.491  15.497 -0.7306  0.4327  0.0518
 4160TIP3    H133895   3.512   6.480  15.586  1.3148  2.5586 -0.2950
 4160TIP3    H233896   3.387   6.508  15.506 -0.5787  0.5203  1.7863
 4161TIP3   OH233897   2.828   4.467  16.384 -0.6583  0.1548  0.0185
 4161TIP3    H133898   2.733   4.468  16.372 -0.8156  1.6213  1.2032
 4161TIP3    H233899   2.848   4.375  16.405 -1.7433 -0.2496 -0.6236
 4162TIP3   OH233900   3.868   0.105  11.924 -0.3928 -0.7796 -0.0614
 4162TIP3    H133901   3.820   0.187  11.918  1.1527  0.2291  0.7231
 4162TIP3    H233902   3.959   0.129  11.910  0.0733 -2.3969 -0.0388
 4163TIP3   OH233903   0.442   2.252   1.422 -0.1565  0.0199 -0.0003
 4163TIP3    H133904   0.528   2.251   1.382  0.8301  1.0649  1.9436
 4163TIP3    H233905   0.449   2.317   1.492 -2.4032 -0.1709  0.4717
 4164TIP3   OH233906   3.016   2.742   6.073  0.5897  0.4075 -1.2844
 4164TIP3    H133907   2.997   2.833   6.097 -0.4894  0.4314 -2.1508
 4164TIP3    H233908   3.073   2.710   6.143  1.9070  2.0774 -1.5508
 4165TIP3   OH233909   3.398   2.357   2.497 -0.2243 -0.2909  0.0865
 4165TIP3    H133910   3.445   2.307   2.430 -1.2989 -0.5450 -0.5008
 4165TIP3    H233911   3.377   2.440   2.455 -0.8466 -0.4257  0.1200
 4166TIP3   OH233912   0.774   4.952  11.635  0.0807  0.2527 -0.7484
 4166TIP3    H133913   0.776   4.996  11.550  0.0499  0.3978 -0.6748
 4166TIP3    H233914   0.806   5.019  11.697  0.2999  0.0827 -0.6753
 4167TIP3   OH233915   5.245   3.270   2.456  0.1548  0.0030 -0.6822
 4167TIP3    H133916   5.293   3.346   2.487  0.0495 -1.0438  2.4041
 4167TIP3    H233917   5.312   3.204   2.438  0.1055 -0.0649 -0.6198
 4168TIP3   OH233918   2.959   5.834   4.593 -0.3826  0.2018  0.5113
 4168TIP3    H133919   3.030   5.770   4.600  0.0863  0.5136 -1.0389
 4168TIP3    H233920   2.890   5.789   4.545 -0.9896  0.1095  1.4560
 4169TIP3   OH233921   1.500   3.761  12.166 -0.4275  0.2637 -0.4430
 4169TIP3    H133922   1.526   3.790  12.254  0.4114  0.9358 -0.8955
 4169TIP3    H233923   1.572   3.789  12.110  0.3106 -2.4222 -0.9787
 4170TIP3   OH233924   3.792   3.926  13.076  0.1782  0.3665  0.3591
 4170TIP3    H133925   3.822   3.906  13.165 -0.4941  1.3466  0.8196
 4170TIP3    H233926   3.697   3.932  13.083  0.1914  1.5163 -0.1927
 4171TIP3   OH233927   2.060   1.899   0.632  0.4738  0.5562  0.4499
 4171TIP3    H133928   1.975   1.883   0.591 -0.2415  0.7922  1.7915
 4171TIP3    H233929   2.043   1.894   0.726  2.6209 -3.1655  0.8569
 4172TIP3   OH233930   6.676   0.766  10.937 -0.4675 -0.5102  0.1402
 4172TIP3    H133931   6.639   0.706  11.002 -2.7827 -0.9971 -1.4840
 4172TIP3    H233932   6.667   0.719  10.854 -0.9591  1.4688 -0.9974
 4173TIP3   OH233933   1.005   2.473  14.413 -0.0071  0.0232  0.1619
 4173TIP3    H133934   0.931   2.412  14.405 -0.3790  0.6367 -1.4096
 4173TIP3    H233935   0.970   2.546  14.463 -0.1761 -0.1326  0.2746
 4174TIP3   OH233936   0.914   2.015  15.194 -0.2201  0.2567 -1.1464
 4174TIP3    H133937   0.943   2.071  15.122 -1.2981  0.4923 -1.4181
 4174TIP3    H233938   0.820   2.003  15.178 -0.0937 -1.2452 -0.8247
 4175TIP3   OH233939   1.285   1.692   4.491 -0.5450 -0.5116 -0.5024
 4175TIP3    H133940   1.206   1.745   4.480 -2.1234 -2.7840 -0.6506
 4175TIP3    H233941   1.263   1.630   4.560  0.3221 -2.5761 -1.9984
 4176TIP3   OH233942   0.830   6.143  14.802 -0.1619 -0.1542 -0.2160
 4176TIP3    H133943   0.774   6.216  14.776  1.4928  0.7831 -1.3876
 4176TIP3    H233944   0.914   6.184  14.824  0.9039 -1.7092 -1.1895
 4177TIP3   OH233945   6.049   3.207  13.400  0.2764  0.2686  0.3986
 4177TIP3    H133946   6.070   3.114  13.413 -0.9758 -0.0010  0.7017
 4177TIP3    H233947   6.003   3.232  13.480  0.9699  1.2810  0.4946
 4178TIP3   OH233948   5.252   4.706  16.946  0.2092 -0.5746  0.4438
 4178TIP3    H133949   5.262   4.727  17.039 -0.5807 -1.4825  0.7585
 4178TIP3    H233950   5.172   4.750  16.920  0.8818  0.3872 -0.0483
 4179TIP3   OH233951   6.584   0.875  14.756  0.1914 -0.4046  0.4526
 4179TIP3    H133952   6.558   0.966  14.744 -0.6223 -0.4152  1.8871
 4179TIP3    H233953   6.526   0.826  14.697  1.2486  0.0390 -1.0127
 4180TIP3   OH233954   3.275   0.947  11.926 -0.0349  0.2825 -0.0992
 4180TIP3    H133955   3.343   1.007  11.895 -0.5234 -0.2082 -2.2662
 4180TIP3    H233956   3.194   0.999  11.924 -0.2892 -0.1264 -0.9922
 4181TIP3   OH233957   3.167   3.443   3.684 -0.0856 -0.4740 -0.0120
 4181TIP3    H133958   3.262   3.434   3.669 -0.3028 -1.8497 -0.7687
 4181TIP3    H233959   3.159   3.460   3.778  0.9662  1.0220 -0.1566
 4182TIP3   OH233960   0.518   1.829  17.120  0.4266  0.0868  0.2359
 4182TIP3    H133961   0.457   1.885  17.072  1.3125  0.4876 -0.4522
 4182TIP3    H233962   0.462   1.777  17.178 -0.5243  0.7631 -0.0441
 4183TIP3   OH233963   2.831   0.277  16.555  0.3959 -0.1539  0.6769
 4183TIP3    H133964   2.904   0.309  16.608  1.7778 -0.4591 -0.9775
 4183TIP3    H233965   2.770   0.351  16.552  0.5014  0.0347  2.2419
 4184TIP3   OH233966   0.900   1.952   0.032  0.1563 -0.0988  0.1959
 4184TIP3    H133967   0.894   1.933  -0.061  1.9659 -1.0599  0.2352
 4184TIP3    H233968   0.889   1.867   0.075  1.1171  0.0447  0.7534
 4185TIP3   OH233969   6.614   1.546  14.792 -0.7840 -0.0487 -0.2259
 4185TIP3    H133970   6.545   1.484  14.816  1.6655 -2.2620  1.8064
 4185TIP3    H233971   6.648   1.513  14.709 -1.3178  0.2872 -0.5822
 4186TIP3   OH233972   0.060   0.493   2.225  0.1792  0.6900 -0.1206
 4186TIP3    H133973   0.003   0.566   2.249 -0.5650 -0.5079  2.0554
 4186TIP3    H233974   0.148   0.524   2.244  0.1722  1.9725 -1.9272
 4187TIP3   OH233975   5.956   4.981   3.845 -0.1250  0.1439 -0.4720
 4187TIP3    H133976   5.909   4.902   3.818 -0.8851 -0.0059  1.1358
 4187TIP3    H233977   6.036   4.949   3.886  0.5102  0.3177 -1.5466
 4188TIP3   OH233978   1.947   0.021   1.400 -0.4802 -0.0584  0.1835
 4188TIP3    H133979   2.012   0.050   1.335 -0.1201 -1.3594 -0.0679
 4188TIP3    H233980   1.997   0.012   1.481 -0.3896 -0.8066  0.0519
 4189TIP3   OH233981   5.428   6.781   0.318 -0.3415 -0.6524  0.3412
 4189TIP3    H133982   5.457   6.867   0.348 -1.7082  0.1729 -0.5808
 4189TIP3    H233983   5.395   6.737   0.397  0.3956 -0.3631  0.8184
 4190TIP3   OH233984   6.536   4.304  11.624  0.2729 -0.6198 -0.6926
 4190TIP3    H133985   6.536   4.391  11.584  3.6333 -0.2416 -0.1716
 4190TIP3    H233986   6.532   4.321  11.719  2.2387 -0.8903 -0.5263
 4191TIP3   OH233987   0.833   0.306   2.443 -0.2477 -0.2032 -0.1789
 4191TIP3    H133988   0.757   0.259   2.408 -0.8457  0.4316  0.2552
 4191TIP3    H233989   0.882   0.333   2.365 -2.2362  2.3208 -0.6693
 4192TIP3   OH233990   6.213   5.669  14.428  0.4651 -0.1430  0.1832
 4192TIP3    H133991   6.286   5.648  14.370 -0.7797  0.0309 -1.5000
 4192TIP3    H233992   6.142   5.697  14.370 -0.9932 -0.3866  1.7529
 4193TIP3   OH233993   5.476   6.025  16.488 -0.0800  0.4248 -0.4771
 4193TIP3    H133994   5.560   6.038  16.532  0.4453 -0.9701 -0.9746
 4193TIP3    H233995   5.426   5.970  16.548 -0.7620  1.5017 -0.0529
 4194TIP3   OH233996   5.550   5.681   2.900  0.0228 -0.1026 -0.2179
 4194TIP3    H133997   5.490   5.613   2.932  0.7037 -0.3796  0.5011
 4194TIP3    H233998   5.622   5.632   2.860  0.0414  0.2219 -0.5941
 4195TIP3   OH233999   1.124   4.088   5.546  0.1100 -0.2664  0.1978
 4195TIP3    H134000   1.211   4.076   5.508  1.5791  3.0456  2.1183
 4195TIP3    H234001   1.127   4.040   5.629  0.4483  0.5138  0.6487
 4196TIP3   OH234002   4.030   1.989  12.675  0.1303  0.2578 -0.2977
 4196TIP3    H134003   3.988   1.919  12.725 -0.8189  1.2301  0.3156
 4196TIP3    H234004   4.124   1.979  12.693  0.0520 -1.0308 -0.4836
 4197TIP3   OH234005   3.602   0.329  13.787  0.0360 -0.4219 -0.3819
 4197TIP3    H134006   3.691   0.320  13.823  0.5158 -0.0159 -1.4440
 4197TIP3    H234007   3.589   0.250  13.736 -0.0932 -0.3319 -0.4878
 4198TIP3   OH234008   2.649   0.354  12.888  0.3759 -0.2449  0.1517
 4198TIP3    H134009   2.707   0.279  12.895  1.4354  0.4132 -1.1004
 4198TIP3    H234010   2.677   0.399  12.808 -2.4473 -0.3743 -1.0283
 4199TIP3   OH234011   3.117   3.755   0.987 -0.0228 -0.6617  0.0901
 4199TIP3    H134012   3.187   3.759   0.922 -0.5947  0.0653 -0.5023
 4199TIP3    H234013   3.065   3.679   0.962 -0.0219 -0.6055 -0.0900
 4200TIP3   OH234014   3.204   1.031  16.852  0.6079  0.4184 -0.0302
 4200TIP3    H134015   3.255   1.058  16.775  0.8052 -0.6518 -0.2888
 4200TIP3    H234016   3.140   1.101  16.864 -0.3129 -0.0120 -1.9958
 4201TIP3   OH234017   5.642   0.679  16.478  0.2842 -0.9868 -0.3160
 4201TIP3    H134018   5.681   0.748  16.424  0.8582 -3.4890 -3.4034
 4201TIP3    H234019   5.705   0.667  16.550  0.1281  1.6236  0.3720
 4202TIP3   OH234020   1.722   6.284   5.758  0.3559  0.5571 -0.3267
 4202TIP3    H134021   1.637   6.327   5.750  0.8058  1.2752 -1.4865
 4202TIP3    H234022   1.702   6.191   5.763 -0.5023  0.7263 -0.5051
 4203TIP3   OH234023   3.242   4.248  17.225  0.3274  0.6461 -0.9683
 4203TIP3    H134024   3.161   4.206  17.193  0.9214  0.6275 -2.5250
 4203TIP3    H234025   3.302   4.243  17.151  2.6097 -1.4485  0.8431
 4204TIP3   OH234026   4.803   4.344  17.183  0.1907 -0.3743 -0.4820
 4204TIP3    H134027   4.827   4.401  17.256 -2.2519 -0.7748  0.7156
 4204TIP3    H234028   4.732   4.389  17.139 -0.1163 -1.3576 -1.0211
 4205TIP3   OH234029   2.289   5.882   0.863  0.2011 -0.1228  0.2299
 4205TIP3    H134030   2.295   5.798   0.909  1.1884 -0.1503  0.0739
 4205TIP3    H234031   2.359   5.934   0.900 -0.1750  0.5099  0.0613
 4206TIP3   OH234032   2.051   3.529  10.984  0.2609 -0.4846 -0.1210
 4206TIP3    H134033   2.032   3.609  10.935 -2.0117 -1.7384 -1.4379
 4206TIP3    H234034   2.062   3.559  11.074  3.2882  1.7174 -1.0392
 4207TIP3   OH234035   6.077   3.684  11.177  0.1592  1.0345 -0.2754
 4207TIP3    H134036   6.159   3.725  11.203  0.4209 -0.6002  1.8327
 4207TIP3    H234037   6.010   3.749  11.196  0.7757  1.4526  0.5493
 4208TIP3   OH234038   1.843   5.421  14.298  0.0065 -0.6215  0.0673
 4208TIP3    H134039   1.859   5.432  14.204 -2.1392 -1.2412 -0.4196
 4208TIP3    H234040   1.805   5.504  14.326  1.6113 -0.0411  0.6827
 4209TIP3   OH234041   0.095   2.178   0.403  0.1660 -0.1311  0.0547
 4209TIP3    H134042   0.132   2.111   0.460 -1.4048 -3.6323 -2.6434
 4209TIP3    H234043   0.006   2.191   0.436  0.0920 -0.2241 -0.1108
 4210TIP3   OH234044   5.754   0.606  12.110 -0.2047 -0.0549  0.6054
 4210TIP3    H134045   5.708   0.524  12.093 -0.2354  0.0052  0.3921
 4210TIP3    H234046   5.684   0.670  12.121 -0.2794 -0.4485  3.0192
 4211TIP3   OH234047   3.210   1.706   6.251  0.8274  0.0489 -0.2695
 4211TIP3    H134048   3.188   1.668   6.166  0.9785  1.1749 -0.8332
 4211TIP3    H234049   3.240   1.632   6.303 -2.2056 -1.2336 -0.1317
 4212TIP3   OH234050   1.296   2.784  15.314 -0.3434  0.7167 -0.4047
 4212TIP3    H134051   1.377   2.807  15.359 -0.5512 -0.9156  0.8944
 4212TIP3    H234052   1.324   2.747  15.231  0.5752 -3.1138  1.4131
 4213TIP3   OH234053   5.751   5.609  17.110 -0.2200 -0.0963  0.2902
 4213TIP3    H134054   5.782   5.597  17.021  1.6425 -0.5828  0.9547
 4213TIP3    H234055   5.738   5.703  17.119  1.6183  0.2165  0.0898
 4214TIP3   OH234056   1.088   1.712   6.031  0.0897 -0.0591 -0.1858
 4214TIP3    H134057   1.005   1.704   5.983 -0.1172  0.6021  0.0406
 4214TIP3    H234058   1.141   1.769   5.977 -0.2945  1.0265  0.5418
 4215TIP3   OH234059   3.313   3.093   0.441 -0.1107  0.4305 -0.0248
 4215TIP3    H134060   3.357   3.060   0.519  3.0369 -1.4739 -2.3842
 4215TIP3    H234061   3.307   3.188   0.455 -0.5114  0.0705  2.8295
 4216TIP3   OH234062   5.144   5.997   0.156 -0.1215  0.1763 -0.1398
 4216TIP3    H134063   5.152   5.943   0.235  0.4242  0.8737  0.2991
 4216TIP3    H234064   5.156   6.087   0.188  0.2957  0.4524 -1.0481
 4217TIP3   OH234065   6.306   2.631  10.822  0.1115  0.1000 -0.1997
 4217TIP3    H134066   6.234   2.639  10.885  0.0379 -0.6274 -0.1801
 4217TIP3    H234067   6.298   2.708  10.766 -1.1225 -0.3303 -0.6445
 4218TIP3   OH234068   4.868   0.063   2.819  0.2911  0.3927 -0.1562
 4218TIP3    H134069   4.803   0.024   2.877 -0.1368  2.4017  0.8319
 4218TIP3    H234070   4.940  -0.001   2.816  0.2999  0.1617  2.5889
 4219TIP3   OH234071   4.620   4.347   3.728  0.0657 -0.4577 -0.3743
 4219TIP3    H134072   4.604   4.262   3.688  0.5029  0.0048 -1.5838
 4219TIP3    H234073   4.535   4.377   3.758 -0.3246 -0.7315 -1.1869
 4220TIP3   OH234074   0.397   2.059   7.060 -0.2557 -0.2523 -0.2977
 4220TIP3    H134075   0.367   2.032   6.973  0.2249 -1.8335 -0.0132
 4220TIP3    H234076   0.487   2.089   7.046  0.3507 -1.9154 -0.1560
 4221TIP3   OH234077   0.992   1.552   4.108 -0.2902  0.1319  0.2326
 4221TIP3    H134078   1.081   1.581   4.130 -0.0237 -1.2639  1.0722
 4221TIP3    H234079   0.963   1.502   4.184 -1.8317  0.6013 -0.0140
 4222TIP3   OH234080   0.033   0.614  13.981 -0.2559 -0.0282 -0.2363
 4222TIP3    H134081   0.109   0.556  13.989  0.6450  1.1303 -0.1267
 4222TIP3    H234082   0.010   0.635  14.072  1.3696  2.1934 -0.2519
 4223TIP3   OH234083   4.958   2.790  11.177  0.4096 -0.4170  0.5258
 4223TIP3    H134084   4.972   2.710  11.228  0.2011  0.9559  2.8474
 4223TIP3    H234085   5.031   2.790  11.115  1.1502 -1.7619  1.3261
 4224TIP3   OH234086   6.271   0.658  11.569 -0.1975 -0.4211 -0.4718
 4224TIP3    H134087   6.176   0.672  11.572 -0.0048  0.9522 -0.0356
 4224TIP3    H234088   6.297   0.649  11.660  0.0576 -1.1477 -0.6100
 4225TIP3   OH234089   3.503   3.588  11.991  0.2016  0.6218 -0.1929
 4225TIP3    H134090   3.549   3.563  11.911  1.2214  2.8630 -0.3883
 4225TIP3    H234091   3.504   3.509  12.045  1.1171 -0.4067 -1.6538
 4226TIP3   OH234092   6.756   6.157   2.830  0.2892 -0.3205 -0.6827
 4226TIP3    H134093   6.661   6.164   2.835  0.3765  0.7416 -0.2790
 4226TIP3    H234094   6.772   6.067   2.801 -0.7859 -1.1969  1.2921
 4227TIP3   OH234095   6.035   4.147   1.174 -0.3136  0.1814 -0.5139
 4227TIP3    H134096   5.980   4.071   1.195  1.1625 -0.7603  0.1327
 4227TIP3    H234097   6.062   4.132   1.083 -0.9991  0.5608 -0.7791
 4228TIP3   OH234098   1.782   0.095  16.753  0.5758 -0.0123  0.4836
 4228TIP3    H134099   1.782   0.171  16.695 -0.8835  0.8737  1.5641
 4228TIP3    H234100   1.727   0.031  16.708  2.5977 -0.8665 -0.8937
 4229TIP3   OH234101   0.524   4.115   1.576  0.1135  0.7059  0.4092
 4229TIP3    H134102   0.505   4.208   1.561 -1.1412  0.2318 -1.1471
 4229TIP3    H234103   0.546   4.080   1.490  2.1795 -0.1471  1.2069
 4230TIP3   OH234104   1.998   5.076   4.490  0.4199 -0.0317  0.2459
 4230TIP3    H134105   2.070   5.075   4.426 -1.3338 -1.5057 -1.8433
 4230TIP3    H234106   1.953   4.993   4.475 -1.3012  0.5354  2.0024
 4231TIP3   OH234107   1.922   3.789  12.877 -0.0261  0.2910 -0.0983
 4231TIP3    H134108   1.914   3.884  12.884  0.0878  0.3826 -1.1154
 4231TIP3    H234109   1.972   3.775  12.797 -0.6956 -0.6472 -0.3672
 4232TIP3   OH234110   1.987   6.501   4.794 -0.0712 -0.5321 -0.1287
 4232TIP3    H134111   1.939   6.422   4.817  0.2241 -0.7424 -0.2294
 4232TIP3    H234112   2.037   6.523   4.873 -0.3513 -0.2971 -0.0144
 4233TIP3   OH234113   6.451   5.666   4.131  0.1807  0.4889 -0.0397
 4233TIP3    H134114   6.518   5.685   4.197  0.5886  1.4513 -0.7194
 4233TIP3    H234115   6.399   5.596   4.170  0.9508  0.4381  0.9354
 4234TIP3   OH234116   4.145   1.510   0.557  0.1632  0.3056  0.1732
 4234TIP3    H134117   4.216   1.507   0.620  0.7794  0.5399 -0.4902
 4234TIP3    H234118   4.080   1.449   0.591  1.8324 -2.0327 -0.5668
 4235TIP3   OH234119   5.219   3.312  13.623  0.1119  0.0009 -0.1057
 4235TIP3    H134120   5.238   3.404  13.606 -0.9032  0.3716  0.6185
 4235TIP3    H234121   5.292   3.264  13.584  1.4005  1.1919  0.7627
 4236TIP3   OH234122   4.005   2.481  15.665 -0.1713  0.0761 -0.2900
 4236TIP3    H134123   3.955   2.438  15.595  0.7288 -0.9682 -0.3168
 4236TIP3    H234124   3.967   2.446  15.746  1.2118 -1.6185 -0.3167
 4237TIP3   OH234125   5.373   4.619  11.194 -0.8020 -0.0331 -0.2063
 4237TIP3    H134126   5.466   4.627  11.174 -0.5128  0.5768  1.2963
 4237TIP3    H234127   5.344   4.545  11.141  0.5111 -0.1739 -0.7665
 4238TIP3   OH234128   6.322   1.574   1.000 -0.5931  0.0899 -0.0107
 4238TIP3    H134129   6.386   1.504   0.987  0.5934  1.1422 -0.0333
 4238TIP3    H234130   6.283   1.557   1.085 -0.2031 -0.5182  0.0478
 4239TIP3   OH234131   3.160   2.686  15.975  0.0079 -0.4314  0.5569
 4239TIP3    H134132   3.075   2.645  15.993 -0.4838 -0.7474 -2.0161
 4239TIP3    H234133   3.142   2.744  15.901  1.9599 -0.1499  0.2653
 4240TIP3   OH234134   6.776   1.689  13.252  0.0984 -0.2005 -0.9375
 4240TIP3    H134135   6.806   1.766  13.299 -0.5200 -0.5170  0.0181
 4240TIP3    H234136   6.813   1.697  13.165  0.1339  1.1175 -0.8149
 4241TIP3   OH234137   2.197   3.355  14.048 -0.1243  0.1601 -0.1271
 4241TIP3    H134138   2.281   3.356  14.095 -0.1836  0.6656 -0.0246
 4241TIP3    H234139   2.133   3.324  14.112 -0.6200  3.0114  0.8804
 4242TIP3   OH234140   0.763   5.639  17.151 -0.4451  0.2070  0.0652
 4242TIP3    H134141   0.669   5.656  17.149 -0.3673  0.6253 -0.3040
 4242TIP3    H234142   0.774   5.557  17.102 -0.3090  1.7909 -2.7742
 4243TIP3   OH234143   5.755   6.442  17.033  0.0544  0.3833  0.5002
 4243TIP3    H134144   5.732   6.514  16.973 -1.0947  0.0628  0.5312
 4243TIP3    H234145   5.805   6.382  16.979  0.1371  0.7176  0.1943
 4244TIP3   OH234146   1.675   2.872   3.140  0.0914 -0.7380 -0.2119
 4244TIP3    H134147   1.615   2.809   3.181  0.6770 -0.6594  0.8172
 4244TIP3    H234148   1.703   2.829   3.059 -1.5959 -0.6263 -0.8918
 4245TIP3   OH234149   2.808   2.074   2.400  0.0109  0.2232  0.0591
 4245TIP3    H134150   2.893   2.114   2.422 -0.7576  2.1254 -0.1657
 4245TIP3    H234151   2.826   2.023   2.321  0.9683  0.5675  0.0315
 4246TIP3   OH234152   0.300   5.160   4.871  0.3366  0.3397  0.3438
 4246TIP3    H134153   0.295   5.076   4.917  0.3791  0.4895  0.6231
 4246TIP3    H234154   0.256   5.144   4.787  0.2094  0.0808  0.4591
 4247TIP3   OH234155   5.020   3.740  13.935 -0.0413 -0.0337  0.0861
 4247TIP3    H134156   4.994   3.649  13.925  1.2409 -0.7340  2.3339
 4247TIP3    H234157   4.999   3.781  13.851 -1.6073 -2.1268 -0.6225
 4248TIP3   OH234158   2.611   0.410   1.857  0.7712  0.2725 -0.0501
 4248TIP3    H134159   2.645   0.366   1.935  0.1608 -1.3059 -0.6360
 4248TIP3    H234160   2.517   0.391   1.858  0.4249  1.7929 -0.2208
 4249TIP3   OH234161   2.858   4.729   4.906 -0.6097 -0.4917 -0.8435
 4249TIP3    H134162   2.763   4.727   4.890 -0.9229  0.4090  0.6369
 4249TIP3    H234163   2.865   4.736   5.002  0.9129  1.0275 -1.0179
 4250TIP3   OH234164   2.872   4.304   0.850 -0.2327  0.1557  0.0824
 4250TIP3    H134165   2.824   4.337   0.773  1.0192  0.3003 -0.6534
 4250TIP3    H234166   2.958   4.344   0.843  0.1603 -0.4924  1.1258
 4251TIP3   OH234167   1.763   3.052   3.324 -0.4559  0.0507  0.1705
 4251TIP3    H134168   1.719   3.033   3.407  0.0620  1.3038  0.7719
 4251TIP3    H234169   1.735   2.983   3.265 -1.5259 -0.3776  1.1442
 4252TIP3   OH234170   1.680   1.264   3.032 -0.2961  0.6753 -0.5833
 4252TIP3    H134171   1.736   1.187   3.019  0.5853  1.2491 -0.3354
 4252TIP3    H234172   1.591   1.231   3.023  0.0758  0.2694 -4.0062
 4253TIP3   OH234173   2.123   0.864   1.802  0.1281  0.1551  0.2882
 4253TIP3    H134174   2.157   0.822   1.723 -0.0444  2.7478 -1.3046
 4253TIP3    H234175   2.168   0.820   1.874  0.9003 -1.7727 -1.2805
 4254TIP3   OH234176   5.173   4.484   4.314  0.3412  0.1642  0.4335
 4254TIP3    H134177   5.105   4.418   4.298 -1.1477  1.5410  0.8114
 4254TIP3    H234178   5.128   4.553   4.362  0.3089  3.9042 -4.2326
 4255TIP3   OH234179   4.676   4.064   4.311 -0.6339  0.0624 -0.1036
 4255TIP3    H134180   4.614   4.128   4.277 -0.9502  0.1355  0.5862
 4255TIP3    H234181   4.708   4.017   4.234  1.5994  2.7502 -0.9906
 4256TIP3   OH234182   6.349   1.523  16.071 -0.0740  0.1277 -0.0413
 4256TIP3    H134183   6.273   1.534  16.014  0.2845  1.5668 -0.2687
 4256TIP3    H234184   6.395   1.447  16.035 -1.7291 -1.1949  0.5074
 4257TIP3   OH234185   4.759   3.901   4.083  0.3292 -0.1318  0.0701
 4257TIP3    H134186   4.801   3.815   4.089 -0.4271 -0.5353 -0.3161
 4257TIP3    H234187   4.667   3.885   4.106  0.4266  0.7926  1.2485
 4258TIP3   OH234188   2.125   4.562   3.245 -0.0150  0.0858  0.1447
 4258TIP3    H134189   2.068   4.487   3.231  1.0082 -1.5156  3.5155
 4258TIP3    H234190   2.212   4.532   3.220  0.0205  1.1960 -1.2093
 4259TIP3   OH234191   4.917   0.345  12.891 -0.0376  0.1521 -0.2848
 4259TIP3    H134192   4.984   0.358  12.824  0.1803  2.4467  0.2857
 4259TIP3    H234193   4.863   0.424  12.887  0.1657  0.5394  2.4096
 4260TIP3   OH234194   1.071   3.558  13.400 -0.4823 -0.1456  0.1325
 4260TIP3    H134195   1.163   3.582  13.412 -0.8470  1.8954 -0.8200
 4260TIP3    H234196   1.074   3.470  13.362  1.0751  0.0616 -0.2681
 4261TIP3   OH234197   1.280   0.538   0.670 -0.0766  0.1886 -0.5381
 4261TIP3    H134198   1.185   0.537   0.680 -0.2345  2.0510 -1.3375
 4261TIP3    H234199   1.300   0.629   0.647  2.0934  0.2876  1.4144
 4262TIP3   OH234200   3.543   0.561   5.971 -0.6083  0.3271  0.3171
 4262TIP3    H134201   3.489   0.623   6.019  1.0117  0.8924  1.5244
 4262TIP3    H234202   3.633   0.584   5.996  0.0555 -3.0122  1.5112
 4263TIP3   OH234203   4.952   2.939  16.380  0.1917 -1.1127  0.4484
 4263TIP3    H134204   5.045   2.934  16.404  0.1230  0.2047  1.1203
 4263TIP3    H234205   4.937   2.863  16.324  2.3494  0.0478 -1.9183
 4264TIP3   OH234206   1.119   5.580   0.316 -0.0252  0.0457  0.4721
 4264TIP3    H134207   1.038   5.607   0.273 -0.5015  1.8436  2.3493
 4264TIP3    H234208   1.099   5.494   0.354 -0.4562 -0.3151 -0.5383
 4265TIP3   OH234209   4.512   0.158   3.722  0.6248  0.2265  0.1683
 4265TIP3    H134210   4.525   0.067   3.749 -0.9949  0.3188  1.4505
 4265TIP3    H234211   4.458   0.152   3.643 -0.4351  0.0491  0.8748
 4266TIP3   OH234212   6.629   3.085  17.283 -0.0202  0.2554 -0.0484
 4266TIP3    H134213   6.537   3.099  17.305 -0.2638 -0.5096 -0.5536
 4266TIP3    H234214   6.641   3.129  17.199 -0.2348 -0.6483 -0.5650
 4267TIP3   OH234215   2.985   5.471  12.440  0.0294 -0.1255  0.4987
 4267TIP3    H134216   3.030   5.474  12.525  0.2260 -0.5418  0.4119
 4267TIP3    H234217   2.904   5.424  12.458 -1.6683  2.8213  1.2343
 4268TIP3   OH234218   4.561   6.313  14.112 -0.5629  0.5544 -0.0105
 4268TIP3    H134219   4.644   6.349  14.080 -0.6188  0.3312 -0.4102
 4268TIP3    H234220   4.519   6.386  14.157 -0.0175  0.5919  0.4498
 4269TIP3   OH234221   3.366   4.573  12.497 -0.4603  0.1376 -0.6642
 4269TIP3    H134222   3.362   4.503  12.432  1.4288  1.2989 -2.1200
 4269TIP3    H234223   3.353   4.653  12.447 -3.0563  0.8924  1.0350
 4270TIP3   OH234224   4.911   2.818  16.796  0.5516  0.6125  0.1963
 4270TIP3    H134225   4.918   2.830  16.701  0.1725 -0.1774  0.0528
 4270TIP3    H234226   4.847   2.884  16.824 -1.2131 -0.6975 -0.4986
 4271TIP3   OH234227   3.327   3.081   1.548  0.4092 -0.0501  0.4689
 4271TIP3    H134228   3.359   3.168   1.523 -0.0449 -0.4992 -1.9198
 4271TIP3    H234229   3.374   3.021   1.489 -1.6252 -1.1048 -0.1583
 4272TIP3   OH234230   1.435   5.218   3.040  0.0951 -0.5475  0.0314
 4272TIP3    H134231   1.436   5.127   3.070  0.2624 -0.7130 -0.4676
 4272TIP3    H234232   1.352   5.252   3.072  0.1289 -0.8114  0.4108
 4273TIP3   OH234233   1.992   5.517  10.944  0.5984 -0.5352 -0.2907
 4273TIP3    H134234   1.982   5.467  11.026  0.6305 -1.1699 -0.6656
 4273TIP3    H234235   2.045   5.592  10.969  1.0434 -0.9890  0.1743
 4274TIP3   OH234236   5.363   3.040  12.449 -0.0693 -0.3796  0.3080
 4274TIP3    H134237   5.387   3.048  12.542 -0.5352  0.1275  0.3901
 4274TIP3    H234238   5.267   3.041  12.449 -0.0957 -1.5468 -0.0836
 4275TIP3   OH234239   1.852   2.467   4.656  0.1012 -0.0512 -0.0826
 4275TIP3    H134240   1.781   2.502   4.711 -0.3055 -1.8543  0.5960
 4275TIP3    H234241   1.926   2.524   4.674 -0.3315  0.0640  1.5199
 4276TIP3   OH234242   0.831   1.642   5.403  0.1205 -0.9100 -0.1465
 4276TIP3    H134243   0.903   1.701   5.383  0.7178 -1.5298  0.1420
 4276TIP3    H234244   0.761   1.699   5.436  1.3608 -0.5388  1.9973
 4277TIP3   OH234245   5.973   5.800  14.306  0.5477  0.3064 -0.0057
 4277TIP3    H134246   6.055   5.845  14.290  0.0712  0.8547 -1.0089
 4277TIP3    H234247   5.906   5.862  14.278 -0.1920 -0.2746  0.4426
 4278TIP3   OH234248   4.647   6.053   0.061 -0.0732 -0.3187 -0.1579
 4278TIP3    H134249   4.693   6.132   0.087 -0.3307 -0.3562  0.4259
 4278TIP3    H234250   4.641   6.001   0.141  0.0433 -0.9029 -0.5224
 4279TIP3   OH234251   6.258   4.975   1.102  0.1475  0.4116 -0.4121
 4279TIP3    H134252   6.270   4.915   1.175 -2.8106 -1.5607 -1.3402
 4279TIP3    H234253   6.308   4.936   1.030  0.3760  0.5095 -0.3046
 4280TIP3   OH234254   3.672   3.364  16.176  0.2313 -0.6915  0.0165
 4280TIP3    H134255   3.635   3.424  16.110  1.1219 -1.5864 -1.3514
 4280TIP3    H234256   3.752   3.408  16.206 -0.4570 -0.0343  0.9186
 4281TIP3   OH234257   0.493   6.495  11.955  0.3578  0.4745 -0.6827
 4281TIP3    H134258   0.486   6.510  11.860  0.3114 -0.8069 -0.9017
 4281TIP3    H234259   0.413   6.532  11.991  0.3253  0.8754 -1.1576
 4282TIP3   OH234260   3.663   2.547  14.772 -0.0577 -0.5717  0.1029
 4282TIP3    H134261   3.727   2.611  14.802 -0.4810 -0.2547  0.3425
 4282TIP3    H234262   3.584   2.566  14.824 -0.5196 -0.6008 -0.5783
 4283TIP3   OH234263   3.780   5.746  14.717  0.2616  0.2927  0.1211
 4283TIP3    H134264   3.702   5.723  14.666  0.6453 -0.8821  0.0183
 4283TIP3    H234265   3.749   5.756  14.807  0.0310 -0.4843  0.1346
 4284TIP3   OH234266   2.870   2.527   3.379  0.3086  0.0782 -0.0257
 4284TIP3    H134267   2.825   2.449   3.346  0.8779 -0.4510  0.4239
 4284TIP3    H234268   2.807   2.598   3.367  0.2352 -0.2155 -1.5903
 4285TIP3   OH234269   3.993   0.435   1.755 -0.5587 -0.1700  0.1994
 4285TIP3    H134270   3.922   0.387   1.796 -0.0932 -0.1388  1.0615
 4285TIP3    H234271   4.061   0.439   1.822 -0.4636  1.4309  0.0455
 4286TIP3   OH234272   5.589   6.218   4.644  0.3293  0.2851  0.3245
 4286TIP3    H134273   5.670   6.185   4.684  0.4956  0.5605  0.2167
 4286TIP3    H234274   5.619   6.267   4.567  0.0289 -0.0062  0.0207
 4287TIP3   OH234275   4.374   6.087   2.296  0.1273 -0.0105  0.0718
 4287TIP3    H134276   4.371   6.172   2.253 -0.0738  1.5792  2.9591
 4287TIP3    H234277   4.286   6.051   2.285  0.2712  0.0082 -1.3325
 4288TIP3   OH234278   0.181   1.296  13.816  0.2446 -0.0369  0.0200
 4288TIP3    H134279   0.133   1.216  13.796  0.9471 -0.3014 -0.6812
 4288TIP3    H234280   0.249   1.301  13.748 -0.3380  1.6221 -0.4981
 4289TIP3   OH234281   1.462   5.961   1.046  0.1184  0.0276 -0.3170
 4289TIP3    H134282   1.438   5.929   1.132  0.5113 -0.0070 -0.2195
 4289TIP3    H234283   1.451   5.886   0.988 -0.6712  0.1973 -0.3927
 4290TIP3   OH234284   5.029   6.572   2.356  0.6255 -0.3125  0.1822
 4290TIP3    H134285   4.999   6.505   2.294  0.1730 -0.6410  0.7370
 4290TIP3    H234286   5.026   6.654   2.307 -1.4110 -0.2927  0.2457
 4291TIP3   OH234287   4.450   4.954  16.353  0.0328  0.2899  0.0404
 4291TIP3    H134288   4.467   4.925  16.264 -4.9320 -0.8013 -0.8531
 4291TIP3    H234289   4.481   4.882  16.408  1.0119 -0.0858 -0.9567
 4292TIP3   OH234290   3.807   0.341   1.062  0.4166 -0.5089 -0.3611
 4292TIP3    H134291   3.851   0.370   0.982 -2.0196 -1.2108 -2.0602
 4292TIP3    H234292   3.752   0.415   1.088  0.8201 -0.4654  0.3869
 4293TIP3   OH234293   5.794   6.608  13.281  0.2861  0.0791 -0.4763
 4293TIP3    H134294   5.753   6.572  13.202 -0.5054  0.9893 -0.4991
 4293TIP3    H234295   5.879   6.564  13.285  0.0342 -0.5463 -1.4114
 4294TIP3   OH234296   0.787   2.894   5.706 -0.2689 -0.2146  0.2866
 4294TIP3    H134297   0.779   2.951   5.782 -0.7907 -1.2095  0.9909
 4294TIP3    H234298   0.698   2.861   5.691  0.1411 -1.3472  0.2892
 4295TIP3   OH234299   1.832   4.352  11.664  0.5234  0.4226 -0.7565
 4295TIP3    H134300   1.877   4.436  11.677 -0.3304  0.7090  0.6512
 4295TIP3    H234301   1.739   4.373  11.676  0.3699 -0.8896  0.7045
 4296TIP3   OH234302   3.003   1.439  11.022 -0.7155  0.0022 -0.3054
 4296TIP3    H134303   2.933   1.498  10.993 -0.9194 -0.3697 -0.5836
 4296TIP3    H234304   3.025   1.388  10.943 -0.7899 -0.5384  0.0182
 4297TIP3   OH234305   4.388   3.153  15.358 -0.1501  0.1985 -0.1722
 4297TIP3    H134306   4.353   3.065  15.369 -0.1664  0.0989 -0.9366
 4297TIP3    H234307   4.377   3.195  15.443 -1.5323 -0.0462 -0.2187
 4298TIP3   OH234308   0.120   6.769  11.192 -0.3412 -0.8068 -0.3480
 4298TIP3    H134309   0.057   6.722  11.137 -1.2308  0.6070 -0.6170
 4298TIP3    H234310   0.132   6.853  11.146  2.2771 -1.2799 -0.6528
 4299TIP3   OH234311   1.962   0.693   0.256  0.1443 -0.4449  0.0061
 4299TIP3    H134312   1.938   0.632   0.326  0.5851 -0.9833 -0.3048
 4299TIP3    H234313   1.905   0.768   0.270 -1.9844 -1.7977 -0.9215
 4300TIP3   OH234314   3.010   0.950  15.653 -0.5705 -0.0618  0.0611
 4300TIP3    H134315   3.002   1.037  15.691 -2.8519 -0.1680 -0.0599
 4300TIP3    H234316   2.989   0.890  15.724  2.0347 -0.6294  0.4428
 4301TIP3   OH234317   2.428   6.550   0.452 -0.3637  0.5466  0.4034
 4301TIP3    H134318   2.340   6.549   0.415  0.2949  0.2958 -1.2467
 4301TIP3    H234319   2.463   6.637   0.430  0.5819 -0.1488 -0.9520
 4302TIP3   OH234320   1.355   0.525   4.129 -0.1584 -0.8060 -0.0110
 4302TIP3    H134321   1.397   0.609   4.150 -0.3200 -0.8433  0.4730
 4302TIP3    H234322   1.400   0.495   4.050 -0.7155  0.1903 -0.7486
 4303TIP3   OH234323   3.610   4.090  11.361  0.0046  0.4651 -0.2856
 4303TIP3    H134324   3.563   4.008  11.351  0.4742 -0.0623  1.4297
 4303TIP3    H234325   3.701   4.065  11.375  0.5139  1.3854 -1.7282
 4304TIP3   OH234326   5.749   3.652   0.411 -0.2493 -0.5617  0.1209
 4304TIP3    H134327   5.804   3.719   0.451 -0.3562 -1.4678  1.8870
 4304TIP3    H234328   5.678   3.700   0.369 -0.3250  0.4232  1.3405
 4305TIP3   OH234329   1.221   3.385   0.964 -0.2606 -0.0311 -0.1634
 4305TIP3    H134330   1.183   3.364   0.879  1.8825 -0.1617 -1.1429
 4305TIP3    H234331   1.166   3.455   0.999 -0.9223  0.3148 -1.8386
 4306TIP3   OH234332   1.830   6.667  15.592 -0.5052 -0.3661  0.4160
 4306TIP3    H134333   1.835   6.729  15.520  0.0384 -0.0038  0.7575
 4306TIP3    H234334   1.771   6.709  15.656 -0.9529 -0.6668  0.2054
 4307TIP3   OH234335   5.295   6.298   5.602  0.0776  0.1394 -0.1723
 4307TIP3    H134336   5.313   6.368   5.539  0.1592  1.1510  0.9478
 4307TIP3    H234337   5.199   6.292   5.603  0.0067  1.1479  0.6751
 4308TIP3   OH234338   0.731   5.411   5.252 -0.3913 -0.3711  0.1928
 4308TIP3    H134339   0.736   5.329   5.300  0.2534 -1.1500 -1.1506
 4308TIP3    H234340   0.819   5.448   5.257 -1.3265  1.7765  3.2838
 4309TIP3   OH234341   6.701   3.182  14.852  0.0104  0.3080 -0.1620
 4309TIP3    H134342   6.758   3.117  14.810  0.5168 -0.6651  1.8888
 4309TIP3    H234343   6.732   3.186  14.942 -1.2711  2.0110  0.2469
 4310TIP3   OH234344   3.990   5.660   6.689  0.1199  0.0873 -0.3924
 4310TIP3    H134345   3.992   5.686   6.597  2.2258 -0.1322 -0.4549
 4310TIP3    H234346   3.973   5.741   6.736  1.5291  0.7053 -0.8727
 4311TIP3   OH234347   1.210   6.742  12.645  0.4763 -0.7257 -0.2662
 4311TIP3    H134348   1.196   6.833  12.672 -0.9921 -0.2398 -2.3700
 4311TIP3    H234349   1.228   6.695  12.727 -0.9286  1.0622  1.1711
 4312TIP3   OH234350   3.924   5.774  17.180  0.5492 -0.4281 -0.4964
 4312TIP3    H134351   3.861   5.804  17.245  1.6394  0.6331  0.1196
 4312TIP3    H234352   3.915   5.835  17.107  2.4081  1.2157  0.5444
 4313TIP3   OH234353   2.357   2.470   0.288  0.2183 -0.1453 -0.3560
 4313TIP3    H134354   2.422   2.482   0.219  0.4357 -1.3425 -0.3736
 4313TIP3    H234355   2.369   2.380   0.317 -2.4333 -0.9254 -1.3927
 4314TIP3   OH234356   0.558   1.534   5.680  0.2451  0.0438  0.1159
 4314TIP3    H134357   0.495   1.478   5.726 -0.2495  0.3051 -0.2267
 4314TIP3    H234358   0.640   1.486   5.684  0.3431  0.2866  1.6995
 4315TIP3   OH234359   5.369   0.184   5.312  0.0263 -0.3069  0.2333
 4315TIP3    H134360   5.285   0.212   5.348  0.5589  1.0656  0.4650
 4315TIP3    H234361   5.374   0.091   5.332 -1.9424 -0.6946 -0.7905
 4316TIP3   OH234362   4.234   6.030  17.157 -0.7262 -0.6111 -0.2520
 4316TIP3    H134363   4.253   6.079  17.237 -0.1734 -1.6286  0.2630
 4316TIP3    H234364   4.272   5.944  17.172  1.2665 -0.2198 -2.4168
 4317TIP3   OH234365   2.101   3.414   4.151 -0.0948  0.4018  0.0779
 4317TIP3    H134366   2.039   3.365   4.205 -0.1786  3.3884  3.0803
 4317TIP3    H234367   2.051   3.438   4.073 -1.3705 -0.6732  0.5266
 4318TIP3   OH234368   5.755   3.294  14.327  0.0438 -0.1588 -0.0433
 4318TIP3    H134369   5.683   3.357  14.316 -0.1295 -0.5130 -1.1640
 4318TIP3    H234370   5.788   3.310  14.415 -2.2243 -0.8178  1.0071
 4319TIP3   OH234371   1.858   4.242   4.590  0.0771 -0.5592 -0.6478
 4319TIP3    H134372   1.865   4.335   4.611 -0.6679 -0.6587  0.0962
 4319TIP3    H234373   1.770   4.218   4.620  0.3217 -1.5405 -0.6976
 4320TIP3   OH234374   0.248   2.131   4.243 -0.0100 -0.0071  0.2380
 4320TIP3    H134375   0.235   2.210   4.191  0.7744  0.9741  1.4609
 4320TIP3    H234376   0.304   2.075   4.190  1.2597  1.2222  0.2497
 4321TIP3   OH234377   5.411   3.832   3.781 -0.2301 -0.1814  0.0793
 4321TIP3    H134378   5.443   3.903   3.837  1.4842 -1.2125  0.4682
 4321TIP3    H234379   5.417   3.753   3.836 -0.7179 -0.8662 -0.8202
 4322TIP3   OH234380   1.237   2.243   4.658 -0.4423  0.1067 -0.4947
 4322TIP3    H134381   1.279   2.310   4.712 -0.8990 -1.4331  1.9559
 4322TIP3    H234382   1.148   2.274   4.645 -1.0600 -0.4902  1.7440
 4323TIP3   OH234383   1.941   6.488   5.730 -0.0438 -0.3656  0.2743
 4323TIP3    H134384   1.862   6.533   5.699  0.4512  0.5922  0.3558
 4323TIP3    H234385   1.908   6.414   5.781 -0.9045  0.3792  0.8239
 4324TIP3   OH234386   1.793   2.149  16.431  0.1069 -0.1901  0.7186
 4324TIP3    H134387   1.799   2.244  16.416 -1.1930 -0.0655  0.8826
 4324TIP3    H234388   1.750   2.115  16.353  0.8414 -0.7033  0.5245
 4325TIP3   OH234389   1.427   2.993   4.773  0.0411 -0.1002  0.4085
 4325TIP3    H134390   1.506   3.043   4.751 -0.3155  0.6848  0.8698
 4325TIP3    H234391   1.358   3.059   4.778 -0.9875 -0.9332 -1.5468
 4326TIP3   OH234392   0.394   4.110   2.981  0.0149  0.9251 -0.4772
 4326TIP3    H134393   0.382   4.142   3.071  0.5599 -2.2403  0.8813
 4326TIP3    H234394   0.487   4.087   2.977 -0.5987 -1.8637 -0.6737
 4327TIP3   OH234395   6.586   6.704   0.968 -0.1801 -0.4774 -0.8183
 4327TIP3    H134396   6.495   6.682   0.989 -0.5606  1.1095 -0.6732
 4327TIP3    H234397   6.599   6.670   0.879 -1.2202  0.0827 -1.2006
 4328TIP3   OH234398   0.305   5.209   0.131  0.4235  0.4235 -0.0303
 4328TIP3    H134399   0.293   5.272   0.203 -1.4699 -2.3142  2.3235
 4328TIP3    H234400   0.227   5.221   0.076  0.3220  0.4644  0.1204
 4329TIP3   OH234401   5.102   0.067  14.185  0.1463  0.2151  0.2634
 4329TIP3    H134402   5.101   0.010  14.262 -0.3405  0.3216  0.3384
 4329TIP3    H234403   5.194   0.092  14.175  0.7952 -2.2765 -1.0365
 4330TIP3   OH234404   5.045   0.213  16.599  0.4161  0.7631 -0.0746
 4330TIP3    H134405   4.966   0.232  16.548 -0.6059 -1.9043  0.3649
 4330TIP3    H234406   5.017   0.223  16.690 -0.5599 -3.3858  0.2702
 4331TIP3   OH234407   0.606   1.587  13.313  0.1545 -0.2482  0.3029
 4331TIP3    H134408   0.588   1.669  13.269  0.4259 -0.0939  0.4748
 4331TIP3    H234409   0.572   1.599  13.402  1.5087  0.2282  0.7847
 4332TIP3   OH234410   6.144   1.523  16.952  0.0259  0.5606 -0.6075
 4332TIP3    H134411   6.238   1.541  16.951  0.1832 -0.2466 -0.5798
 4332TIP3    H234412   6.137   1.432  16.979 -0.8359  1.0472  0.9039
 4333TIP3   OH234413   0.079   4.728  16.513 -0.1166 -1.1105 -0.0712
 4333TIP3    H134414   0.135   4.757  16.585 -0.6535 -0.0236 -0.0747
 4333TIP3    H234415   0.007   4.681  16.555 -0.3820 -0.5553  0.1129
 4334TIP3   OH234416   0.957   5.292  16.319  0.0763  0.1172 -0.0985
 4334TIP3    H134417   0.885   5.346  16.351  0.5662  0.3810  0.6002
 4334TIP3    H234418   0.942   5.284  16.225 -1.2521 -0.4328  0.1400
 4335TIP3   OH234419   5.232   1.029  12.814  0.2467  0.2237  0.3124
 4335TIP3    H134420   5.290   1.005  12.742  1.0435  2.2689  0.2032
 4335TIP3    H234421   5.247   1.122  12.826 -1.2029  0.2857  1.9597
 4336TIP3   OH234422   1.211   0.228   0.304 -0.3401 -0.1544  0.0860
 4336TIP3    H134423   1.162   0.276   0.371  1.4291 -0.2882  1.5522
 4336TIP3    H234424   1.244   0.151   0.349 -0.5555 -1.1745 -1.4334
 4337TIP3   OH234425   5.438   1.849  13.375  0.5320 -0.3887  0.3160
 4337TIP3    H134426   5.482   1.786  13.432 -0.0701 -2.0953 -1.0313
 4337TIP3    H234427   5.508   1.885  13.321  0.5604 -1.8119 -0.6352
 4338TIP3   OH234428   2.165   0.126   1.944  0.2956 -0.7648  0.0323
 4338TIP3    H134429   2.234   0.193   1.944 -0.0558 -0.4021  0.1880
 4338TIP3    H234430   2.087   0.172   1.913  0.2454 -1.3068 -0.6651
 4339TIP3   OH234431   4.380   2.536  11.349  0.2284 -0.4855  0.0703
 4339TIP3    H134432   4.298   2.493  11.372  0.1954 -0.4455  0.0284
 4339TIP3    H234433   4.386   2.529  11.254  1.6542 -2.9659  0.2776
 4340TIP3   OH234434   5.937   5.974  16.134  0.0856 -0.9471 -0.6540
 4340TIP3    H134435   5.913   5.893  16.089  0.7167 -2.4651  1.5609
 4340TIP3    H234436   6.026   5.959  16.163 -0.8620 -0.8928  2.6546
 4341TIP3   OH234437   1.616   6.699   4.107  0.1087  0.8218  0.4827
 4341TIP3    H134438   1.691   6.758   4.097 -0.3620  1.2156 -1.1352
 4341TIP3    H234439   1.643   6.636   4.173  1.6377  1.3026  0.3510
 4342TIP3   OH234440   1.586   2.825  13.377 -0.1115 -0.0864  0.3512
 4342TIP3    H134441   1.622   2.776  13.450 -0.1620 -0.0661  0.3900
 4342TIP3    H234442   1.552   2.906  13.416  1.3542  0.6912  0.0783
 4343TIP3   OH234443   1.914   1.142  14.894  0.9516  0.3532 -0.5838
 4343TIP3    H134444   1.944   1.204  14.960  0.4379  0.1872 -0.1903
 4343TIP3    H234445   1.850   1.087  14.939  1.1981 -0.2894 -1.0026
 4344TIP3   OH234446   5.985   4.393  13.375 -0.2344 -0.3795  0.1529
 4344TIP3    H134447   6.007   4.323  13.435 -0.2942 -0.7145 -0.2111
 4344TIP3    H234448   5.907   4.361  13.328  0.4059 -0.5555 -0.8084
 4345TIP3   OH234449   6.737   3.875   1.898 -0.1089  0.1434 -0.0331
 4345TIP3    H134450   6.689   3.866   1.817 -0.1142 -1.6558  0.1441
 4345TIP3    H234451   6.672   3.862   1.967 -0.2079  2.1511  0.3101
 4346TIP3   OH234452   2.117   3.391  16.150 -0.0116 -0.0510  0.0133
 4346TIP3    H134453   2.041   3.446  16.130 -0.2809 -0.1738  0.6629
 4346TIP3    H234454   2.193   3.447  16.133 -0.2307 -0.0985 -1.1515
 4347TIP3   OH234455   6.301   0.744  16.240  0.1383 -0.0560 -0.1105
 4347TIP3    H134456   6.392   0.734  16.212  0.1338  1.8699 -0.9692
 4347TIP3    H234457   6.282   0.663  16.288  1.7907 -1.2068 -1.2589
 4348TIP3   OH234458   1.672   0.557   5.980  0.4346  0.7710 -0.1557
 4348TIP3    H134459   1.735   0.602   5.923  1.9114 -0.2708  0.5918
 4348TIP3    H234460   1.652   0.476   5.933  1.1105  0.2384  0.4629
 4349TIP3   OH234461   1.396   5.593  13.032  0.1640 -0.0239 -0.8146
 4349TIP3    H134462   1.468   5.554  12.983  0.5591  0.4374 -0.6163
 4349TIP3    H234463   1.367   5.525  13.092  0.7713 -0.0521 -0.5476
 4350TIP3   OH234464   3.592   3.066  14.453 -0.2041  0.2672 -0.1282
 4350TIP3    H134465   3.576   3.106  14.367  1.1182 -0.6422 -0.8369
 4350TIP3    H234466   3.567   2.974  14.441  1.0562 -0.1328  0.0758
 4351TIP3   OH234467   4.338   4.914  14.414 -0.3060 -0.1151 -0.0755
 4351TIP3    H134468   4.377   4.910  14.501 -2.2526  0.4950  0.8805
 4351TIP3    H234469   4.412   4.911  14.354  1.1716  0.8094  1.6184
 4352TIP3   OH234470   3.086   6.758  15.841 -0.0487  0.3376 -0.3423
 4352TIP3    H134471   3.096   6.712  15.758  1.9532 -0.1045  0.0909
 4352TIP3    H234472   3.130   6.842  15.827  2.4584 -0.6867  0.9482
 4353TIP3   OH234473   4.550   5.930   3.509  0.1700 -0.4757 -0.4044
 4353TIP3    H134474   4.595   5.983   3.443  2.5005  2.5300  3.2109
 4353TIP3    H234475   4.462   5.968   3.514  0.6404  0.6235 -0.3834
 4354TIP3   OH234476   6.704   6.159   1.823 -0.0648  0.6539 -0.1356
 4354TIP3    H134477   6.739   6.122   1.742 -0.0993 -0.9608  0.5512
 4354TIP3    H234478   6.720   6.091   1.889 -0.2388  1.8445  1.1661
 4355TIP3   OH234479   5.547   1.622   1.082 -0.1487 -0.6064 -0.6659
 4355TIP3    H134480   5.510   1.620   0.993 -0.4495  0.9791 -0.6052
 4355TIP3    H234481   5.630   1.576   1.075 -0.5367 -1.1947 -1.5874
 4356TIP3   OH234482   3.177   3.033  12.444  0.3974  0.0145 -0.4972
 4356TIP3    H134483   3.208   3.058  12.531  2.5609 -0.0529 -1.1980
 4356TIP3    H234484   3.100   2.979  12.461 -0.7500  2.0516  1.2584
 4357TIP3   OH234485   2.162   0.392  17.248  0.1478  0.4943  0.2187
 4357TIP3    H134486   2.191   0.478  17.279  1.9533  0.8124 -2.0564
 4357TIP3    H234487   2.240   0.337  17.255 -0.3117 -0.2728 -0.5464
 4358TIP3   OH234488   1.079   0.927   6.289  0.2810  0.0772 -0.4146
 4358TIP3    H134489   1.052   1.001   6.235  1.3856 -0.9042 -2.4251
 4358TIP3    H234490   1.168   0.907   6.261  0.5021 -1.1710  1.0333
 4359TIP3   OH234491   1.452   5.041   0.911 -0.0202  0.3674 -0.4632
 4359TIP3    H134492   1.467   5.121   0.963 -0.4742  0.6840 -0.8053
 4359TIP3    H234493   1.358   5.024   0.921  0.0820 -0.1549 -0.3601
 4360TIP3   OH234494   0.388   1.839  14.716  0.4927  0.7489  0.2799
 4360TIP3    H134495   0.463   1.780  14.725 -0.1860 -0.2209 -0.2660
 4360TIP3    H234496   0.311   1.782  14.721 -0.2458  1.7762  1.2910
 4361TIP3   OH234497   6.004   5.524  12.305  0.2168  0.0180  0.1284
 4361TIP3    H134498   6.081   5.581  12.298 -0.5437  1.0121 -0.2747
 4361TIP3    H234499   5.933   5.573  12.264 -1.0098 -0.2147  1.8510
 4362TIP3   OH234500   3.720   2.317  16.954 -0.3033 -0.5262  0.2391
 4362TIP3    H134501   3.767   2.233  16.950 -0.4130 -0.5300 -2.7960
 4362TIP3    H234502   3.647   2.301  17.014  0.3435 -2.2292  0.6204
 4363TIP3   OH234503   3.925   3.478   0.865  0.3786  0.4276  0.5061
 4363TIP3    H134504   3.906   3.506   0.775  1.0806  0.1890  0.2785
 4363TIP3    H234505   3.987   3.543   0.898  2.3052 -1.0112 -0.1497
 4364TIP3   OH234506   2.594   1.431  16.904 -0.3174  0.2010 -0.0541
 4364TIP3    H134507   2.631   1.348  16.935 -1.8700 -0.1024  1.0762
 4364TIP3    H234508   2.531   1.456  16.972 -1.3248  1.2772 -1.3380
 4365TIP3   OH234509   5.113   0.566   0.692  0.2881 -0.0577 -0.3659
 4365TIP3    H134510   5.031   0.615   0.701  0.2247 -0.3513  0.7979
 4365TIP3    H234511   5.167   0.621   0.635  0.3387  1.5786  1.1692
 4366TIP3   OH234512   1.056   4.510   0.945 -0.2573 -0.1472  0.2320
 4366TIP3    H134513   0.997   4.546   1.011 -2.2012 -1.3728 -0.7320
 4366TIP3    H234514   1.079   4.423   0.979 -1.8882 -1.1021 -0.9759
 4367TIP3   OH234515   0.709   2.167   6.756  0.4367  0.6248  0.2093
 4367TIP3    H134516   0.688   2.116   6.834 -0.7992  0.2656 -0.3215
 4367TIP3    H234517   0.737   2.102   6.691  1.1546  0.8877  0.2433
 4368TIP3   OH234518   0.642   1.139   6.816 -0.7698  0.3906 -0.4834
 4368TIP3    H134519   0.647   1.071   6.749 -0.4923  0.8593 -0.9481
 4368TIP3    H234520   0.734   1.162   6.833 -0.5450 -1.9604  2.4125
 4369TIP3   OH234521   6.044   2.639   1.616  0.2711  0.2553  0.5128
 4369TIP3    H134522   5.991   2.601   1.546  1.1948  0.4354 -0.2929
 4369TIP3    H234523   6.078   2.563   1.664 -0.0503  0.1269  0.5405
 4370TIP3   OH234524   3.466   4.606  14.123  0.4008  0.4221 -0.4610
 4370TIP3    H134525   3.402   4.668  14.157  1.0976  0.5411  0.6555
 4370TIP3    H234526   3.413   4.543  14.072 -0.5023  0.9460 -0.1976
 4371TIP3   OH234527   1.009   6.032   2.471  0.1303  0.1348 -0.4865
 4371TIP3    H134528   1.031   5.952   2.423  0.8729  1.0059 -1.6600
 4371TIP3    H234529   0.946   6.003   2.538  2.3454 -1.8880  0.8728
 4372TIP3   OH234530   6.754   3.486   3.924 -0.4726 -0.1208  0.2403
 4372TIP3    H134531   6.687   3.480   3.856 -0.4340  0.9319  0.0990
 4372TIP3    H234532   6.829   3.528   3.881 -0.7225  1.2780  1.1013
 4373TIP3   OH234533   6.065   1.119  12.705 -0.0699  0.1338  0.4639
 4373TIP3    H134534   6.136   1.139  12.644  0.5958 -1.6759  0.5860
 4373TIP3    H234535   6.065   1.193  12.767  1.4506  0.3622  0.2371
 4374TIP3   OH234536   0.313   5.608  16.110 -0.0263  0.0298 -0.1012
 4374TIP3    H134537   0.339   5.571  16.026 -2.2198 -1.3518 -0.2561
 4374TIP3    H234538   0.282   5.696  16.089  1.5468  0.5644 -0.3403
 4375TIP3   OH234539   5.379   6.724  17.285  0.4623 -0.3518  0.7369
 4375TIP3    H134540   5.435   6.699  17.211  0.8425  1.3874  0.3845
 4375TIP3    H234541   5.438   6.771  17.344 -0.5619  1.4231  0.4084
 4376TIP3   OH234542   3.311   2.604   2.386  0.5308 -0.0239 -0.1132
 4376TIP3    H134543   3.361   2.643   2.314  1.1592  0.5949  0.6365
 4376TIP3    H234544   3.290   2.678   2.443  0.9382 -0.6312  0.8597
 4377TIP3   OH234545   0.873   5.153   2.476 -0.0229  0.2959 -0.1927
 4377TIP3    H134546   0.828   5.076   2.440 -0.8052  1.1522 -1.1181
 4377TIP3    H234547   0.943   5.117   2.531 -0.8846 -1.0740  0.0564
 4378TIP3   OH234548   5.580   0.812  10.285 -0.0353  0.1463  0.1476
 4378TIP3    H134549   5.537   0.878  10.231  0.4753  0.0817 -0.3502
 4378TIP3    H234550   5.638   0.862  10.342 -0.3171  0.1888  0.4002
 4379TIP3   OH234551   4.068   4.202   3.138  0.0277 -0.3444  0.0720
 4379TIP3    H134552   4.106   4.156   3.213 -0.5798 -1.7955 -0.4746
 4379TIP3    H234553   3.989   4.153   3.117  0.2730 -0.0845 -1.6184
 4380TIP3   OH234554   4.007   2.963  12.790 -0.1560  0.2231  0.4662
 4380TIP3    H134555   4.049   2.983  12.874  2.2640  1.4601 -0.9539
 4380TIP3    H234556   4.020   2.868  12.780  1.3481  0.3797  0.6208
 4381TIP3   OH234557   1.550   2.875   1.650 -0.0888  0.1756 -0.0883
 4381TIP3    H134558   1.532   2.945   1.712  1.6184  0.3964  0.2150
 4381TIP3    H234559   1.637   2.843   1.675 -0.0413 -0.7897 -1.3890
 4382TIP3   OH234560   1.606   5.579   2.343 -0.8789  0.4329  0.1947
 4382TIP3    H134561   1.689   5.600   2.300 -0.1458 -0.6614  1.0221
 4382TIP3    H234562   1.583   5.493   2.308 -0.4881 -0.2842  1.6114
 4383TIP3   OH234563   4.382   5.700   5.436  0.0051 -0.0760 -0.3024
 4383TIP3    H134564   4.331   5.623   5.462 -1.8580  0.9641 -0.7583
 4383TIP3    H234565   4.421   5.676   5.352 -1.1007 -0.3055 -0.7624
 4384TIP3   OH234566   5.243   1.554   0.370 -0.0386 -0.3987  0.6728
 4384TIP3    H134567   5.157   1.515   0.379 -0.3525 -0.1637 -1.0195
 4384TIP3    H234568   5.303   1.480   0.362 -0.2595 -0.5523  0.4314
 4385TIP3   OH234569   5.593   0.912   6.511 -0.0873  0.1459  0.5008
 4385TIP3    H134570   5.685   0.932   6.526 -0.3098  0.7668  1.0805
 4385TIP3    H234571   5.586   0.899   6.416  0.8931 -1.5125  0.6244
 4386TIP3   OH234572   5.820   0.359   4.289  0.1305 -0.0843 -0.4594
 4386TIP3    H134573   5.753   0.419   4.255 -2.4262 -3.2744 -1.7198
 4386TIP3    H234574   5.859   0.321   4.211  0.6723 -1.0409  0.2573
 4387TIP3   OH234575   4.403   6.050   5.059  0.0535 -0.3947  0.3484
 4387TIP3    H134576   4.335   5.997   5.018 -0.3999 -0.8058  1.5973
 4387TIP3    H234577   4.359   6.094   5.131  1.0240 -0.3695  0.9373
 4388TIP3   OH234578   4.860   3.244  13.284  0.2719 -0.3213  0.5403
 4388TIP3    H134579   4.852   3.228  13.190 -0.3428  0.2118  0.4971
 4388TIP3    H234580   4.946   3.208  13.307 -0.2593 -1.9812  0.0965
 4389TIP3   OH234581   1.661   3.091  14.706 -0.1363  0.0860  0.1605
 4389TIP3    H134582   1.646   3.178  14.741 -2.9631 -0.9971  2.0406
 4389TIP3    H234583   1.576   3.047  14.716  1.1481 -2.8236 -0.7984
 4390TIP3   OH234584   4.075   1.606   5.417 -0.1789 -0.1780  0.1582
 4390TIP3    H134585   4.005   1.578   5.358 -1.6180  2.1036  0.6568
 4390TIP3    H234586   4.055   1.563   5.500 -0.6736  0.0155  0.1425
 4391TIP3   OH234587   4.510   3.003   2.880 -0.3633  0.4016 -0.4462
 4391TIP3    H134588   4.488   2.916   2.915  1.9577 -0.0262  0.0930
 4391TIP3    H234589   4.578   3.036   2.938 -0.8017  2.3656 -0.9843
 4392TIP3   OH234590   3.740   3.390   2.050 -0.3907  0.2227  0.3332
 4392TIP3    H134591   3.767   3.436   2.130  1.3677 -3.9614  2.4208
 4392TIP3    H234592   3.664   3.338   2.078  1.6374 -3.0988  0.1601
 4393TIP3   OH234593   0.608   3.136  16.775  0.1217  0.3850 -0.0121
 4393TIP3    H134594   0.641   3.061  16.726  1.1649  0.4008  0.6071
 4393TIP3    H234595   0.586   3.201  16.709  3.6600  1.2927 -0.5012
 4394TIP3   OH234596   0.413   0.954   5.532 -0.1606  0.1443  0.1047
 4394TIP3    H134597   0.345   0.973   5.598  0.0093  0.7805  0.1027
 4394TIP3    H234598   0.431   0.861   5.543 -1.9473 -0.3568 -0.7455
 4395TIP3   OH234599   1.280   6.418   3.228 -0.3733  0.2030 -0.2475
 4395TIP3    H134600   1.319   6.355   3.288  0.2898  1.4996  0.7631
 4395TIP3    H234601   1.346   6.430   3.159 -1.0062 -1.0562 -1.1190
 4396TIP3   OH234602   6.177   5.708  15.952 -0.0970 -0.2099  0.3025
 4396TIP3    H134603   6.217   5.719  16.038 -0.4311  0.7888  0.3381
 4396TIP3    H234604   6.138   5.793  15.933  1.8856  0.3165 -1.8288
 4397TIP3   OH234605   6.098   3.438   6.755 -0.5835 -0.2684  0.0486
 4397TIP3    H134606   6.132   3.371   6.695 -1.1673 -1.0744  0.5955
 4397TIP3    H234607   6.051   3.499   6.698 -1.0964 -1.0048 -0.3331
 4398TIP3   OH234608   3.043   3.349  10.311  0.2342 -0.1323 -0.8321
 4398TIP3    H134609   3.079   3.309  10.390 -0.8970  1.0400  0.3302
 4398TIP3    H234610   3.093   3.430  10.301 -1.0167  0.7673 -0.0618
 4399TIP3   OH234611   0.155   0.930  11.755 -0.3228  0.1616  0.4827
 4399TIP3    H134612   0.175   0.983  11.677 -1.0180 -0.7372 -0.3345
 4399TIP3    H234613   0.061   0.916  11.752 -0.1283 -1.3885  0.4709
 4400TIP3   OH234614   0.483   5.694  17.145  0.4240 -0.2172  1.2006
 4400TIP3    H134615   0.500   5.745  17.065  0.9380 -1.7760  0.2871
 4400TIP3    H234616   0.387   5.692  17.151  0.3876  0.2480  0.8421
 4401TIP3   OH234617   1.437   4.787   3.769  0.2514 -0.2065  0.3795
 4401TIP3    H134618   1.495   4.786   3.693  0.2582 -0.2270  0.3849
 4401TIP3    H234619   1.349   4.802   3.733  0.1613 -0.8692  0.3029
 4402TIP3   OH234620   2.243   1.090  16.234 -0.3374  0.4255  0.5232
 4402TIP3    H134621   2.159   1.046  16.246  0.6470 -1.5120  0.5664
 4402TIP3    H234622   2.308   1.023  16.249  1.2502  1.8487  0.3012
 4403TIP3   OH234623   0.319   2.997  13.586  0.4057  0.3619 -0.3744
 4403TIP3    H134624   0.229   2.963  13.588  0.3389  0.2286 -2.8306
 4403TIP3    H234625   0.308   3.091  13.575  0.5862  0.4359  0.0592
 4404TIP3   OH234626   0.155   1.822   0.318 -0.2825  0.3341 -0.3080
 4404TIP3    H134627   0.132   1.793   0.406  1.2603  0.4747  0.1760
 4404TIP3    H234628   0.076   1.865   0.285 -0.3243  2.0545  1.7923
 4405TIP3   OH234629   0.865   4.032   0.112  0.0067  0.7327 -0.2063
 4405TIP3    H134630   0.905   4.037   0.199  1.4778 -0.9873 -0.7286
 4405TIP3    H234631   0.921   4.088   0.057 -0.3202  1.0074 -0.2635
 4406TIP3   OH234632   6.030   4.080  15.194 -0.4345  0.1730  0.3583
 4406TIP3    H134633   6.106   4.134  15.171 -1.8496  1.8299 -0.6444
 4406TIP3    H234634   6.060   3.990  15.180  0.9849  0.8368 -1.2344
 4407TIP3   OH234635   5.795   6.746   5.802  0.0912  0.0196  0.6480
 4407TIP3    H134636   5.820   6.823   5.751 -0.5843  1.2320  2.0717
 4407TIP3    H234637   5.862   6.740   5.870  0.3025 -0.8392  0.3717
 4408TIP3   OH234638   5.687   5.581   5.830  0.0315 -0.3401 -0.0165
 4408TIP3    H134639   5.663   5.521   5.759 -0.7450  0.0727 -0.1102
 4408TIP3    H234640   5.614   5.642   5.836  0.6285  0.3554  0.3567
 4409TIP3   OH234641   3.108   5.537   5.215 -0.1177  0.0435  0.3154
 4409TIP3    H134642   3.178   5.569   5.157 -0.7946 -0.3193 -0.7113
 4409TIP3    H234643   3.155   5.505   5.293  0.6574  3.0567  1.2330
 4410TIP3   OH234644   4.901   2.692   2.098 -1.2075  0.0773  0.7742
 4410TIP3    H134645   4.956   2.641   2.039 -0.1544  0.1428  1.6618
 4410TIP3    H234646   4.936   2.781   2.093 -1.8484  0.3304  0.6384
 4411TIP3   OH234647   1.066   2.569   5.768 -0.0213 -0.4079 -0.0461
 4411TIP3    H134648   1.103   2.481   5.757  0.5870 -0.0261 -1.2214
 4411TIP3    H234649   1.099   2.599   5.852  0.1175 -1.1362  0.1670
 4412TIP3   OH234650   0.651   0.912   5.381 -0.0017 -0.1877  0.3620
 4412TIP3    H134651   0.700   0.977   5.330  1.2319  0.1481  1.9018
 4412TIP3    H234652   0.586   0.963   5.429  0.4009 -0.1924  0.9173
 4413TIP3   OH234653   0.570   2.171   1.121 -0.2311 -0.5369  0.0768
 4413TIP3    H134654   0.601   2.242   1.178  0.0727  1.9861 -2.9683
 4413TIP3    H234655   0.643   2.153   1.062 -1.2798 -1.4108 -1.0187
 4414TIP3   OH234656   3.071   2.708   4.113 -0.0397  0.1300 -0.1615
 4414TIP3    H134657   3.002   2.716   4.179 -0.7921 -0.7008 -0.8127
 4414TIP3    H234658   3.151   2.694   4.163 -0.2918  1.3344  0.6129
 4415TIP3   OH234659   4.595   1.148   2.610  0.0910 -0.3706  0.2711
 4415TIP3    H134660   4.657   1.124   2.680  0.7985 -0.1797 -0.2812
 4415TIP3    H234661   4.593   1.244   2.612  2.1780 -0.2164 -1.6940
 4416TIP3   OH234662   3.067   0.992  15.388 -0.4247  0.0861  0.1754
 4416TIP3    H134663   3.110   0.909  15.370 -1.0842  0.1388 -1.8847
 4416TIP3    H234664   3.055   0.992  15.483  0.5919 -1.6478  0.3550
 4417TIP3   OH234665   4.901   0.235   4.063 -0.3338 -0.3736  0.3012
 4417TIP3    H134666   4.958   0.166   4.098  2.2556  1.3274 -0.2467
 4417TIP3    H234667   4.837   0.188   4.009  0.1117 -2.4498  1.4519
 4418TIP3   OH234668   5.198   6.051  12.637  0.4068 -0.7012 -0.2043
 4418TIP3    H134669   5.224   6.132  12.680  0.4182 -0.2723 -1.0013
 4418TIP3    H234670   5.104   6.058  12.626  0.5045 -0.4329 -0.9741
 4419TIP3   OH234671   1.367   2.118   2.719  0.0598  0.5123 -0.1351
 4419TIP3    H134672   1.376   2.024   2.732 -2.7458 -0.0046 -1.2548
 4419TIP3    H234673   1.307   2.146   2.789 -1.5171  0.8526 -1.5643
 4420TIP3   OH234674   0.076   3.663   2.720  0.2127  0.4038  0.0563
 4420TIP3    H134675   0.119   3.581   2.696 -0.0548  0.6051 -1.1705
 4420TIP3    H234676  -0.002   3.667   2.664  0.5744  1.7888 -0.4000
 4421TIP3   OH234677   1.689   3.372  11.326 -0.1801 -0.1431  0.5435
 4421TIP3    H134678   1.703   3.464  11.347  0.9256 -0.5063  1.5188
 4421TIP3    H234679   1.628   3.341  11.393  1.5306 -0.7335  1.9098
 4422TIP3   OH234680   3.174   0.164   3.799  0.0890 -0.3637  0.1394
 4422TIP3    H134681   3.111   0.149   3.730 -0.1922 -1.6814  0.6672
 4422TIP3    H234682   3.208   0.077   3.822 -0.6109 -0.1202  2.3796
 4423TIP3   OH234683   3.468   5.412  13.598  0.3005  0.0609  0.0664
 4423TIP3    H134684   3.517   5.405  13.516  0.0909 -1.7948  0.0598
 4423TIP3    H234685   3.523   5.368  13.662 -0.4749 -0.3596  0.4587
 4424TIP3   OH234686   5.804   5.499  11.675  0.2762 -0.0643 -0.5304
 4424TIP3    H134687   5.826   5.546  11.756 -1.5568  0.5796 -0.3532
 4424TIP3    H234688   5.793   5.568  11.610  2.2059 -0.6100 -1.4960
 4425TIP3   OH234689   2.842   4.645   1.706  0.5058  0.5236 -0.0641
 4425TIP3    H134690   2.838   4.569   1.648  0.8436 -0.0578  0.6561
 4425TIP3    H234691   2.918   4.628   1.763  1.1881  1.8642 -0.5335
 4426TIP3   OH234692   4.143   6.127  15.268  0.2108 -0.5242 -0.5648
 4426TIP3    H134693   4.127   6.035  15.293 -2.1710 -0.0171 -0.0036
 4426TIP3    H234694   4.222   6.151  15.318  0.1152 -1.8777  0.3060
 4427TIP3   OH234695   6.077   4.794   2.677 -0.3929 -0.0377 -0.0555
 4427TIP3    H134696   6.010   4.803   2.609  0.1646  0.4722 -0.5450
 4427TIP3    H234697   6.153   4.840   2.642 -0.1530  0.3830  0.9842
 4428TIP3   OH234698   1.973   1.825   0.096 -0.0093 -0.4182 -0.8737
 4428TIP3    H134699   2.038   1.756   0.083  0.6629 -0.0018  0.1384
 4428TIP3    H234700   1.963   1.866   0.010 -0.4536 -1.7932 -1.5048
 4429TIP3   OH234701   4.779   5.175   6.429  0.0382 -0.6379  0.4082
 4429TIP3    H134702   4.822   5.097   6.464  1.0410  0.2201  1.1349
 4429TIP3    H234703   4.851   5.229   6.394 -0.3818  0.8866  1.7736
 4430TIP3   OH234704   0.208   1.922   6.040 -1.0187 -0.1817  0.4179
 4430TIP3    H134705   0.124   1.886   6.009  0.6842 -1.2460 -3.7364
 4430TIP3    H234706   0.260   1.844   6.062 -0.5053  0.3587  1.1497
 4431TIP3   OH234707   5.712   1.530  12.573  0.2515 -0.3140  0.1371
 4431TIP3    H134708   5.689   1.475  12.498 -0.7928  0.1004  0.1391
 4431TIP3    H234709   5.648   1.601  12.571 -0.4413 -0.8296  1.9799
 4432TIP3   OH234710   3.349   5.980   0.708  0.2269 -0.4782  0.0379
 4432TIP3    H134711   3.394   6.008   0.788  1.1448 -0.0328 -0.6134
 4432TIP3    H234712   3.405   5.912   0.671  0.5476  0.2983 -0.9454
 4433TIP3   OH234713   3.332   1.313   0.190  0.2753 -0.6974 -0.0876
 4433TIP3    H134714   3.355   1.220   0.195 -1.2896 -1.1460 -0.6491
 4433TIP3    H234715   3.406   1.353   0.145  1.9282 -1.2808  1.9814
 4434TIP3   OH234716   5.771   2.936  12.352 -0.4715  0.2439 -1.2727
 4434TIP3    H134717   5.763   3.022  12.393 -2.5512 -0.8677  0.8830
 4434TIP3    H234718   5.720   2.943  12.271 -0.4941  1.0476 -1.1973
 4435TIP3   OH234719   6.005   6.146  10.955  0.5565 -1.2000 -0.2493
 4435TIP3    H134720   6.033   6.153  11.046  0.9369 -1.8128 -0.3199
 4435TIP3    H234721   5.983   6.054  10.943  0.2833 -1.0790 -0.7137
 4436TIP3   OH234722   0.495   0.561   2.956  0.4256 -1.0060  0.3850
 4436TIP3    H134723   0.427   0.628   2.957  0.9540 -0.4170  2.3687
 4436TIP3    H234724   0.536   0.570   2.870  0.6401  1.4363  0.6511
 4437TIP3   OH234725   5.929   3.435   0.973  0.9258 -0.2621 -1.0136
 4437TIP3    H134726   5.919   3.528   0.949 -0.4854 -0.2770 -0.5392
 4437TIP3    H234727   5.857   3.391   0.928  1.2630 -1.0488 -0.7822
 4438TIP3   OH234728   0.305   2.420   5.131  0.4443  0.2867 -0.3118
 4438TIP3    H134729   0.280   2.506   5.097 -0.6443 -0.0832 -0.4907
 4438TIP3    H234730   0.298   2.428   5.226  1.2810  0.6567 -0.2659
 4439TIP3   OH234731   0.847   4.252   3.761 -0.6785 -0.1990 -0.2342
 4439TIP3    H134732   0.843   4.247   3.856 -1.2260  1.7464 -0.0987
 4439TIP3    H234733   0.762   4.219   3.731 -1.4669  1.3683  0.1381
 4440TIP3   OH234734   3.137   2.924  13.917 -0.2508  0.5542  0.1268
 4440TIP3    H134735   3.153   2.970  13.834  0.2980  0.3890  0.1349
 4440TIP3    H234736   3.213   2.946  13.971  0.3968 -0.9485 -0.1269
 4441TIP3   OH234737   5.066   5.302   0.049  0.2353  0.0396  0.1376
 4441TIP3    H134738   4.993   5.243   0.030 -0.2026  0.5002  0.3635
 4441TIP3    H234739   5.119   5.254   0.112  0.6577 -0.6959 -0.7483
 4442TIP3   OH234740   5.724   2.360  17.198  0.1369 -0.6047 -0.2341
 4442TIP3    H134741   5.781   2.413  17.143  0.2032  0.0084  0.4061
 4442TIP3    H234742   5.704   2.417  17.273  0.0003 -1.3974  0.3371
 4443TIP3   OH234743   2.744   2.165  14.297 -0.2933  0.0410  0.0097
 4443TIP3    H134744   2.733   2.174  14.203 -0.2057  3.1355  0.1908
 4443TIP3    H234745   2.668   2.113  14.325 -0.1365 -1.2180 -1.7576
 4444TIP3   OH234746   0.019   0.113  11.818  0.3601 -0.1656 -0.1156
 4444TIP3    H134747  -0.059   0.079  11.863  0.2231  0.3074  0.0098
 4444TIP3    H234748   0.074   0.036  11.804  0.1144 -0.4176  0.2892
 4445TIP3   OH234749   4.175   4.135   4.747  0.3943  0.5013  0.3185
 4445TIP3    H134750   4.168   4.131   4.652  0.5226  0.1593  0.3231
 4445TIP3    H234751   4.251   4.192   4.764  0.2567  0.7154  0.2215
 4446TIP3   OH234752   6.443   0.680  14.980  0.2328 -0.0173  0.7381
 4446TIP3    H134753   6.524   0.678  15.030  0.1776 -0.2452  0.8186
 4446TIP3    H234754   6.464   0.732  14.903  0.0617  1.1127  1.4349
 4447TIP3   OH234755   3.526   1.491   4.472 -0.3859 -0.4025  0.0922
 4447TIP3    H134756   3.569   1.576   4.465 -0.1866 -0.4617  0.5965
 4447TIP3    H234757   3.473   1.485   4.392  0.5802 -0.3485 -0.5819
 4448TIP3   OH234758   6.591   2.064  15.549 -0.5760  0.2592 -0.3223
 4448TIP3    H134759   6.498   2.052  15.571 -0.7843  0.9307 -0.7767
 4448TIP3    H234760   6.638   2.015  15.616 -1.2702 -0.4421 -0.3219
 4449TIP3   OH234761   5.538   2.078   3.351 -0.1814 -0.1924  0.0254
 4449TIP3    H134762   5.537   2.069   3.446 -0.2887  3.6264  0.5494
 4449TIP3    H234763   5.457   2.037   3.321 -0.1568 -1.4163  1.5440
 4450TIP3   OH234764   2.404   6.245  15.136 -0.5606 -0.4783  0.2217
 4450TIP3    H134765   2.340   6.315  15.127  0.5338  0.4021 -1.1904
 4450TIP3    H234766   2.448   6.263  15.219  1.1006  1.8091 -1.0406
 4451TIP3   OH234767   3.303   2.527  15.102 -0.5563  0.3548  0.0781
 4451TIP3    H134768   3.214   2.525  15.137 -0.3532 -0.6494  0.5749
 4451TIP3    H234769   3.360   2.522  15.179 -0.0893 -0.4736 -0.3034
 4452TIP3   OH234770   0.768   3.870  11.597  0.3311  0.4820  0.0925
 4452TIP3    H134771   0.849   3.863  11.647 -0.0058 -1.1105  0.4439
 4452TIP3    H234772   0.784   3.942  11.535  2.0272  0.1263  0.0961
 4453TIP3   OH234773   3.927   0.373   2.405  0.4783 -0.5141  0.3546
 4453TIP3    H134774   3.956   0.320   2.331 -0.7964  0.0933 -0.6270
 4453TIP3    H234775   3.834   0.351   2.415 -0.0271  1.3317  0.0636
 4454TIP3   OH234776   0.479   5.074  15.633 -0.3443  0.2186 -0.1947
 4454TIP3    H134777   0.429   5.109  15.560 -0.1328 -1.5899 -1.2803
 4454TIP3    H234778   0.429   5.097  15.711 -1.7690  0.2563 -1.0936
 4455TIP3   OH234779   5.396   4.357  13.066 -0.1610  0.3295 -0.1910
 4455TIP3    H134780   5.310   4.397  13.058 -0.0585  0.3431 -1.5477
 4455TIP3    H234781   5.394   4.309  13.149 -1.4567  0.3578 -0.1970
 4456TIP3   OH234782   2.719   1.981   1.186 -0.4667  0.4830  0.8688
 4456TIP3    H134783   2.697   1.907   1.130  2.1552  0.7160 -0.6254
 4456TIP3    H234784   2.709   2.058   1.129  0.6129  0.8759  1.1845
 4457TIP3   OH234785   0.545   5.798   0.069  0.6103  0.6349  0.1624
 4457TIP3    H134786   0.570   5.888   0.048 -1.4042  1.4408  0.9571
 4457TIP3    H234787   0.514   5.763  -0.015  1.6618  0.5603 -0.2116
 4458TIP3   OH234788   4.509   2.046  16.223 -0.3460  0.3151 -0.7018
 4458TIP3    H134789   4.566   1.993  16.168 -1.7128 -0.2189 -1.6647
 4458TIP3    H234790   4.446   2.085  16.162 -1.2131  0.6208  0.3524
 4459TIP3   OH234791   4.636   3.596   3.973  0.5010 -0.0221  0.1494
 4459TIP3    H134792   4.564   3.650   4.005  0.4206 -0.1104  0.1188
 4459TIP3    H234793   4.645   3.526   4.038 -0.1954 -0.6649 -0.4217
 4460TIP3   OH234794   0.532   3.408   4.862  0.1012  0.1415  0.3001
 4460TIP3    H134795   0.438   3.386   4.858 -0.1811  0.8435  2.2397
 4460TIP3    H234796   0.561   3.400   4.771 -1.3361 -2.1901 -0.0667
 4461TIP3   OH234797   6.614   5.046   0.790  0.1542  0.2178 -0.1606
 4461TIP3    H134798   6.698   5.005   0.805  0.2906  0.7583  0.6231
 4461TIP3    H234799   6.579   5.063   0.878 -0.4878  0.5650 -0.4721
 4462TIP3   OH234800   1.234   2.474  14.008  0.4245  0.0359 -0.2283
 4462TIP3    H134801   1.316   2.463  14.057  0.3466 -0.8055 -0.2712
 4462TIP3    H234802   1.169   2.491  14.076  0.4061 -0.6254 -0.0729
 4463TIP3   OH234803   6.657   4.886  12.936  0.2384 -0.1547 -0.2765
 4463TIP3    H134804   6.733   4.857  12.987 -0.7160 -0.2615  1.1410
 4463TIP3    H234805   6.674   4.979  12.919  0.7232 -0.1985 -0.0441
 4464TIP3   OH234806   4.433   3.746  10.596  0.3586 -0.4737  0.0428
 4464TIP3    H134807   4.355   3.800  10.610  1.0907  0.3157  1.3246
 4464TIP3    H234808   4.401   3.656  10.597 -0.4498 -0.2038  1.4807
 4465TIP3   OH234809   2.104   6.559   3.621 -0.0970  0.0458  0.3992
 4465TIP3    H134810   2.138   6.633   3.572  0.0752 -1.4172 -1.8014
 4465TIP3    H234811   2.024   6.592   3.662 -1.7466  0.7078 -3.0386
 4466TIP3   OH234812   4.644   5.855  12.440  0.1153 -0.2777 -0.2614
 4466TIP3    H134813   4.692   5.792  12.493 -0.3381  0.0263  0.5319
 4466TIP3    H234814   4.581   5.803  12.390  0.0573 -0.4992  0.0427
 4467TIP3   OH234815   6.471   3.821  15.275 -0.0879  0.3360  0.4606
 4467TIP3    H134816   6.430   3.801  15.359 -1.4380 -1.4105 -0.5432
 4467TIP3    H234817   6.551   3.767  15.274 -0.1985  0.1712  0.5284
 4468TIP3   OH234818   5.767   6.601  11.397 -0.0966  0.0685 -0.1974
 4468TIP3    H134819   5.781   6.696  11.391  1.2715 -0.0138  1.0526
 4468TIP3    H234820   5.830   6.572  11.462  1.2738 -2.1024 -2.3365
 4469TIP3   OH234821   2.712   4.566   4.176  0.7567  0.7612 -0.1253
 4469TIP3    H134822   2.686   4.568   4.083  1.5077  0.0962 -0.3649
 4469TIP3    H234823   2.651   4.625   4.219 -0.5151  0.0034 -0.8197
 4470TIP3   OH234824   3.100   5.572  14.842  0.0743  0.2565 -0.0274
 4470TIP3    H134825   3.014   5.605  14.869 -0.7724 -1.3841 -0.5904
 4470TIP3    H234826   3.113   5.609  14.755  0.8345  2.0349  0.7961
 4471TIP3   OH234827   1.378   4.579  16.327  1.1925  0.1990 -0.2828
 4471TIP3    H134828   1.336   4.612  16.248 -0.2278  0.1814  0.4208
 4471TIP3    H234829   1.424   4.500  16.300 -1.1654 -1.1157 -0.7113
 4472TIP3   OH234830   6.415   1.026   1.403  0.4835 -0.3435 -0.1582
 4472TIP3    H134831   6.424   0.966   1.477  2.6788  0.1998  0.0760
 4472TIP3    H234832   6.425   0.970   1.326  2.0502 -0.4006  0.0530
 4473TIP3   OH234833   1.181   1.427   2.671 -0.0987 -0.4766  0.0512
 4473TIP3    H134834   1.121   1.423   2.746  1.4212 -0.4865  1.3094
 4473TIP3    H234835   1.268   1.421   2.710  0.7143 -1.3510 -1.7925
 4474TIP3   OH234836   1.753   0.920   4.192 -0.4034 -0.7585  0.1283
 4474TIP3    H134837   1.794   0.864   4.258 -1.3218 -1.5480  0.0390
 4474TIP3    H234838   1.767   0.875   4.109 -1.0861 -0.8303  0.0467
 4475TIP3   OH234839   2.485   5.406  11.833 -0.9331  0.7705 -0.0098
 4475TIP3    H134840   2.487   5.496  11.803 -0.8374  0.9219  0.4416
 4475TIP3    H234841   2.433   5.408  11.913 -0.1701  0.5873  0.5051
 4476TIP3   OH234842   3.123   5.388  16.692 -0.6439 -0.1199 -0.4387
 4476TIP3    H134843   3.038   5.421  16.719  0.5951  3.2746 -0.2939
 4476TIP3    H234844   3.183   5.462  16.702  2.2315 -2.1552 -1.1724
 4477TIP3   OH234845   4.646   1.977   0.314  0.8979  0.3451 -0.1498
 4477TIP3    H134846   4.638   2.050   0.375 -0.6400  0.1472 -0.0648
 4477TIP3    H234847   4.722   1.997   0.261  0.8678  1.6945  0.2924
 4478TIP3   OH234848   0.884   2.183   4.559  0.2183 -0.0170 -0.4951
 4478TIP3    H134849   0.799   2.160   4.521  0.3494 -1.0852 -0.1486
 4478TIP3    H234850   0.874   2.167   4.653  0.7680 -0.0399 -0.4382
 4479TIP3   OH234851   3.107   6.207   2.087  0.2179 -0.1969  0.2415
 4479TIP3    H134852   3.034   6.193   2.147  1.6550 -1.3616  1.8431
 4479TIP3    H234853   3.171   6.256   2.140  0.4531  1.1916 -1.2540
 4480TIP3   OH234854   0.138   2.703  13.788 -0.0388 -0.7217 -0.0879
 4480TIP3    H134855   0.130   2.796  13.769  2.9262 -0.7885 -2.3614
 4480TIP3    H234856   0.227   2.692  13.820  0.3463 -2.9884 -1.6652
 4481TIP3   OH234857   2.579   3.280  11.396  0.0521  1.0712 -0.2900
 4481TIP3    H134858   2.556   3.344  11.329 -0.9881  0.5668 -0.4265
 4481TIP3    H234859   2.534   3.200  11.370 -0.9987  1.0648  1.3785
 4482TIP3   OH234860   3.864   0.928   2.300 -0.5607 -0.1563 -0.2855
 4482TIP3    H134861   3.773   0.897   2.300 -1.6222  2.6468 -0.3382
 4482TIP3    H234862   3.881   0.952   2.209 -1.2656  2.9465  0.2582
 4483TIP3   OH234863   5.978   2.430  16.519 -0.3252 -0.0178 -0.2248
 4483TIP3    H134864   6.025   2.424  16.603 -2.0922 -0.2571  0.7958
 4483TIP3    H234865   5.937   2.516  16.522 -1.8465 -0.7186 -0.0073
 4484TIP3   OH234866   5.942   1.027   0.626 -0.4453 -0.2522  0.5408
 4484TIP3    H134867   6.007   1.084   0.586 -1.4870  0.3089 -0.4363
 4484TIP3    H234868   5.990   0.975   0.690  0.8120  0.6370  0.3459
 4485TIP3   OH234869   3.887   0.694   0.942  0.1698  0.9066  0.1790
 4485TIP3    H134870   3.799   0.655   0.951  0.0586  1.1794  0.2812
 4485TIP3    H234871   3.875   0.765   0.879  0.2342  1.1958  0.4918
 4486TIP3   OH234872   2.216   3.552  14.358 -0.7644 -0.2118  0.2037
 4486TIP3    H134873   2.172   3.608  14.293 -0.2844  0.0633  0.1076
 4486TIP3    H234874   2.308   3.556  14.333 -0.5132  0.2462  1.1659
 4487TIP3   OH234875   4.955   4.069  16.703  0.1783 -0.5975 -0.1541
 4487TIP3    H134876   4.889   4.037  16.764  0.9055 -2.1836 -0.1489
 4487TIP3    H234877   4.966   3.998  16.639  1.8127 -0.3648 -0.1838
 4488TIP3   OH234878   5.876   5.173  12.903 -0.0946 -0.2302 -0.0216
 4488TIP3    H134879   5.915   5.258  12.884 -1.7468  0.1709 -1.9713
 4488TIP3    H234880   5.846   5.141  12.818  0.3825 -2.7395  0.6635
 4489TIP3   OH234881   3.041   1.900   4.352 -0.3114 -0.5267  1.0618
 4489TIP3    H134882   3.125   1.931   4.386  0.3973 -0.8358 -0.3498
 4489TIP3    H234883   2.977   1.963   4.384  0.5914  0.2715  1.3301
 4490TIP3   OH234884   3.692   5.045   0.589 -0.5080  0.1380  0.6848
 4490TIP3    H134885   3.667   5.129   0.550  1.8563  1.0172  0.8458
 4490TIP3    H234886   3.776   5.024   0.548 -1.2449 -2.4322  0.3173
 4491TIP3   OH234887   5.327   0.568  16.059  0.0241 -0.3819  0.6707
 4491TIP3    H134888   5.256   0.630  16.077 -1.6326 -1.8943 -0.2212
 4491TIP3    H234889   5.370   0.555  16.144 -0.5744  0.8139  1.1713
 4492TIP3   OH234890   6.534   3.816   2.061  0.4088  0.5370  0.2211
 4492TIP3    H134891   6.447   3.851   2.081  0.5971  1.7877 -1.0170
 4492TIP3    H234892   6.525   3.722   2.076 -1.4268  0.5084 -0.7248
 4493TIP3   OH234893   1.971   3.070   5.482  0.4088 -0.1329  0.1527
 4493TIP3    H134894   1.926   3.120   5.413 -1.0905 -0.2795  0.9935
 4493TIP3    H234895   2.046   3.126   5.506 -0.1212  0.7975 -0.2855
 4494TIP3   OH234896   3.360   1.890  16.981  0.1668  0.1016  0.2828
 4494TIP3    H134897   3.306   1.882  17.059 -0.1011  3.2569  0.5752
 4494TIP3    H234898   3.450   1.879  17.012  0.0115  0.6200  0.9287
 4495TIP3   OH234899   3.690   2.717   4.126  0.3381  0.0103 -0.1429
 4495TIP3    H134900   3.769   2.764   4.152 -0.5774  1.4528  0.1339
 4495TIP3    H234901   3.648   2.693   4.208  0.2038 -0.2776 -0.2915
 4496TIP3   OH234902   3.780   6.229   3.896  0.5105 -0.3898  0.1488
 4496TIP3    H134903   3.761   6.292   3.827  1.7482 -0.9539 -0.7365
 4496TIP3    H234904   3.841   6.275   3.954  1.4868 -0.7824 -0.5475
 4497TIP3   OH234905   0.456   3.148   0.834  0.2598 -0.3245  0.1554
 4497TIP3    H134906   0.412   3.213   0.780  1.1989  0.9005  0.8256
 4497TIP3    H234907   0.385   3.093   0.867 -0.3098 -1.4023 -2.6204
 4498TIP3   OH234908   5.244   0.368   2.285 -0.1365  0.4783 -0.3526
 4498TIP3    H134909   5.214   0.426   2.214 -0.3798 -0.6246 -1.1839
 4498TIP3    H234910   5.325   0.329   2.251 -1.8332 -2.4081 -1.3896
 4499TIP3   OH234911   6.312   3.772   6.485 -0.3672 -0.1243 -0.0241
 4499TIP3    H134912   6.361   3.826   6.423 -0.9910  1.5746  0.8895
 4499TIP3    H234913   6.295   3.830   6.559 -3.0514 -0.8728  0.0485
 4500TIP3   OH234914   3.453   4.103   2.688  0.4121  0.7352  0.0675
 4500TIP3    H134915   3.519   4.054   2.637  0.1218  0.7077 -0.2834
 4500TIP3    H234916   3.439   4.183   2.638 -1.1222 -0.0348 -0.8215
 4501TIP3   OH234917   5.727   0.583  14.542 -0.2872  0.2213 -0.5803
 4501TIP3    H134918   5.770   0.511  14.495  1.3565  0.8219 -0.0646
 4501TIP3    H234919   5.791   0.610  14.607 -0.6231  2.5354 -1.1449
 4502TIP3   OH234920   5.120   1.669  15.034 -0.3354 -0.1211 -0.1575
 4502TIP3    H134921   5.104   1.628  15.119 -2.7899  0.5579 -0.2108
 4502TIP3    H234922   5.129   1.595  14.973  0.0911 -0.5987  0.4805
 4503TIP3   OH234923   3.366   0.357   4.419 -0.6837  0.2697  0.3149
 4503TIP3    H134924   3.458   0.375   4.401 -0.4465 -0.5374  0.7217
 4503TIP3    H234925   3.362   0.264   4.439 -1.0606  0.8804  3.5671
 4504TIP3   OH234926   2.035   0.943   0.874  0.3007 -0.3101 -0.5965
 4504TIP3    H134927   2.054   0.988   0.956  2.5507 -1.7928 -0.2042
 4504TIP3    H234928   1.993   1.010   0.819  0.3098  1.2082  1.1424
 4505TIP3   OH234929   0.891   2.841  12.621  0.4678 -0.4986  0.3068
 4505TIP3    H134930   0.830   2.773  12.652  1.7731 -1.7719  0.1763
 4505TIP3    H234931   0.843   2.923  12.634 -1.3338 -1.4542  0.0720
 4506TIP3   OH234932   5.546   4.137   1.094  0.0809 -0.3405 -0.2421
 4506TIP3    H134933   5.543   4.043   1.107  1.7674 -0.4118 -0.2085
 4506TIP3    H234934   5.584   4.172   1.175 -0.4976  0.3688 -0.2616
 4507TIP3   OH234935   1.133   1.947  14.983 -0.0175 -0.1373  0.4397
 4507TIP3    H134936   1.085   1.914  15.059 -1.5972  1.6857  0.2990
 4507TIP3    H234937   1.083   1.914  14.908  0.2466 -0.0911  0.2429
 4508TIP3   OH234938   5.219   3.982  15.380 -0.2739  0.0447  0.2267
 4508TIP3    H134939   5.307   4.019  15.392  0.7248 -1.0919 -2.7325
 4508TIP3    H234940   5.164   4.058  15.361  1.2013  0.4775 -3.0088
 4509TIP3   OH234941   0.494   2.325  14.412 -0.4203  0.0201 -0.2169
 4509TIP3    H134942   0.427   2.261  14.387 -1.1281  0.3104  0.8189
 4509TIP3    H234943   0.529   2.292  14.495 -1.0221  1.1019  0.5048
 4510TIP3   OH234944   0.554   6.589  12.739 -0.1276 -0.1901  0.4622
 4510TIP3    H134945   0.635   6.639  12.750 -0.1061 -0.0964 -0.1044
 4510TIP3    H234946   0.506   6.603  12.821  0.1440  0.2715  0.5460
 4511TIP3   OH234947   0.284   3.856  10.365  0.1625  0.3975 -0.2488
 4511TIP3    H134948   0.211   3.862  10.427 -0.1458  1.6852 -0.7141
 4511TIP3    H234949   0.313   3.765  10.372 -1.3580 -0.0974  0.0917
 4512TIP3   OH234950   0.265   5.512  16.385  0.1242  0.2130 -0.1511
 4512TIP3    H134951   0.287   5.514  16.292  0.2772 -0.7294 -0.1393
 4512TIP3    H234952   0.338   5.558  16.427 -0.4502  1.5703 -0.5781
 4513TIP3   OH234953   2.148   3.549  12.109  0.1695 -0.0131 -0.1348
 4513TIP3    H134954   2.114   3.594  12.031 -1.2580  0.1475  0.5639
 4513TIP3    H234955   2.130   3.609  12.181  1.9571  0.0723  0.2827
 4514TIP3   OH234956   6.604   2.000  17.249 -0.0597  0.3260 -0.2963
 4514TIP3    H134957   6.602   1.945  17.327  0.2562  1.2133  0.3481
 4514TIP3    H234958   6.623   1.939  17.177 -1.0241 -0.6014  0.2119
 4515TIP3   OH234959   6.219   2.781  16.923  0.1791 -0.2277 -0.8074
 4515TIP3    H134960   6.165   2.860  16.914 -0.8375 -0.6434  1.1216
 4515TIP3    H234961   6.308   2.813  16.913 -0.0776  1.5369  1.5096
 4516TIP3   OH234962   5.153   6.755  14.440  0.1494  0.6998 -0.2221
 4516TIP3    H134963   5.217   6.684  14.434  1.6180  2.0404 -0.8949
 4516TIP3    H234964   5.132   6.761  14.533  0.6123 -0.0701 -0.0606
 4517TIP3   OH234965   4.876   0.653   2.861 -0.7407  0.0844 -0.2560
 4517TIP3    H134966   4.891   0.689   2.773 -0.4414  0.1655 -0.1722
 4517TIP3    H234967   4.958   0.611   2.884 -1.2066 -0.9889 -0.5013
 4518TIP3   OH234968   4.804   0.015  17.093 -0.1772 -0.5779 -0.6487
 4518TIP3    H134969   4.897  -0.009  17.098  0.2047  0.8152 -0.4311
 4518TIP3    H234970   4.757  -0.065  17.113  1.0112 -0.9830  0.6715
 4519TIP3   OH234971   1.047   2.808  15.374 -1.0487 -0.3155 -0.2141
 4519TIP3    H134972   1.032   2.723  15.415 -0.8026  0.1472  0.8545
 4519TIP3    H234973   1.142   2.814  15.364 -1.1148 -0.5009 -1.0464
 4520TIP3   OH234974   3.503   1.987   6.684  0.2870  0.5660 -0.3715
 4520TIP3    H134975   3.444   2.017   6.615  0.9269 -0.8833 -1.6144
 4520TIP3    H234976   3.537   2.068   6.723 -2.3089  1.4319  0.2674
 4521TIP3   OH234977   0.683   6.414  14.353  0.3414 -0.1229  0.2200
 4521TIP3    H134978   0.633   6.429  14.273  0.8914  0.4703 -0.0260
 4521TIP3    H234979   0.622   6.435  14.424  0.0431 -0.0389 -0.0578
 4522TIP3   OH234980   3.717   5.135   5.839  0.4604 -0.3654 -0.1246
 4522TIP3    H134981   3.749   5.080   5.911  0.9106  0.3076  0.1935
 4522TIP3    H234982   3.697   5.219   5.879 -0.5837 -0.3913 -0.5465
 4523TIP3   OH234983   3.319   6.129   1.917  0.1777  0.0039 -0.2597
 4523TIP3    H134984   3.305   6.059   1.853 -0.4719 -0.2616  0.1580
 4523TIP3    H234985   3.234   6.139   1.960  0.6192  0.1493  0.5923
 4524TIP3   OH234986   6.448   0.082  15.999  1.0033  0.2274  0.2146
 4524TIP3    H134987   6.413   0.032  16.073  2.5500 -0.9933  0.1635
 4524TIP3    H234988   6.502   0.019  15.951 -0.5141  0.7766 -2.3936
 4525TIP3   OH234989   2.276   3.855   3.320 -0.9209  0.2856 -0.2976
 4525TIP3    H134990   2.367   3.880   3.333 -1.0204  0.9629 -0.8023
 4525TIP3    H234991   2.273   3.761   3.337 -0.3680  0.4675  0.8931
 4526TIP3   OH234992   2.555   6.394   4.028  0.3810 -0.0714  0.3847
 4526TIP3    H134993   2.536   6.488   4.035  3.2724  0.6000  0.6611
 4526TIP3    H234994   2.498   6.353   4.093 -1.8407  1.2895 -0.5923
 4527TIP3   OH234995   6.204   5.892   0.639 -0.7564 -0.0611 -0.3494
 4527TIP3    H134996   6.157   5.941   0.573  0.9782  2.2514 -0.0063
 4527TIP3    H234997   6.213   5.952   0.713 -0.2855 -1.6169  0.9371
 4528TIP3   OH234998   5.211   4.748  12.484 -0.2491  0.1968 -0.2357
 4528TIP3    H134999   5.163   4.826  12.454 -0.2051  0.2026 -0.2909
 4528TIP3    H235000   5.287   4.743  12.426 -1.3435 -1.0943 -1.6576
 4529TIP3   OH235001   0.895   0.707  15.639 -0.6010  0.3671  0.4240
 4529TIP3    H135002   0.939   0.663  15.711 -1.5627 -1.4781 -0.0773
 4529TIP3    H235003   0.802   0.699  15.658 -0.8484  0.5468 -0.6236
 4530TIP3   OH235004   2.704   0.588  13.028 -0.6815 -0.4665  0.3680
 4530TIP3    H135005   2.695   0.506  12.981 -1.1418  0.6704 -1.6378
 4530TIP3    H235006   2.614   0.618  13.043 -0.5489  0.8864 -1.2450
 4531TIP3   OH235007   1.752   5.029  17.273  0.4981 -0.0341  0.2162
 4531TIP3    H135008   1.830   5.075  17.306  0.0777  0.3051  0.7551
 4531TIP3    H235009   1.696   5.099  17.240  0.3857 -0.2708 -0.0932
 4532TIP3   OH235010   6.740   1.916   2.992 -0.1361 -0.3084  0.0580
 4532TIP3    H135011   6.799   1.978   2.951  0.9075 -1.4071 -0.1680
 4532TIP3    H235012   6.664   1.968   3.018  0.9209  1.1350  0.3466
 4533TIP3   OH235013   6.188   6.195  11.495 -0.0630  0.1401 -0.7187
 4533TIP3    H135014   6.215   6.177  11.585  1.8444  3.0886 -0.5577
 4533TIP3    H235015   6.093   6.184  11.495 -0.6394  3.2018  2.6355
 4534TIP3   OH235016   3.663   1.266   4.287  0.1095  0.0886 -0.1673
 4534TIP3    H135017   3.597   1.334   4.303  2.0549  1.4897  2.8493
 4534TIP3    H235018   3.724   1.306   4.226 -1.1553 -0.7938 -2.0822
 4535TIP3   OH235019   3.880   2.818   3.363  0.1863  0.2061 -0.2363
 4535TIP3    H135020   3.899   2.785   3.276 -2.6211 -0.9679 -0.4896
 4535TIP3    H235021   3.877   2.913   3.353  1.3441  0.1744 -1.0593
 4536TIP3   OH235022   6.119   4.416   1.679 -0.1170 -0.1389 -0.8365
 4536TIP3    H135023   6.046   4.361   1.652 -0.2593 -0.1226 -0.4873
 4536TIP3    H235024   6.189   4.397   1.616 -0.4318 -0.1313 -1.1882
 4537TIP3   OH235025   6.216   6.175  13.761 -0.3889  0.1592  0.1081
 4537TIP3    H135026   6.178   6.242  13.705  0.3334 -0.3315 -0.9969
 4537TIP3    H235027   6.310   6.179  13.744 -0.2819 -0.8165  0.3734
 4538TIP3   OH235028   5.444   1.899  16.795 -0.5790  0.4063 -0.0418
 4538TIP3    H135029   5.514   1.887  16.860 -0.2912 -2.2122 -0.7274
 4538TIP3    H235030   5.369   1.853  16.832 -1.7046  2.3334  0.2131
 4539TIP3   OH235031   4.231   0.436   1.163  0.6871 -0.1467 -0.4250
 4539TIP3    H135032   4.198   0.361   1.213 -0.4014 -0.4388 -1.5530
 4539TIP3    H235033   4.205   0.512   1.215  0.1702 -0.4714 -0.1973
 4540TIP3   OH235034   6.374   4.250   5.547  0.0294  0.3676  0.4555
 4540TIP3    H135035   6.410   4.234   5.460 -0.1182 -2.3791  0.8070
 4540TIP3    H235036   6.445   4.292   5.595  0.3609  1.2317 -0.7444
 4541TIP3   OH235037   5.116   3.419   2.225 -0.8125 -0.0982  0.0867
 4541TIP3    H135038   5.163   3.376   2.296 -1.1924 -0.4219  0.1451
 4541TIP3    H235039   5.024   3.408   2.247 -0.9162  0.7839  0.1175
 4542TIP3   OH235040   3.258   1.669  11.533  0.2723 -0.2550  0.4116
 4542TIP3    H135041   3.173   1.630  11.511  0.0458  0.3484  0.1978
 4542TIP3    H235042   3.237   1.737  11.598  0.6268 -0.2868  0.5624
 4543TIP3   OH235043   1.457   6.478  12.277  0.0299  0.6232  0.3875
 4543TIP3    H135044   1.451   6.530  12.358 -0.2143 -0.9865  1.4409
 4543TIP3    H235045   1.501   6.536  12.215 -0.3213  2.1299  1.4691
 4544TIP3   OH235046   1.270   1.319   0.753 -0.6324  0.5975  0.1231
 4544TIP3    H135047   1.323   1.303   0.675 -0.0781 -0.3112  0.6665
 4544TIP3    H235048   1.318   1.385   0.803 -0.7850  0.8884 -0.1167
 4545TIP3   OH235049   1.505   0.825  14.429 -0.5908 -0.0793  0.2517
 4545TIP3    H135050   1.472   0.903  14.386  0.0589 -0.4322 -0.9182
 4545TIP3    H235051   1.600   0.829  14.417 -0.5801 -1.2165 -0.1362
 4546TIP3   OH235052   0.389   3.453  16.891 -0.1768  0.6418  0.0348
 4546TIP3    H135053   0.424   3.538  16.864  0.9890  0.7329  1.6745
 4546TIP3    H235054   0.381   3.403  16.810  2.3900  1.1465 -0.6066
 4547TIP3   OH235055   3.106   2.930  15.810 -0.6362  0.3772 -0.3300
 4547TIP3    H135056   3.177   2.970  15.758  0.5296 -1.0924  0.0624
 4547TIP3    H235057   3.037   2.997  15.811  0.4815  1.6134 -1.2640
 4548TIP3   OH235058   0.134   5.520   3.216  0.0017 -0.4593 -0.3022
 4548TIP3    H135059   0.053   5.508   3.166 -1.1954  3.7351  0.1566
 4548TIP3    H235060   0.104   5.520   3.308  1.1453 -2.0919  0.1025
 4549TIP3   OH235061   4.965   5.379   3.967 -0.1206  0.2440 -0.1396
 4549TIP3    H135062   5.040   5.355   4.020 -0.2157  1.9030  0.8359
 4549TIP3    H235063   4.919   5.297   3.950  1.0165 -0.5721  0.6473
 4550TIP3   OH235064   4.086   5.848   0.146  0.1663  0.6341 -0.2020
 4550TIP3    H135065   4.146   5.830   0.074  0.0650 -0.9406  0.0688
 4550TIP3    H235066   4.010   5.793   0.128  0.3972 -0.2609  1.4213
 4551TIP3   OH235067   3.018   6.388  12.526 -0.5031  0.5098 -0.1025
 4551TIP3    H135068   2.931   6.351  12.511 -0.7441  0.9468  0.1943
 4551TIP3    H235069   3.047   6.349  12.608  1.4771 -3.1067 -2.2807
 4552TIP3   OH235070   6.385   3.299  16.676  0.5783 -0.3862 -0.2108
 4552TIP3    H135071   6.297   3.269  16.656  0.9535 -0.0486 -2.6344
 4552TIP3    H235072   6.425   3.316  16.591  2.3319  1.3827  0.8697
 4553TIP3   OH235073   0.669   4.252   1.172  0.0867  0.4747  0.5206
 4553TIP3    H135074   0.603   4.275   1.237 -1.0578 -0.4277 -0.2764
 4553TIP3    H235075   0.663   4.157   1.165  1.6480  0.3377  0.5835
 4554TIP3   OH235076   6.567   1.280   4.500 -0.5556  0.0427 -0.3241
 4554TIP3    H135077   6.539   1.189   4.494  1.3024 -0.8181  2.0878
 4554TIP3    H235078   6.663   1.276   4.493 -0.2451  1.4750  1.9477
 4555TIP3   OH235079   0.012   0.156  12.513  0.1060 -0.1821 -0.1819
 4555TIP3    H135080  -0.041   0.230  12.483  0.8400  1.4646  2.3424
 4555TIP3    H235081   0.100   0.175  12.482  0.3201  0.0985  0.5745
 4556TIP3   OH235082   0.693   3.358  16.564  0.1734 -0.4090 -0.0015
 4556TIP3    H135083   0.767   3.302  16.543  0.4721  0.4727 -1.5166
 4556TIP3    H235084   0.733   3.439  16.596 -0.1096  0.0863 -0.8693
 4557TIP3   OH235085   5.917   4.596   1.426 -0.0520  0.4804 -0.2416
 4557TIP3    H135086   5.896   4.620   1.336  0.9338  0.6019 -0.4426
 4557TIP3    H235087   5.965   4.671   1.461  0.5827 -0.0324  0.0100
 4558TIP3   OH235088   1.362   3.640   2.205 -0.6670  0.0429 -0.1743
 4558TIP3    H135089   1.394   3.605   2.122 -1.1668 -0.8967  0.0185
 4558TIP3    H235090   1.441   3.671   2.250 -0.3985  0.5978 -1.0099
 4559TIP3   OH235091   2.595   2.248   3.289  0.1609 -0.1779 -0.0397
 4559TIP3    H135092   2.553   2.262   3.374  0.3433  1.6728 -0.1966
 4559TIP3    H235093   2.525   2.214   3.233 -0.6871  1.1092  0.1882
 4560TIP3   OH235094   1.271   3.817  13.632  0.5904  0.2601  0.4794
 4560TIP3    H135095   1.290   3.738  13.580 -0.5745 -1.7205  2.8326
 4560TIP3    H235096   1.228   3.876  13.571  1.3769 -0.9598 -1.3567
 4561TIP3   OH235097   4.290   2.042  12.048  0.5750  0.0730 -0.1783
 4561TIP3    H135098   4.314   2.125  12.091 -1.4143  0.9295 -0.6239
 4561TIP3    H235099   4.258   1.987  12.119  2.0699 -0.4173  0.1464
 4562TIP3   OH235100   6.754   0.649   6.722 -0.1269  0.1956 -0.5256
 4562TIP3    H135101   6.843   0.630   6.692  0.1994 -0.2608  0.7023
 4562TIP3    H235102   6.701   0.579   6.683 -0.0007  0.5757 -1.4202
 4563TIP3   OH235103   1.163   6.112  12.009 -0.3777  0.0634  0.7487
 4563TIP3    H135104   1.158   6.089  11.917 -1.1227  0.0655  0.7837
 4563TIP3    H235105   1.184   6.206  12.010 -0.2169  0.0300  0.5912
 4564TIP3   OH235106   5.941   2.156   2.289  0.4185  0.1033 -0.1915
 4564TIP3    H135107   5.962   2.209   2.365 -0.0566 -0.2755  0.2114
 4564TIP3    H235108   5.903   2.217   2.226  1.9890  0.6611 -0.6414
 4565TIP3   OH235109   0.238   6.046  16.269 -0.1859 -0.1396  0.4434
 4565TIP3    H135110   0.227   6.042  16.364 -0.8380 -1.1190  0.3443
 4565TIP3    H235111   0.330   6.068  16.255 -0.2112  0.5259  1.3001
 4566TIP3   OH235112   0.296   2.282  14.720  0.3942  0.0315 -0.4040
 4566TIP3    H135113   0.294   2.376  14.700 -1.6980 -0.3148 -2.1515
 4566TIP3    H235114   0.277   2.239  14.637 -0.7210 -1.8606  0.7423
 4567TIP3   OH235115   1.246   5.202  10.898  0.0139 -0.0591  0.0080
 4567TIP3    H135116   1.277   5.118  10.931 -1.0345 -0.3657  0.2516
 4567TIP3    H235117   1.159   5.184  10.864  0.0256  0.8052 -0.5178
 4568TIP3   OH235118   0.402   1.266   6.001 -0.4808  0.4184  0.5184
 4568TIP3    H135119   0.454   1.337   6.040  0.9211 -0.8762  1.1380
 4568TIP3    H235120   0.376   1.212   6.076 -1.5709  0.2840  0.0648
 4569TIP3   OH235121   6.777   4.874  11.645 -0.4246 -0.1131 -0.5471
 4569TIP3    H135122   6.856   4.920  11.615  0.1176 -0.2454  0.6309
 4569TIP3    H235123   6.771   4.798  11.588  0.5656 -0.3402 -0.3613
 4570TIP3   OH235124   0.361   1.408  15.779  0.6328 -0.0419 -0.2285
 4570TIP3    H135125   0.355   1.345  15.851  2.4245  0.2994  0.2886
 4570TIP3    H235126   0.343   1.357  15.700 -1.7812 -0.3397  0.4340
 4571TIP3   OH235127   2.222   4.391   0.323  0.3152 -0.5035  0.4481
 4571TIP3    H135128   2.221   4.479   0.361 -1.1852 -0.3938  0.2019
 4571TIP3    H235129   2.250   4.334   0.395  0.0741  0.0230  0.9641
 4572TIP3   OH235130   6.705   6.355  16.194  0.0013  0.1760  0.2246
 4572TIP3    H135131   6.681   6.401  16.113 -1.6722  0.0733  0.6171
 4572TIP3    H235132   6.800   6.356  16.195  0.0840 -0.1100 -1.9303
 4573TIP3   OH235133   3.848   4.041  12.034  0.4659  0.1743  0.1580
 4573TIP3    H135134   3.816   4.011  11.949  0.6302 -0.2878  0.2583
 4573TIP3    H235135   3.909   4.112  12.012 -2.2184  2.5976  0.0522
 4574TIP3   OH235136   6.181   6.054  12.733  0.5239  0.2659  0.6738
 4574TIP3    H135137   6.268   6.054  12.771  0.5046  1.8287  0.7689
 4574TIP3    H235138   6.122   6.072  12.807  0.4509  2.8277  0.0865
 4575TIP3   OH235139   4.937   5.970   0.548  0.4556  0.6866  0.1072
 4575TIP3    H135140   4.912   5.964   0.640  1.9419 -0.4562  0.4644
 4575TIP3    H235141   4.860   6.008   0.505 -0.8733 -0.2511  1.5557
 4576TIP3   OH235142   6.379   4.945   5.644 -0.5716  0.2116  0.0456
 4576TIP3    H135143   6.430   5.001   5.702 -0.8409  0.3127  0.1868
 4576TIP3    H235144   6.309   5.002   5.611  0.2022  0.4666 -1.2267
 4577TIP3   OH235145   4.886   0.053  16.260 -0.1590 -0.4221 -0.3955
 4577TIP3    H135146   4.885  -0.015  16.192  2.5368 -0.0715 -0.9076
 4577TIP3    H235147   4.958   0.111  16.234  0.1052  0.4456  2.0821
 4578TIP3   OH235148   4.984   4.374   3.316 -0.3015 -0.5793  0.3197
 4578TIP3    H135149   4.898   4.336   3.301 -1.6470  2.0970  0.6280
 4578TIP3    H235150   5.040   4.335   3.249 -2.1602 -1.1998 -0.9446
 4579TIP3   OH235151   2.657   2.366  14.479  0.1122 -0.8234 -0.0156
 4579TIP3    H135152   2.694   2.292  14.431  1.0592 -0.4697  0.1451
 4579TIP3    H235153   2.724   2.435  14.472  0.9243 -1.1739  2.9166
 4580TIP3   OH235154   5.473   3.088   2.456 -0.1329 -0.5158 -0.2733
 4580TIP3    H135155   5.563   3.057   2.456 -0.0249 -0.3077  1.4821
 4580TIP3    H235156   5.434   3.048   2.534 -1.1304  0.5170 -0.2140
 4581TIP3   OH235157   3.802   0.382   6.891 -0.0436 -0.2317 -0.0461
 4581TIP3    H135158   3.750   0.461   6.904 -2.1213 -1.7467  1.3109
 4581TIP3    H235159   3.879   0.395   6.946 -0.7722  0.5063  0.8274
 4582TIP3   OH235160   5.676   1.872   5.954 -0.0253  0.6988  0.4371
 4582TIP3    H135161   5.629   1.946   5.916  0.3401 -0.3534 -2.2823
 4582TIP3    H235162   5.762   1.908   5.977  1.0472  0.7588 -3.0912
 4583TIP3   OH235163   6.656   2.325  13.438  0.0032  0.3828 -0.6457
 4583TIP3    H135164   6.585   2.324  13.373 -0.3295 -0.4225 -0.2849
 4583TIP3    H235165   6.735   2.342  13.387 -0.2182 -0.4947 -1.3094
 4584TIP3   OH235166   1.184   3.992  15.551  0.3041 -0.1699 -0.7938
 4584TIP3    H135167   1.246   3.978  15.624 -1.4022  2.4925  1.3535
 4584TIP3    H235168   1.177   4.087  15.543 -0.5604 -0.3859 -3.6924
 4585TIP3   OH235169   6.345   6.192  11.770 -0.4205 -0.1011 -0.0632
 4585TIP3    H135170   6.372   6.284  11.772 -3.5717  0.9387  1.2824
 4585TIP3    H235171   6.426   6.143  11.774  1.3754  2.6155 -0.5780
 4586TIP3   OH235172   6.236   1.372   1.700  0.0833  0.0362 -0.2607
 4586TIP3    H135173   6.282   1.419   1.769  0.8085  0.0422 -0.7310
 4586TIP3    H235174   6.217   1.286   1.737 -2.4191  1.0645  1.0727
 4587TIP3   OH235175   1.553   6.420  15.630 -0.2450 -0.4898 -0.3095
 4587TIP3    H135176   1.614   6.493  15.622  0.0605 -0.5524  1.2854
 4587TIP3    H235177   1.547   6.402  15.724 -2.5939 -0.5914 -0.4123
 4588TIP3   OH235178   3.369   2.640  16.162 -0.1346 -0.2948 -0.4243
 4588TIP3    H135179   3.376   2.712  16.225  0.2727  0.2321 -1.0605
 4588TIP3    H235180   3.292   2.662  16.109 -0.8796 -1.0812  0.3020
 4589TIP3   OH235181   5.566   0.267   5.134  1.0460 -0.0288 -0.1094
 4589TIP3    H135182   5.506   0.271   5.208  0.7001 -2.8118 -0.1149
 4589TIP3    H235183   5.539   0.338   5.076 -1.0192 -0.0312  0.7875
 4590TIP3   OH235184   0.547   5.590   3.061  0.5674 -0.4679 -0.3312
 4590TIP3    H135185   0.465   5.594   3.011  0.0807  0.3762  0.5043
 4590TIP3    H235186   0.548   5.503   3.099 -2.3561  0.9079  3.5162
 4591TIP3   OH235187   1.181   2.734  11.749 -0.2869 -0.5761  0.7510
 4591TIP3    H135188   1.146   2.714  11.662 -1.2429  1.7897  0.4888
 4591TIP3    H235189   1.153   2.661  11.804  0.1883 -2.0411 -0.8697
 4592TIP3   OH235190   3.291   6.526  12.738  0.1833 -0.7516  0.7465
 4592TIP3    H135191   3.309   6.535  12.832 -0.6459 -2.0027  1.0488
 4592TIP3    H235192   3.226   6.456  12.732 -0.5917  0.0397 -0.6981
 4593TIP3   OH235193   0.819   0.132  11.504  0.4926 -0.2183  0.0948
 4593TIP3    H135194   0.849   0.221  11.517 -0.6848  0.4070 -1.1843
 4593TIP3    H235195   0.740   0.125  11.558  1.2043 -0.8849  1.0910
 4594TIP3   OH235196   4.154   1.217   2.996  0.3370 -0.1557  0.2359
 4594TIP3    H135197   4.094   1.151   3.032 -0.6040  0.8975  0.6411
 4594TIP3    H235198   4.227   1.166   2.960 -1.1224 -1.5272 -0.9163
 4595TIP3   OH235199   3.316   4.988  15.664  0.0638  0.5853  0.5301
 4595TIP3    H135200   3.359   4.953  15.586  1.4439  2.1223  0.5406
 4595TIP3    H235201   3.292   5.077  15.640 -2.8414 -0.0375  0.6900
 4596TIP3   OH235202   4.548   0.511   1.465 -0.7781  0.1003  0.2254
 4596TIP3    H135203   4.581   0.423   1.448  0.3250  0.9982 -2.9564
 4596TIP3    H235204   4.620   0.557   1.507 -0.3049  0.2582 -0.7464
 4597TIP3   OH235205   4.532   0.992  16.722 -0.1082 -0.0494  0.0941
 4597TIP3    H135206   4.557   1.024  16.636  0.0704  0.8942  0.4779
 4597TIP3    H235207   4.496   1.069  16.766 -0.5691 -0.6132  0.7197
 4598TIP3   OH235208   4.595   2.809   0.984 -0.2684 -0.1783 -0.7211
 4598TIP3    H135209   4.664   2.782   1.046 -0.2569  1.3321 -0.0257
 4598TIP3    H235210   4.533   2.736   0.984 -0.2346 -0.2642  1.0622
 4599TIP3   OH235211   2.418   6.562  16.314  0.6040 -0.0958 -0.1926
 4599TIP3    H135212   2.488   6.557  16.248  0.4830  0.8274 -0.4125
 4599TIP3    H235213   2.441   6.640  16.366 -0.4967  0.4903 -0.5590
 4600TIP3   OH235214   2.314   0.920   3.468  0.1715  0.3753  0.0428
 4600TIP3    H135215   2.332   1.010   3.495 -0.4460  0.1329  1.3529
 4600TIP3    H235216   2.219   0.918   3.455  0.3720  0.3187 -1.6311
 4601TIP3   OH235217   6.059   0.539  15.159  0.7082 -0.2962 -0.3609
 4601TIP3    H135218   5.966   0.516  15.164  0.9017 -1.3085 -1.1144
 4601TIP3    H235219   6.066   0.621  15.208 -0.4466 -0.6006  0.3505
 4602TIP3   OH235220   1.405   4.613  11.059  0.7793  0.8967  0.3459
 4602TIP3    H135221   1.411   4.534  11.006 -1.2058  1.5245 -0.9436
 4602TIP3    H235222   1.480   4.609  11.118 -0.4302 -3.0922  1.9203
 4603TIP3   OH235223   3.290   6.671  11.399 -0.1351  0.0261 -0.2003
 4603TIP3    H135224   3.363   6.616  11.372 -0.7035 -0.1215 -1.4839
 4603TIP3    H235225   3.319   6.709  11.483  1.9303  0.9161 -1.2268
 4604TIP3   OH235226   5.737   5.567  12.180 -0.1323  0.0484 -0.6635
 4604TIP3    H135227   5.757   5.626  12.107  1.5096 -0.2453 -0.4740
 4604TIP3    H235228   5.690   5.623  12.243 -0.0003  0.7519 -1.1749
 4605TIP3   OH235229   5.929   4.474  11.990 -0.5599  0.2599  0.2211
 4605TIP3    H135230   5.865   4.413  12.025 -2.1061  0.5569 -1.9036
 4605TIP3    H235231   5.902   4.489  11.899  2.0079  1.1011 -0.5081
 4606TIP3   OH235232   4.368   5.970   0.767  0.0109 -0.0647  0.0895
 4606TIP3    H135233   4.288   6.019   0.785 -0.6869 -0.8297 -0.8215
 4606TIP3    H235234   4.360   5.891   0.822 -0.1779 -0.4413 -0.4648
 4607TIP3   OH235235   6.769   0.913  13.285  0.2778 -1.1650 -0.5737
 4607TIP3    H135236   6.703   0.843  13.286 -1.7744  0.6446  1.7086
 4607TIP3    H235237   6.835   0.883  13.347  0.0081 -1.5938 -0.4843
 4608TIP3   OH235238   0.975   6.527  15.549 -0.0557  0.1388 -0.2500
 4608TIP3    H135239   0.888   6.495  15.525 -0.6663  0.2803  1.5643
 4608TIP3    H235240   0.965   6.622  15.554 -0.3166  0.0563  1.6213
 4609TIP3   OH235241   0.344   5.013   3.682 -0.6867 -0.1743  0.6534
 4609TIP3    H135242   0.265   5.043   3.638  0.0781  0.5825 -0.2353
 4609TIP3    H235243   0.401   4.983   3.612 -0.5503 -1.6627  1.3599
 4610TIP3   OH235244   3.813   4.499   5.380  0.0335  0.0097 -0.0264
 4610TIP3    H135245   3.771   4.416   5.406  0.6149  0.4767  2.7297
 4610TIP3    H235246   3.889   4.473   5.328  0.7612 -1.2942  1.6112
 4611TIP3   OH235247   1.083   0.906   3.332 -0.1027  0.1198 -0.6823
 4611TIP3    H135248   1.070   0.895   3.426  1.9747 -0.5208 -0.4059
 4611TIP3    H235249   1.054   0.823   3.294 -1.0579  0.4247 -0.6210
 4612TIP3   OH235250   6.192   5.508  16.449  0.6259 -0.1912 -0.2051
 4612TIP3    H135251   6.096   5.510  16.460  0.3315 -1.2970 -2.1178
 4612TIP3    H235252   6.219   5.424  16.487  0.7124 -0.2796 -0.4623
 4613TIP3   OH235253   1.502   3.179  14.166  0.2566  0.0637 -0.3845
 4613TIP3    H135254   1.528   3.088  14.153  0.3873  0.2834 -1.8070
 4613TIP3    H235255   1.481   3.185  14.260 -1.3094 -1.8408 -0.5479
 4614TIP3   OH235256   1.350   5.086   1.761 -0.4547 -0.0592  0.0303
 4614TIP3    H135257   1.324   5.127   1.844 -1.6724 -2.4176  0.8946
 4614TIP3    H235258   1.291   5.124   1.697  0.8595  2.2124  0.0471
 4615TIP3   OH235259   2.318   1.638   2.431  0.2282 -0.7713  0.1213
 4615TIP3    H135260   2.244   1.615   2.374  0.5069 -0.1299 -0.5067
 4615TIP3    H235261   2.348   1.554   2.466 -0.4311 -1.0961 -0.0763
 4616TIP3   OH235262   3.823   0.678  15.451  0.8315 -0.3027 -0.0940
 4616TIP3    H135263   3.902   0.633  15.422  1.0861 -0.0969  0.2708
 4616TIP3    H235264   3.846   0.713  15.537  1.1358  1.7774 -0.9712
 4617TIP3   OH235265   3.733   6.643  16.471  0.7349  0.0802  0.1282
 4617TIP3    H135266   3.734   6.737  16.490 -1.4001 -0.0319  1.1564
 4617TIP3    H235267   3.703   6.603  16.553 -0.9840 -1.2036 -1.0529
 4618TIP3   OH235268   4.412   6.054  14.105 -0.4892 -0.0987  0.4340
 4618TIP3    H135269   4.332   6.080  14.060  0.2278 -1.3126 -1.6874
 4618TIP3    H235270   4.461   6.135  14.117 -1.2802  0.4200  0.2080
 4619TIP3   OH235271   3.951   3.733   2.876  0.8355  0.7063 -0.0031
 4619TIP3    H135272   3.966   3.640   2.857  0.8193  0.7843 -0.4091
 4619TIP3    H235273   3.859   3.748   2.857  0.6748  0.6577  0.7028
 4620TIP3   OH235274   2.248   4.881  13.398  0.0330  0.7662  0.2746
 4620TIP3    H135275   2.236   4.945  13.468 -0.9194 -0.5302  1.3698
 4620TIP3    H235276   2.160   4.848  13.381  0.5531 -0.6088  0.1205
 4621TIP3   OH235277   5.686   4.824   2.100 -0.3003 -0.0910 -0.0058
 4621TIP3    H135278   5.600   4.801   2.065 -0.6092  0.6625  0.2390
 4621TIP3    H235279   5.683   4.919   2.108 -0.3846 -0.2540  2.4342
 4622TIP3   OH235280   6.621   5.158  15.471  0.1038 -0.0990 -0.1848
 4622TIP3    H135281   6.698   5.192  15.426 -0.2906  0.7317 -0.2562
 4622TIP3    H235282   6.547   5.185  15.416 -0.2867 -0.2733  0.2418
 4623TIP3   OH235283   0.383   3.766  10.999  0.0781  0.0174 -0.1810
 4623TIP3    H135284   0.359   3.857  10.984  0.0417  0.0309 -0.0447
 4623TIP3    H235285   0.327   3.716  10.940 -0.2494  0.0522  0.0973
 4624TIP3   OH235286   3.303   4.966   3.162 -0.6048 -0.0554 -0.2561
 4624TIP3    H135287   3.278   4.875   3.144  0.5564 -0.8819  1.8481
 4624TIP3    H235288   3.221   5.013   3.171 -1.2277 -0.9351 -1.1961
 4625TIP3   OH235289   1.166   3.032   3.964  0.0386  0.1560 -0.3049
 4625TIP3    H135290   1.203   2.980   4.035 -0.8678 -1.4168 -0.9346
 4625TIP3    H235291   1.230   3.024   3.893 -0.3526 -0.5635 -0.5823
 4626TIP3   OH235292   1.085   2.512   3.816 -0.0844 -0.3058 -0.2849
 4626TIP3    H135293   1.079   2.429   3.768 -0.7912 -0.1830 -0.4165
 4626TIP3    H235294   1.161   2.501   3.872 -0.5914 -1.3418  0.2391
 4627TIP3   OH235295   0.083   4.718  13.170 -0.5010 -0.2396 -0.3669
 4627TIP3    H135296   0.042   4.632  13.171  0.1763 -0.5700 -0.6115
 4627TIP3    H235297   0.122   4.725  13.083  0.2378 -0.0652 -0.0244
 4628TIP3   OH235298   6.606   1.802   0.163  0.0616  0.0463  0.6773
 4628TIP3    H135299   6.538   1.735   0.153 -0.3333  0.5556 -0.1460
 4628TIP3    H235300   6.680   1.769   0.112 -0.6445  0.8989 -0.9446
 4629TIP3   OH235301   4.167   6.369   1.081 -0.5730 -0.1299  0.2517
 4629TIP3    H135302   4.077   6.402   1.073 -0.3970  0.7846  1.7546
 4629TIP3    H235303   4.193   6.390   1.171  0.5922 -1.8180  0.3690
 4630TIP3   OH235304   5.316   4.467   0.948  0.3291 -0.1330 -0.4433
 4630TIP3    H135305   5.300   4.480   0.854 -2.2376  1.3683  0.1211
 4630TIP3    H235306   5.258   4.395   0.972  1.4280 -0.9289 -0.0670
 4631TIP3   OH235307   5.067   0.615   6.410 -0.0398  0.4863 -0.1709
 4631TIP3    H135308   5.144   0.662   6.375  0.2687 -0.1090 -0.3115
 4631TIP3    H235309   5.104   0.554   6.473 -0.3891  0.1344 -0.3055
 4632TIP3   OH235310   3.157   3.792   3.824  0.1999 -0.0108  0.2822
 4632TIP3    H135311   3.208   3.725   3.870  2.8505  1.0789 -0.8789
 4632TIP3    H235312   3.071   3.790   3.867 -0.4221 -5.1017 -0.6730
 4633TIP3   OH235313   1.583   4.780   2.885  0.0448 -0.1372  0.3680
 4633TIP3    H135314   1.568   4.686   2.879 -2.3399 -0.0486  3.0840
 4633TIP3    H235315   1.639   4.790   2.962  0.0942  0.6856  0.2329
 4634TIP3   OH235316   0.129   0.625   1.577 -0.6346  0.0477 -0.8699
 4634TIP3    H135317   0.072   0.583   1.512 -0.3012  1.4339 -2.1015
 4634TIP3    H235318   0.069   0.674   1.634 -0.7421  1.1980 -1.9350
 4635TIP3   OH235319   5.513   6.734  13.786  0.2909  0.5853  0.4646
 4635TIP3    H135320   5.431   6.783  13.798  0.6757  2.1372 -2.3951
 4635TIP3    H235321   5.486   6.649  13.752 -0.1806  1.4549 -1.4659
 4636TIP3   OH235322   1.696   5.809  14.127  0.0468 -0.4820 -0.2840
 4636TIP3    H135323   1.635   5.820  14.055  1.6158  1.2063 -1.4564
 4636TIP3    H235324   1.762   5.747  14.094  1.9507  1.8790 -1.2767
 4637TIP3   OH235325   5.357   5.707   0.252  0.0562 -0.1798 -0.2257
 4637TIP3    H135326   5.378   5.642   0.185 -0.6217  1.1387 -1.7903
 4637TIP3    H235327   5.275   5.747   0.222 -1.3415 -0.8297  2.4028
 4638TIP3   OH235328   2.401   1.923   5.806  0.4578  0.2929  0.5205
 4638TIP3    H135329   2.461   1.860   5.846  1.7193  0.6583 -0.6859
 4638TIP3    H235330   2.452   2.004   5.802 -0.6131  0.9870  0.6901
 4639TIP3   OH235331   0.061   5.986   5.730 -0.1945 -0.0412  1.0598
 4639TIP3    H135332   0.102   5.947   5.653  0.0957 -2.0402  2.1407
 4639TIP3    H235333  -0.004   5.921   5.758 -0.7888  0.9543  2.0815
 4640TIP3   OH235334   5.612   1.635  13.702 -0.1930  0.2654  0.0235
 4640TIP3    H135335   5.582   1.592  13.622  0.2182 -0.7397  0.3907
 4640TIP3    H235336   5.707   1.621  13.703 -0.2766 -0.3348  1.0219
 4641TIP3   OH235337   5.366   4.155   4.658  0.0994 -0.0079 -0.3282
 4641TIP3    H135338   5.322   4.239   4.640 -0.7989 -0.4131 -0.0868
 4641TIP3    H235339   5.454   4.166   4.623 -0.5466  0.4172 -1.9143
 4642TIP3   OH235340   2.177   5.713  13.268  0.2310 -0.2408  0.2779
 4642TIP3    H135341   2.187   5.807  13.257 -2.6438  0.0064 -1.2215
 4642TIP3    H235342   2.223   5.675  13.192 -1.3339  0.2273 -0.9684
 4643TIP3   OH235343   1.668   3.080   5.301 -0.4354  0.0284  0.1204
 4643TIP3    H135344   1.692   2.998   5.344 -0.0635 -0.4958 -1.0202
 4643TIP3    H235345   1.607   3.122   5.360  0.7851 -0.1869  1.6071
 4644TIP3   OH235346   3.341   2.401  12.397 -0.5329 -0.4576  0.4943
 4644TIP3    H135347   3.401   2.474  12.385 -0.3062 -1.0585 -3.5121
 4644TIP3    H235348   3.389   2.340  12.453  0.1163  1.4814  2.1682
 4645TIP3   OH235349   1.303   4.050  12.654 -0.2651  0.1142  0.3555
 4645TIP3    H135350   1.271   3.966  12.687  0.8428  0.1121  1.5033
 4645TIP3    H235351   1.228   4.087  12.607 -0.3888 -2.1013 -1.4079
 4646TIP3   OH235352   2.107   3.251   6.152  0.2424 -0.2918 -0.4262
 4646TIP3    H135353   2.146   3.337   6.139 -2.2863  1.0060 -0.1039
 4646TIP3    H235354   2.096   3.244   6.246  0.6054 -1.0747 -0.4354
 4647TIP3   OH235355   4.878   2.346  16.489 -0.7255 -0.1710 -0.0329
 4647TIP3    H135356   4.800   2.316  16.443  0.5162 -0.3943 -2.1013
 4647TIP3    H235357   4.888   2.438  16.462 -0.2597 -0.1468  0.2070
 4648TIP3   OH235358   5.256   3.529   3.677  0.7239 -0.4708 -0.2105
 4648TIP3    H135359   5.228   3.543   3.586 -0.5844 -2.2273 -0.1358
 4648TIP3    H235360   5.231   3.609   3.722 -2.1666 -0.9700 -0.6694
 4649TIP3   OH235361   4.703   0.027  15.611 -0.4712  0.3308  0.4921
 4649TIP3    H135362   4.712   0.059  15.521 -3.4406  0.7956  0.2566
 4649TIP3    H235363   4.699  -0.069  15.602 -2.4316  0.4329 -0.1359
 4650TIP3   OH235364   6.530   0.796   0.172  0.7844  0.2493  0.2027
 4650TIP3    H135365   6.437   0.777   0.184  0.2814  3.2163  1.8046
 4650TIP3    H235366   6.546   0.778   0.079 -1.9061  1.5765 -0.6195
 4651TIP3   OH235367   1.152   5.023   4.229 -0.3053 -0.1542  0.2274
 4651TIP3    H135368   1.091   5.065   4.290 -0.7895 -0.2826 -0.1622
 4651TIP3    H235369   1.186   4.947   4.277  0.8003  0.8253  1.0456
 4652TIP3   OH235370   3.342   1.510   0.943  0.2084  0.4502  0.1828
 4652TIP3    H135371   3.327   1.483   0.853 -1.3402 -0.3592  0.6520
 4652TIP3    H235372   3.416   1.570   0.938 -1.1243  2.0494 -1.8970
 4653TIP3   OH235373   0.205   4.513   6.177 -0.0285 -0.4035  0.4366
 4653TIP3    H135374   0.157   4.531   6.258  0.3264  1.1454  0.3234
 4653TIP3    H235375   0.150   4.451   6.130 -0.8256 -0.3899  1.3177
 4654TIP3   OH235376   0.044   3.734  12.607  0.0459 -0.1014 -0.0539
 4654TIP3    H135377   0.062   3.775  12.523 -0.6017  1.5985  0.5907
 4654TIP3    H235378   0.031   3.642  12.587  2.6048 -0.2515 -1.4328
 4655TIP3   OH235379   3.307   0.595  13.142  0.4449  0.8304 -0.4323
 4655TIP3    H135380   3.359   0.659  13.190  3.0635 -1.0169 -0.6149
 4655TIP3    H235381   3.229   0.582  13.196  0.9409  2.4507  0.7357
 4656TIP3   OH235382   4.374   3.188   5.522  0.0513 -0.6001  0.4099
 4656TIP3    H135383   4.285   3.201   5.490  0.8277  2.0585 -0.9674
 4656TIP3    H235384   4.428   3.195   5.443  1.6524  0.5281  1.5614
 4657TIP3   OH235385   2.495   0.346   3.077  0.1555  0.1532  0.4828
 4657TIP3    H135386   2.565   0.398   3.117 -1.5738  1.1204  2.4478
 4657TIP3    H235387   2.457   0.297   3.150 -1.4666 -0.0601 -0.4521
 4658TIP3   OH235388   0.877   5.230   2.976  0.0814 -0.7474 -0.1522
 4658TIP3    H135389   0.863   5.178   3.056  1.2050 -0.1871  0.4348
 4658TIP3    H235390   0.826   5.185   2.909  1.0424 -2.6539  0.3259
 4659TIP3   OH235391   1.672   4.728  14.262  0.5745  0.1319 -0.4513
 4659TIP3    H135392   1.737   4.663  14.287  0.1298 -0.7827 -1.5810
 4659TIP3    H235393   1.644   4.702  14.174 -0.7199  0.9793 -0.3236
 4660TIP3   OH235394   1.330   2.109   5.882  0.0704 -0.1389  0.2644
 4660TIP3    H135395   1.281   2.027   5.890  1.8092 -1.0750  2.0865
 4660TIP3    H235396   1.381   2.098   5.801 -0.5397 -0.3656 -0.0958
 4661TIP3   OH235397   0.871   2.771  14.474  0.1450 -0.1689 -0.1566
 4661TIP3    H135398   0.881   2.866  14.478 -0.9658 -0.0258  4.0066
 4661TIP3    H235399   0.794   2.757  14.418  0.4973  1.3328 -1.0635
 4662TIP3   OH235400   1.453   5.270   1.062 -0.0514  0.0537 -0.2371
 4662TIP3    H135401   1.536   5.310   1.088 -1.4425  0.9402  3.5674
 4662TIP3    H235402   1.407   5.340   1.015  0.6073  0.2328 -0.6209
 4663TIP3   OH235403   6.025   3.318  17.153 -0.0745 -0.1097  0.1710
 4663TIP3    H135404   5.966   3.293  17.224  0.4692  0.1366  0.7185
 4663TIP3    H235405   5.972   3.312  17.074 -1.5799  2.4949  0.8719
 4664TIP3   OH235406   4.649   0.430   0.475  0.3918  0.4895 -0.5081
 4664TIP3    H135407   4.727   0.478   0.449  1.5954 -0.4150  1.1650
 4664TIP3    H235408   4.671   0.395   0.562 -0.8595 -1.9922 -1.0965
 4665TIP3   OH235409   3.497   3.320  12.621  0.3545  0.1121 -0.6584
 4665TIP3    H135410   3.535   3.363  12.698 -0.8103 -0.2539  0.1345
 4665TIP3    H235411   3.521   3.378  12.548 -0.8776  1.9648  0.3173
 4666TIP3   OH235412   2.226   5.991   0.602  0.2272 -0.1362 -0.0554
 4666TIP3    H135413   2.265   5.935   0.669  0.4615 -1.1141 -0.9812
 4666TIP3    H235414   2.140   5.952   0.585 -0.0501  0.4173  0.0466
 4667TIP3   OH235415   2.480   2.027  11.324  0.1859 -0.2073  0.0246
 4667TIP3    H135416   2.559   1.982  11.352  0.3455  0.9833  1.6241
 4667TIP3    H235417   2.412   1.959  11.322  1.2693 -1.3052 -1.6781
 4668TIP3   OH235418   1.389   4.594   0.275  0.0593  0.1179 -0.0619
 4668TIP3    H135419   1.438   4.642   0.342  0.8849 -0.2620 -0.3903
 4668TIP3    H235420   1.434   4.613   0.193 -0.4872 -0.0374 -0.4004
 4669TIP3   OH235421   5.215   2.999  13.803 -0.3788 -0.0047  0.2111
 4669TIP3    H135422   5.304   2.972  13.782 -0.4766 -1.1646  1.2026
 4669TIP3    H235423   5.168   2.992  13.721  1.0257  3.3692 -1.0513
 4670TIP3   OH235424   4.288   4.398  14.297 -0.4586 -0.2583 -0.1221
 4670TIP3    H135425   4.235   4.337  14.350 -0.0202  0.0031  0.6273
 4670TIP3    H235426   4.261   4.485  14.327  0.2805 -0.1209  0.1484
 4671TIP3   OH235427   0.428   4.367  13.085 -0.1804 -0.2306 -0.0408
 4671TIP3    H135428   0.380   4.312  13.147 -2.4154  0.0912 -1.4179
 4671TIP3    H235429   0.434   4.314  13.005  0.6301  0.2626 -0.3230
 4672TIP3   OH235430   2.782   0.050   6.221 -0.5829 -0.5471  0.2490
 4672TIP3    H135431   2.834  -0.029   6.205 -1.1875 -0.9312  0.1268
 4672TIP3    H235432   2.698   0.032   6.178  0.0721  1.1454 -1.9272
 4673TIP3   OH235433   4.685   5.361   0.503  0.3382 -0.2830  0.0900
 4673TIP3    H135434   4.633   5.340   0.426  1.3533 -2.0951 -0.1555
 4673TIP3    H235435   4.769   5.391   0.468  0.0539  1.0429  0.4940
 4674TIP3   OH235436   0.648   5.207  16.129 -0.1830 -0.4821  0.0332
 4674TIP3    H135437   0.573   5.228  16.072 -0.4250  0.4927  0.6895
 4674TIP3    H235438   0.640   5.268  16.202  0.8480 -0.8671  0.4806
 4675TIP3   OH235439   4.591   5.093  14.635 -0.4966  0.4850 -0.2239
 4675TIP3    H135440   4.591   5.125  14.544  0.8258  0.8897 -0.1032
 4675TIP3    H235441   4.517   5.137  14.675 -2.5878 -1.4864 -1.6648
 4676TIP3   OH235442   5.257   0.018   4.276 -0.1016  0.2201  0.4701
 4676TIP3    H135443   5.213   0.093   4.315  0.0891  0.1179  0.8831
 4676TIP3    H235444   5.351   0.036   4.288 -0.0541 -0.0472  0.5060
 4677TIP3   OH235445   3.456   0.987  16.722 -0.0699  0.0256 -0.2847
 4677TIP3    H135446   3.546   1.014  16.707 -0.0296  0.6328  0.8719
 4677TIP3    H235447   3.403   1.059  16.687 -0.1045 -0.3091 -0.9220
 4678TIP3   OH235448   2.534   1.217   0.400 -0.6896  0.0390  0.1531
 4678TIP3    H135449   2.473   1.264   0.456 -0.4007  1.3705 -0.5892
 4678TIP3    H235450   2.579   1.286   0.350  0.0075 -1.0120 -0.7400
 4679TIP3   OH235451   6.231   0.940   2.840  0.2677 -0.2350 -0.3472
 4679TIP3    H135452   6.230   0.879   2.914 -1.6147 -0.6004 -0.6463
 4679TIP3    H235453   6.147   0.985   2.844  0.6859  0.7061 -1.4951
 4680TIP3   OH235454   1.149   2.574  17.209 -0.1388 -0.1444  0.2028
 4680TIP3    H135455   1.185   2.539  17.128  0.9893  2.1484 -0.3723
 4680TIP3    H235456   1.054   2.578  17.194 -0.1104 -1.1979 -0.3604
 4681TIP3   OH235457   3.815   2.739  16.081 -0.0734  0.2975  0.3644
 4681TIP3    H135458   3.878   2.717  16.013  0.3553  2.4087 -0.0084
 4681TIP3    H235459   3.732   2.753  16.034 -0.3908 -0.6727  0.6167
 4682TIP3   OH235460   1.697   6.366   2.428  0.3031 -0.1582 -0.1208
 4682TIP3    H135461   1.617   6.419   2.427 -0.8186 -1.7772  0.0843
 4682TIP3    H235462   1.730   6.376   2.517 -0.5465 -0.7112  0.2706
 4683TIP3   OH235463   0.611   6.775   3.488 -0.0757 -0.7108  0.5703
 4683TIP3    H135464   0.687   6.749   3.436 -1.5840 -0.6766 -1.8172
 4683TIP3    H235465   0.626   6.867   3.509  1.7082 -1.3594  2.4358
 4684TIP3   OH235466   3.063   1.888   1.079 -0.1302 -0.0921 -0.4180
 4684TIP3    H135467   3.082   1.925   0.993 -1.0543 -0.9889 -1.0322
 4684TIP3    H235468   3.001   1.817   1.061 -0.4329 -0.2072  1.0038
 4685TIP3   OH235469   3.687   4.653   4.621 -0.1079 -0.0856 -0.0837
 4685TIP3    H135470   3.604   4.693   4.594  0.7668  1.0560 -1.1996
 4685TIP3    H235471   3.718   4.607   4.543 -0.7303 -2.4322  0.9624
 4686TIP3   OH235472   6.293   2.600  15.274  0.0832  0.2671  0.3326
 4686TIP3    H135473   6.228   2.645  15.327  0.2890  0.1240  0.7135
 4686TIP3    H235474   6.355   2.669  15.248  0.0651  0.3094  0.4040
 4687TIP3   OH235475   0.506   1.171   2.559  0.1374  0.2936  0.3894
 4687TIP3    H135476   0.576   1.113   2.527 -0.7991 -0.1640 -0.9472
 4687TIP3    H235477   0.547   1.223   2.628  1.2274 -1.4339  1.1148
 4688TIP3   OH235478   6.257   6.526  15.415 -0.7179  0.3947 -0.1856
 4688TIP3    H135479   6.217   6.599  15.463 -0.2478  1.0718 -0.7977
 4688TIP3    H235480   6.338   6.507  15.462 -0.6503  0.5249 -0.2499
 4689TIP3   OH235481   6.057   6.768  12.407  0.0921 -0.0328  0.4480
 4689TIP3    H135482   6.059   6.837  12.473  0.9710 -0.9003  1.3660
 4689TIP3    H235483   6.114   6.700  12.442 -0.8587 -1.2863 -0.3613
 4690TIP3   OH235484   6.407   3.152   5.157  0.0621 -0.3781 -0.0037
 4690TIP3    H135485   6.428   3.076   5.103 -0.0049  0.3712 -1.1187
 4690TIP3    H235486   6.487   3.205   5.153  0.7665 -1.1702  2.2078
 4691TIP3   OH235487   4.565   5.544  16.592 -0.0981  0.9765  0.0136
 4691TIP3    H135488   4.474   5.558  16.620 -0.8275  1.2596 -2.2278
 4691TIP3    H235489   4.592   5.463  16.636 -1.3134  1.0712  0.9850
 4692TIP3   OH235490   2.586   3.589   2.402 -0.4959 -0.0130  0.4572
 4692TIP3    H135491   2.548   3.625   2.322 -0.1923 -2.7740 -1.0865
 4692TIP3    H235492   2.514   3.539   2.442 -0.5036  0.9361  1.6961
 4693TIP3   OH235493   0.527   2.934   4.723  0.2222  0.3013 -0.3491
 4693TIP3    H135494   0.456   2.877   4.693  1.4060 -1.5630  0.2186
 4693TIP3    H235495   0.522   2.930   4.819  0.8278  0.4772 -0.3068
 4694TIP3   OH235496   2.687   6.579  11.362 -0.1411 -0.3361 -0.0193
 4694TIP3    H135497   2.694   6.559  11.269  0.5084 -0.5195  0.0673
 4694TIP3    H235498   2.684   6.675  11.366 -0.4610 -0.3345 -0.2426
 4695TIP3   OH235499   3.804   1.696   2.331 -0.7009  0.3144 -0.2379
 4695TIP3    H135500   3.754   1.685   2.250 -0.7649  1.4570 -0.3654
 4695TIP3    H235501   3.893   1.717   2.302 -0.6960  0.6023 -0.0230
 4696TIP3   OH235502   0.248   3.178   1.787  0.4637 -0.1019 -0.1127
 4696TIP3    H135503   0.232   3.245   1.854 -0.0815 -1.1734  0.8647
 4696TIP3    H235504   0.161   3.149   1.761  0.6890 -0.1818 -0.8015
 4697TIP3   OH235505   4.689   0.408   4.840  0.6222  0.1233 -0.3433
 4697TIP3    H135506   4.594   0.402   4.839  0.3782  2.9640 -1.6022
 4697TIP3    H235507   4.709   0.463   4.916  1.5036 -1.9862  1.0852
 4698TIP3   OH235508   6.300   3.510  14.377  0.0646  0.3985  0.1443
 4698TIP3    H135509   6.252   3.582  14.417  0.5545  0.7135  0.1763
 4698TIP3    H235510   6.362   3.482  14.444  0.0323  0.0989  0.0501
 4699TIP3   OH235511   5.646   2.365  12.865  0.1361 -0.0717 -0.1538
 4699TIP3    H135512   5.558   2.380  12.831 -0.3674 -3.4966 -0.7651
 4699TIP3    H235513   5.704   2.394  12.795 -0.6740 -0.9379 -1.2261
 4700TIP3   OH235514   6.507   4.333   0.459 -0.4517  0.1034 -0.3891
 4700TIP3    H135515   6.586   4.367   0.415 -0.9883 -0.3894 -1.7957
 4700TIP3    H235516   6.512   4.370   0.547  1.7397 -0.5161 -0.1806
 4701TIP3   OH235517   2.366   3.821   5.491 -0.2216  0.2902  0.5759
 4701TIP3    H135518   2.400   3.841   5.404  1.4863 -1.6629  0.7077
 4701TIP3    H235519   2.274   3.845   5.488  0.0041  1.0669 -1.4805
 4702TIP3   OH235520   1.835   3.420  14.914 -0.5764 -0.0555  0.6424
 4702TIP3    H135521   1.790   3.481  14.855 -0.0459  0.5984  0.8974
 4702TIP3    H235522   1.905   3.382  14.862 -0.1183  0.5096  0.8362
 4703TIP3   OH235523   4.558   0.119   2.277 -0.2271 -0.5271  0.0956
 4703TIP3    H135524   4.581   0.176   2.351 -2.7619 -1.4462  1.7422
 4703TIP3    H235525   4.531   0.037   2.318  0.5213 -1.9269 -2.0483
 4704TIP3   OH235526   0.039   1.470   6.374  0.5056 -0.1913  0.1441
 4704TIP3    H135527  -0.018   1.547   6.378 -1.8015 -1.6682 -1.7373
 4704TIP3    H235528   0.015   1.419   6.452 -2.5835 -1.8255 -1.6438
 4705TIP3   OH235529   5.397   4.579  12.640 -0.0651 -0.2133 -0.3574
 4705TIP3    H135530   5.430   4.532  12.563  0.4733 -0.0838 -0.2069
 4705TIP3    H235531   5.317   4.621  12.609 -0.2429 -0.7571 -0.6502
 4706TIP3   OH235532   4.064   5.254  14.467 -0.4456  0.1819 -0.0760
 4706TIP3    H135533   3.988   5.198  14.479 -0.4684 -0.0548 -1.2475
 4706TIP3    H235534   4.040   5.337  14.508 -0.1905 -0.7919  2.2316
 4707TIP3   OH235535   3.954   0.184   2.190 -0.4307 -1.3297  1.0691
 4707TIP3    H135536   4.044   0.161   2.164  0.8202  2.1703  1.8219
 4707TIP3    H235537   3.914   0.218   2.110 -0.2950 -0.7577  1.2421
 4708TIP3   OH235538   6.221   2.394  13.402 -0.1471  0.4071 -0.1833
 4708TIP3    H135539   6.290   2.381  13.337 -0.7423 -1.4079 -0.4905
 4708TIP3    H235540   6.212   2.310  13.446 -1.0151  1.0894  1.0087
 4709TIP3   OH235541   5.006   2.620  10.916  0.1426  0.4850  0.3188
 4709TIP3    H135542   5.059   2.694  10.948  0.1090  1.4545 -1.7269
 4709TIP3    H235543   4.956   2.656  10.843  0.0297 -1.5583 -0.6747
 4710TIP3   OH235544   2.835   0.887  11.204 -0.0415  0.4328 -0.3621
 4710TIP3    H135545   2.765   0.953  11.209 -0.2620  0.1912 -0.2471
 4710TIP3    H235546   2.908   0.933  11.162 -0.0761  0.8549  0.0217
 4711TIP3   OH235547   1.022   2.578  16.349  0.0014  0.4084 -0.6258
 4711TIP3    H135548   1.095   2.518  16.331  0.8790  1.7444 -1.7012
 4711TIP3    H235549   0.945   2.522  16.345  1.0308 -1.7608  3.7858
 4712TIP3   OH235550   1.632   4.010  16.775 -0.3718  0.3457  0.3211
 4712TIP3    H135551   1.667   3.924  16.800  1.3933  1.1370  0.6775
 4712TIP3    H235552   1.660   4.068  16.846 -0.4094  1.4741 -0.5733
 4713TIP3   OH235553   4.839   1.054   5.322 -0.2707  0.4152  0.2450
 4713TIP3    H135554   4.902   1.021   5.386 -0.2367  1.3358  0.7116
 4713TIP3    H235555   4.876   1.139   5.295 -1.0552  0.7295  0.1415
 4714TIP3   OH235556   2.361   5.676   1.186  0.4180 -0.4685  0.4921
 4714TIP3    H135557   2.322   5.728   1.257  3.6909  2.6541  0.2800
 4714TIP3    H235558   2.390   5.596   1.228  2.8531  1.5520  3.0168
 4715TIP3   OH235559   2.182   2.892   0.704 -0.3914  0.4737  0.3247
 4715TIP3    H135560   2.143   2.904   0.791  1.4205 -1.2153  1.4860
 4715TIP3    H235561   2.268   2.933   0.711 -0.6532  1.3065 -1.0744
 4716TIP3   OH235562   1.294   1.876  16.891 -0.3797 -0.5104 -0.5320
 4716TIP3    H135563   1.336   1.811  16.947 -1.7911 -0.1664  0.9805
 4716TIP3    H235564   1.324   1.960  16.925 -1.2374 -0.2998 -0.2828
 4717TIP3   OH235565   6.037   6.591  12.916 -0.1542 -0.1906  0.0934
 4717TIP3    H135566   6.088   6.513  12.892  0.0389 -0.4695  1.3240
 4717TIP3    H235567   5.949   6.573  12.885  0.1447 -0.3997 -0.6449
 4718TIP3   OH235568   3.701   2.562  13.074  1.2739 -0.4832  0.7279
 4718TIP3    H135569   3.737   2.480  13.106  2.0203  0.1094  1.4598
 4718TIP3    H235570   3.607   2.552  13.083  1.3188 -1.5107  0.1681
 4719TIP3   OH235571   2.477   2.790   2.948  0.0529  0.4073  0.3403
 4719TIP3    H135572   2.530   2.815   2.872 -0.5271  2.5365  0.5721
 4719TIP3    H235573   2.540   2.791   3.021 -0.1597  2.7135  0.5774
 4720TIP3   OH235574   0.391   2.736  12.334 -0.3428  0.3341 -0.0855
 4720TIP3    H135575   0.330   2.678  12.289  1.4029 -0.6099 -1.3750
 4720TIP3    H235576   0.386   2.818  12.285 -1.6801  0.8084  0.7894
 4721TIP3   OH235577   5.397   4.715  16.641 -0.3315  0.2699  0.7182
 4721TIP3    H135578   5.353   4.798  16.625  1.3117  1.3651  1.6103
 4721TIP3    H235579   5.383   4.698  16.734  2.8384  1.8125  1.6274
 4722TIP3   OH235580   6.590   0.572   4.691 -0.3232 -0.0055  0.2835
 4722TIP3    H135581   6.549   0.505   4.745  1.0060 -1.9992 -1.0327
 4722TIP3    H235582   6.526   0.643   4.687 -2.0094 -1.4079  1.3237
 4723TIP3   OH235583   1.601   6.308   3.923 -0.5186  0.2814 -0.0819
 4723TIP3    H135584   1.679   6.363   3.930 -0.0802 -0.4402  1.0040
 4723TIP3    H235585   1.559   6.315   4.008  0.7080 -2.6635  0.9344
 4724TIP3   OH235586   6.760   5.990   0.933  0.2012 -0.5247  0.0263
 4724TIP3    H135587   6.733   5.935   1.007  0.2479 -0.4571  0.0935
 4724TIP3    H235588   6.772   6.077   0.972  1.8025 -0.8252  0.2548
 4725TIP3   OH235589   2.978   0.882   6.161  0.1528  0.1048  0.1053
 4725TIP3    H135590   3.069   0.855   6.175  0.1610 -0.1505 -0.4121
 4725TIP3    H235591   2.933   0.858   6.242 -0.3062 -3.6050 -1.0361
 4726TIP3   OH235592   0.372   4.073  11.186  0.4166 -0.1617 -0.3038
 4726TIP3    H135593   0.367   4.021  11.266  1.3985 -0.2746 -0.2961
 4726TIP3    H235594   0.461   4.057  11.153  0.2787  0.4697 -1.0139
 4727TIP3   OH235595   0.382   2.700   3.372 -0.1132 -0.0225 -0.0224
 4727TIP3    H135596   0.361   2.778   3.423 -0.5828 -1.0006  1.3195
 4727TIP3    H235597   0.311   2.694   3.308 -0.3916  0.3037  0.2548
 4728TIP3   OH235598   0.813   0.524   4.599 -0.4796  0.5166  0.0883
 4728TIP3    H135599   0.848   0.570   4.522 -0.1276  0.1795  0.0406
 4728TIP3    H235600   0.724   0.557   4.608 -0.7162  0.1603 -0.8057
 4729TIP3   OH235601   4.954   2.270   4.010 -0.2811  0.3560  0.2388
 4729TIP3    H135602   4.909   2.325   4.075 -0.7348 -0.5340  0.7006
 4729TIP3    H235603   5.038   2.248   4.052  0.4026  1.6056 -0.4170
 4730TIP3   OH235604   4.178   3.036   4.191 -0.1799 -0.0771  0.1559
 4730TIP3    H135605   4.240   2.992   4.250  0.6284 -1.8559 -1.8754
 4730TIP3    H235606   4.144   2.966   4.136 -2.1037  1.2812 -0.4600
 4731TIP3   OH235607   2.471   0.252   4.917 -0.1541 -0.6250  0.8280
 4731TIP3    H135608   2.459   0.346   4.903 -0.4021 -0.7068  0.4860
 4731TIP3    H235609   2.555   0.245   4.961 -0.6284 -0.1575  1.8383
 4732TIP3   OH235610   3.802   2.488   0.584  0.0797  0.5674  0.2911
 4732TIP3    H135611   3.883   2.440   0.566 -0.2645  1.3730 -4.8628
 4732TIP3    H235612   3.832   2.575   0.613  0.8156 -0.4535  2.8615
 4733TIP3   OH235613   5.572   6.051   1.531  0.2575 -0.4734 -0.1321
 4733TIP3    H135614   5.636   5.994   1.574 -0.7164 -0.7195  1.0561
 4733TIP3    H235615   5.489   6.003   1.538 -0.2874  0.3923 -0.5058
 4734TIP3   OH235616   4.366   5.531  12.462 -0.0427 -0.8921  0.5320
 4734TIP3    H135617   4.431   5.514  12.530  0.1363 -1.1392  0.3013
 4734TIP3    H235618   4.287   5.556  12.510  1.0802  2.7340  0.7975
 4735TIP3   OH235619   2.979   6.285   6.211  0.3276 -0.4448 -0.3803
 4735TIP3    H135620   2.963   6.362   6.157  0.3501 -0.1665  0.0104
 4735TIP3    H235621   3.046   6.313   6.274  0.6658 -0.9136 -0.5236
 4736TIP3   OH235622   4.981   0.419   5.723 -0.2070 -0.3847  0.1188
 4736TIP3    H135623   4.962   0.450   5.812 -1.4126 -2.5228  0.7081
 4736TIP3    H235624   5.076   0.415   5.719 -0.1024  0.7053  0.9431
 4737TIP3   OH235625   4.160   3.861  16.456 -0.2444  0.7239 -0.8293
 4737TIP3    H135626   4.193   3.888  16.542  0.5793 -0.3817 -0.7718
 4737TIP3    H235627   4.139   3.942  16.411 -0.7540  1.3296  0.4335
 4738TIP3   OH235628   6.656   2.833  14.328 -0.0082 -0.6402 -0.1094
 4738TIP3    H135629   6.579   2.888  14.308 -0.3258 -0.8652  0.4693
 4738TIP3    H235630   6.707   2.885  14.390  0.8363 -0.0605 -1.2571
 4739TIP3   OH235631   5.824   1.567  14.090 -0.0828  0.2437  0.1797
 4739TIP3    H135632   5.819   1.482  14.136  0.6675  0.4980  0.7491
 4739TIP3    H235633   5.896   1.613  14.132  0.2954  0.6999 -0.9381
 4740TIP3   OH235634   5.783   1.806   0.999  0.0665 -0.3367  0.5479
 4740TIP3    H135635   5.782   1.711   1.011 -1.6276 -0.4795 -0.5226
 4740TIP3    H235636   5.788   1.819   0.905  2.9349  0.7081  0.7502
 4741TIP3   OH235637   3.233   4.976  15.155 -0.4349 -0.7760  0.5803
 4741TIP3    H135638   3.303   5.007  15.097 -1.4468 -0.0049 -0.2626
 4741TIP3    H235639   3.254   4.884  15.171  0.0285 -0.9279 -0.7891
 4742TIP3   OH235640   5.960   1.317   0.638  0.4908 -0.2363  0.0698
 4742TIP3    H135641   5.866   1.314   0.654  0.6243 -0.8220  0.7660
 4742TIP3    H235642   6.000   1.294   0.722  1.2789  1.1758  0.1152
 4743TIP3   OH235643   1.984   6.210   4.103 -0.3842 -0.4953 -0.9506
 4743TIP3    H135644   1.999   6.198   4.196  1.3490  2.3604 -0.7522
 4743TIP3    H235645   2.049   6.154   4.060  0.5367  0.1139 -0.3697
 4744TIP3   OH235646   1.557   5.465  14.916 -0.0863  0.3135  0.8031
 4744TIP3    H135647   1.533   5.373  14.931  1.1507 -0.1099  0.2766
 4744TIP3    H235648   1.594   5.494  15.000  1.5423 -0.3435  0.3454
 4745TIP3   OH235649   5.104   5.770   0.407 -0.1358  0.2554  0.3915
 4745TIP3    H135650   5.045   5.768   0.331  0.9580  0.1462 -0.4809
 4745TIP3    H235651   5.065   5.835   0.465 -1.1887  0.0893 -0.0893
 4746TIP3   OH235652   1.815   2.988   1.508 -0.2831 -0.3453  0.2155
 4746TIP3    H135653   1.850   3.066   1.465 -1.0799  0.3670  0.8360
 4746TIP3    H235654   1.834   3.001   1.601  2.2231 -2.2884  0.0885
 4747TIP3   OH235655   1.878   3.813   4.058 -0.1571  0.1927  0.3156
 4747TIP3    H135656   1.912   3.894   4.097 -0.0153 -0.0523  0.7133
 4747TIP3    H235657   1.921   3.807   3.973 -1.0037  1.0983 -0.1924
 4748TIP3   OH235658   2.990   4.520  15.244 -0.0176  0.0019  0.3943
 4748TIP3    H135659   2.967   4.586  15.178  0.6833  0.4607  0.5972
 4748TIP3    H235660   3.078   4.492  15.220  0.1097 -0.0727  0.9382
 4749TIP3   OH235661   4.011   4.270   2.061 -0.5517 -0.5332 -0.6476
 4749TIP3    H135662   3.976   4.333   2.123 -1.4809 -1.2723 -0.4078
 4749TIP3    H235663   3.975   4.185   2.088 -1.0111 -0.8771 -2.1850
 4750TIP3   OH235664   1.556   5.065   3.608  0.4164 -0.3391 -0.2338
 4750TIP3    H135665   1.634   5.120   3.619 -0.1630  0.6379 -0.8232
 4750TIP3    H235666   1.590   4.976   3.604  1.3957 -0.0304  0.6521
 4751TIP3   OH235667   2.170   4.944  13.669 -0.0415  0.5089 -0.2259
 4751TIP3    H135668   2.191   4.854  13.694  0.6803  1.1936  1.7698
 4751TIP3    H235669   2.134   4.984  13.748  1.3042  2.4930 -0.5267
 4752TIP3   OH235670   1.909   5.125  15.710  0.1024 -0.0327 -0.3938
 4752TIP3    H135671   1.909   5.191  15.779 -0.7734 -0.9433  0.5146
 4752TIP3    H235672   1.897   5.042  15.757  2.0497 -0.9494 -1.4071
 4753TIP3   OH235673   2.663   4.651  17.185 -0.2272 -0.3921 -0.2887
 4753TIP3    H135674   2.576   4.619  17.209  0.0385  0.5438  2.2036
 4753TIP3    H235675   2.670   4.634  17.091 -2.8511 -1.0246 -0.4384
 4754TIP3   OH235676   5.764   5.859  12.775 -0.2676 -0.2552 -0.2130
 4754TIP3    H135677   5.709   5.781  12.764 -0.1836 -0.5094  1.0757
 4754TIP3    H235678   5.703   5.932  12.766 -0.9785 -0.5413  1.8147
 4755TIP3   OH235679   1.199   2.854   0.278 -0.4849 -0.0380 -0.4449
 4755TIP3    H135680   1.133   2.918   0.304 -0.6685 -0.4623  0.1658
 4755TIP3    H235681   1.164   2.813   0.199 -1.2625 -0.6919  0.2169
 4756TIP3   OH235682   0.092   4.524  15.354  0.1529 -0.0637 -0.8370
 4756TIP3    H135683   0.066   4.503  15.264  0.9999 -0.4134 -1.0061
 4756TIP3    H235684   0.077   4.443  15.403  2.4115 -0.7962 -1.2698
 4757TIP3   OH235685   0.989   4.500   3.759 -0.0793  0.6675 -0.5486
 4757TIP3    H135686   0.972   4.518   3.852  1.3057 -0.5704 -0.0038
 4757TIP3    H235687   0.923   4.435   3.735  0.8407 -0.5925  0.2034
 4758TIP3   OH235688   3.121   1.640   4.508  0.2466 -0.5019  0.3247
 4758TIP3    H135689   3.094   1.702   4.440 -0.2476 -0.8653  0.1851
 4758TIP3    H235690   3.094   1.554   4.475  1.0168 -0.8094  0.4712
 4759TIP3   OH235691   0.550   3.034  13.118 -0.2827 -0.7021  0.2172
 4759TIP3    H135692   0.548   3.124  13.084  0.6271 -0.6717  0.2147
 4759TIP3    H235693   0.461   3.018  13.148 -0.3727  0.3292  0.5491
 4760TIP3   OH235694   5.527   6.592   3.480 -0.2848 -0.2097  0.2479
 4760TIP3    H135695   5.571   6.620   3.400 -0.2292  0.2083  0.4225
 4760TIP3    H235696   5.458   6.658   3.494  0.9541  0.8769  1.6197
 4761TIP3   OH235697   5.876   6.702   3.828 -0.0859  0.0230  0.1965
 4761TIP3    H135698   5.932   6.678   3.902 -1.4421 -0.2098  1.1883
 4761TIP3    H235699   5.809   6.634   3.826  0.0244 -0.0624 -1.3712
 4762TIP3   OH235700   5.683   2.364  16.452 -0.0064  0.0836 -0.0601
 4762TIP3    H135701   5.723   2.451  16.451  1.6279 -0.6282 -0.0458
 4762TIP3    H235702   5.647   2.355  16.540  0.0936  0.6218  0.0393
 4763TIP3   OH235703   4.440   3.506  14.281  0.0718 -0.4494 -0.3594
 4763TIP3    H135704   4.527   3.485  14.245 -0.1343  0.5925 -1.5173
 4763TIP3    H235705   4.458   3.543  14.367  0.6526 -1.8493  0.1577
 4764TIP3   OH235706   1.786   0.475   3.787 -0.3536  0.1270  0.5407
 4764TIP3    H135707   1.828   0.539   3.844  2.3573 -0.6790 -0.3783
 4764TIP3    H235708   1.820   0.390   3.817 -2.0153 -0.6878  0.2352
 4765TIP3   OH235709   3.782   1.711  10.795  0.3702  0.5120 -0.3395
 4765TIP3    H135710   3.739   1.796  10.803 -0.9140 -0.1547  0.1621
 4765TIP3    H235711   3.713   1.653  10.762  0.7905 -0.6607  0.7593
 4766TIP3   OH235712   3.001   2.454  11.442 -0.0518  0.0575 -0.2405
 4766TIP3    H135713   3.005   2.368  11.401  1.0385  0.6758 -1.5356
 4766TIP3    H235714   3.004   2.437  11.536 -1.0783 -1.3547 -0.4348
 4767TIP3   OH235715   5.218   0.722   1.425  0.0189 -0.4798 -0.0418
 4767TIP3    H135716   5.227   0.627   1.436  1.7722 -0.4058 -0.5648
 4767TIP3    H235717   5.276   0.760   1.491  0.9206  0.1662 -1.1692
 4768TIP3   OH235718   1.222   2.421   5.616 -0.0222 -0.6509 -0.4283
 4768TIP3    H135719   1.252   2.503   5.575 -1.2213 -0.1013 -0.2606
 4768TIP3    H235720   1.292   2.398   5.677  0.4309  0.1460 -0.6261
 4769TIP3   OH235721   2.947   5.500  17.109 -0.2655  0.5972 -0.9878
 4769TIP3    H135722   2.862   5.516  17.070 -0.4719  0.1154 -0.7489
 4769TIP3    H235723   2.928   5.472  17.198  0.1789  1.1986 -0.7026
 4770TIP3   OH235724   3.938   6.494  13.996  0.0081  0.6091  0.4233
 4770TIP3    H135725   3.992   6.567  14.028  1.0141  0.3259 -0.5547
 4770TIP3    H235726   3.892   6.463  14.074  2.3822 -0.0659  1.6742
 4771TIP3   OH235727   6.782   3.655  16.458 -0.0588  0.3907 -0.3131
 4771TIP3    H135728   6.776   3.579  16.401 -0.4608  0.8070 -0.8369
 4771TIP3    H235729   6.744   3.726  16.407 -1.0054  0.6415  0.7221
 4772TIP3   OH235730   2.580   2.688  13.115  0.2977 -0.8991  0.2962
 4772TIP3    H135731   2.600   2.779  13.136 -1.0801 -0.5532  0.1660
 4772TIP3    H235732   2.522   2.692  13.039  1.4288 -1.9631 -0.6779
 4773TIP3   OH235733   0.813   0.238   3.875 -0.2505  0.6139 -0.1247
 4773TIP3    H135734   0.813   0.175   3.947 -0.6394 -1.7206 -2.0408
 4773TIP3    H235735   0.721   0.259   3.860 -0.1899  0.8816 -0.1392
 4774TIP3   OH235736   1.241   0.898  14.127  0.0093 -0.0707  0.3046
 4774TIP3    H135737   1.172   0.965  14.130  0.2460  0.1474  1.0453
 4774TIP3    H235738   1.219   0.844  14.051 -1.8048 -0.8686  1.3300
 4775TIP3   OH235739   0.690   2.178  10.868  0.2944  0.3732 -0.2245
 4775TIP3    H135740   0.658   2.170  10.957  0.8261  0.1856 -0.0456
 4775TIP3    H235741   0.668   2.094  10.827  1.7598 -0.2879  0.2988
 4776TIP3   OH235742   5.688   3.138  10.760  0.2810 -0.0719  0.1186
 4776TIP3    H135743   5.759   3.152  10.822  0.8598  0.4421 -0.6564
 4776TIP3    H235744   5.620   3.199  10.788  0.3768 -0.1222  0.4768
 4777TIP3   OH235745   2.961   0.588  14.617 -0.0615  0.4035 -0.0134
 4777TIP3    H135746   2.876   0.568  14.578 -0.5187  1.6182  0.2979
 4777TIP3    H235747   2.988   0.508  14.661 -1.3489  0.1919  0.4220
 4778TIP3   OH235748   2.275   1.955  16.013  0.8235  1.1269  0.1690
 4778TIP3    H135749   2.348   2.016  16.003 -0.2883  2.6505  0.8524
 4778TIP3    H235750   2.237   1.977  16.098  0.6476 -0.8749  0.6611
 4779TIP3   OH235751   5.631   5.159   2.059 -0.0962 -0.0257  0.0329
 4779TIP3    H135752   5.705   5.216   2.038  0.6539 -0.8185  0.4606
 4779TIP3    H235753   5.555   5.217   2.057  0.8500  1.4384  2.3287
 4780TIP3   OH235754   6.442   3.001   2.729 -0.2844  0.0392 -0.8452
 4780TIP3    H135755   6.371   3.065   2.738 -0.0110  0.3887 -1.1432
 4780TIP3    H235756   6.463   3.002   2.635  1.8704  1.8449 -0.4078
 4781TIP3   OH235757   1.727   3.551   4.652  0.3393  0.2269 -0.4189
 4781TIP3    H135758   1.674   3.619   4.695 -1.0276 -1.2756  0.3728
 4781TIP3    H235759   1.685   3.469   4.677  1.6302 -0.8978 -1.7961
 4782TIP3   OH235760   5.529   2.255  15.185 -0.4659 -0.2201  0.3188
 4782TIP3    H135761   5.488   2.334  15.151  1.1540  0.0949 -0.9763
 4782TIP3    H235762   5.477   2.183  15.148  0.1253  0.1717 -1.3666
 4783TIP3   OH235763   0.423   0.146   1.149 -0.2832 -0.1648 -0.0596
 4783TIP3    H135764   0.357   0.203   1.188 -1.0169 -1.2163  0.2863
 4783TIP3    H235765   0.380   0.108   1.072 -0.4648 -1.6374  0.7310
 4784TIP3   OH235766   5.125   5.287   4.770 -0.1874  0.2951 -0.2244
 4784TIP3    H135767   5.168   5.293   4.685 -0.9118 -0.5957 -0.6793
 4784TIP3    H235768   5.185   5.329   4.831 -0.2900  2.2478 -1.4005
 4785TIP3   OH235769   4.534   4.318   1.770 -0.3774  0.1793 -0.4694
 4785TIP3    H135770   4.552   4.403   1.811 -1.2499  0.2778 -0.2886
 4785TIP3    H235771   4.446   4.326   1.735 -0.7858 -0.9378  0.2704
 4786TIP3   OH235772   0.166   5.266  16.553  0.1743 -0.2915  0.1161
 4786TIP3    H135773   0.159   5.341  16.494  1.1898 -0.3742 -0.1257
 4786TIP3    H235774   0.161   5.189  16.496  1.2629 -0.3706  0.1094
 4787TIP3   OH235775   6.019   5.189   4.017  0.3072  0.2046 -0.2680
 4787TIP3    H135776   5.986   5.174   3.929 -1.1764 -0.8248  0.4162
 4787TIP3    H235777   6.104   5.231   4.004 -0.3159  0.9778 -2.1487
 4788TIP3   OH235778   3.874   5.014   1.035  0.4334  0.0482  0.1838
 4788TIP3    H135779   3.791   5.036   1.076  0.5687  0.0664  0.4515
 4788TIP3    H235780   3.939   5.064   1.085  0.6025  0.0430 -0.0306
 4789TIP3   OH235781   3.246   3.398  15.488 -0.2183 -0.2414  0.0128
 4789TIP3    H135782   3.219   3.432  15.403 -0.6939  0.7412  0.5394
 4789TIP3    H235783   3.336   3.368  15.475 -0.8717 -1.7598 -1.2787
 4790TIP3   OH235784   3.392   4.259  14.740 -0.5813  0.2376 -0.4994
 4790TIP3    H135785   3.402   4.164  14.729 -1.0513 -0.0677  1.3523
 4790TIP3    H235786   3.417   4.275  14.831  0.7956  2.1058 -1.1394
 4791TIP3   OH235787   2.207   5.193  11.844 -0.6484 -0.2145 -0.3268
 4791TIP3    H135788   2.250   5.160  11.923  1.1458 -0.5695 -1.3921
 4791TIP3    H235789   2.138   5.130  11.826  0.1989 -1.2377 -0.1239
 4792TIP3   OH235790   1.225   5.272   1.602 -0.8148 -0.5716  0.6586
 4792TIP3    H135791   1.161   5.274   1.530  1.4065 -1.8958 -1.4953
 4792TIP3    H235792   1.277   5.351   1.589  1.3607 -2.1652 -1.0446
 4793TIP3   OH235793   5.603   4.754   1.380  0.1447 -0.6085  0.2696
 4793TIP3    H135794   5.627   4.718   1.295  1.9300  0.0488  0.4527
 4793TIP3    H235795   5.682   4.799   1.410 -0.5898 -0.4507  2.0798
 4794TIP3   OH235796   2.487   6.582  15.582 -0.2297 -0.1560 -0.2805
 4794TIP3    H135797   2.429   6.560  15.509 -0.6959 -1.8927  0.5724
 4794TIP3    H235798   2.525   6.667  15.558 -0.3213 -0.7038 -2.5527
 4795TIP3   OH235799   1.239   1.133  13.510 -0.2909  0.0138 -0.0576
 4795TIP3    H135800   1.211   1.201  13.449  0.4961  1.5919  1.2633
 4795TIP3    H235801   1.235   1.052  13.459 -1.9301  0.9240 -1.4814
 4796TIP3   OH235802   2.657   1.121  12.854  0.3813 -0.3091 -0.6488
 4796TIP3    H135803   2.688   1.034  12.882  0.0604  0.1942  1.4224
 4796TIP3    H235804   2.646   1.113  12.760  0.7648 -2.4048 -0.5667
 4797TIP3   OH235805   5.357   4.512   2.782  0.2294  0.1712 -0.4626
 4797TIP3    H135806   5.396   4.510   2.695  0.6858 -0.2219 -0.2513
 4797TIP3    H235807   5.267   4.541   2.767  0.5019  0.7683 -0.9863
 4798TIP3   OH235808   5.748   6.315  15.673  0.4016 -0.1461  0.8129
 4798TIP3    H135809   5.701   6.357  15.601 -1.4546 -1.7036  1.0356
 4798TIP3    H235810   5.841   6.323  15.649  0.0640  2.5609  0.0872
 4799TIP3   OH235811   4.875   5.891   5.072  0.2007  0.5158 -0.4775
 4799TIP3    H135812   4.869   5.986   5.078  1.5005  0.6149 -0.5006
 4799TIP3    H235813   4.880   5.862   5.163 -2.3612  0.2681 -0.3517
 4800TIP3   OH235814   0.001   3.347   1.047 -0.0688  0.3596 -0.5992
 4800TIP3    H135815   0.029   3.267   1.091 -0.2866 -0.9785 -2.7369
 4800TIP3    H235816  -0.088   3.362   1.079  0.7730  1.1489  1.5764
 4801TIP3   OH235817   0.943   0.926   2.811 -0.0353 -0.2332 -0.7862
 4801TIP3    H135818   0.966   0.975   2.732 -1.8236 -1.6117 -2.2585
 4801TIP3    H235819   0.860   0.884   2.790 -1.2156  0.2772  2.2798
 4802TIP3   OH235820   5.496   0.064  11.044 -0.3273 -1.0797  0.0843
 4802TIP3    H135821   5.566   0.025  11.096  0.3200  0.6647  0.5896
 4802TIP3    H235822   5.421   0.068  11.103  0.3738  0.7912  0.9503
 4803TIP3   OH235823   5.113   4.238  12.574  0.2033 -0.1097  0.5326
 4803TIP3    H135824   5.082   4.252  12.664 -0.3373  0.3649  0.2735
 4803TIP3    H235825   5.047   4.180  12.536  0.7225 -0.7576  0.6035
 4804TIP3   OH235826   0.602   2.310  11.941  0.2553  0.2852  0.0684
 4804TIP3    H135827   0.608   2.353  12.026  2.0977 -1.1963  0.7678
 4804TIP3    H235828   0.511   2.280  11.935  0.6200 -1.6913  2.6682
 4805TIP3   OH235829   5.893   0.830   0.895 -0.0459 -0.0638  0.0384
 4805TIP3    H135830   5.819   0.876   0.857 -1.2449 -0.2050  2.0140
 4805TIP3    H235831   5.856   0.784   0.971  1.3706 -3.0501 -0.9211
 4806TIP3   OH235832   3.843   0.817  10.729 -0.1836 -0.4494  0.1954
 4806TIP3    H135833   3.820   0.849  10.816  0.0124  0.4788 -0.0863
 4806TIP3    H235834   3.923   0.767  10.742 -1.1186 -1.8506  0.8296
 4807TIP3   OH235835   5.638   3.776  16.201  0.3221  0.1398 -0.8916
 4807TIP3    H135836   5.592   3.826  16.269 -1.0774 -2.5589  0.3029
 4807TIP3    H235837   5.723   3.754  16.241 -0.3324 -1.0833 -0.0936
 4808TIP3   OH235838   2.447   3.599   3.381  0.2196  0.0513  0.1449
 4808TIP3    H135839   2.352   3.599   3.368  0.2118 -0.2051  0.1941
 4808TIP3    H235840   2.482   3.625   3.296  0.0862  0.7792  0.3037
 4809TIP3   OH235841   6.561   4.894   5.869  0.5160  0.0254 -0.2701
 4809TIP3    H135842   6.616   4.945   5.929 -1.1570  1.5788  0.0527
 4809TIP3    H235843   6.472   4.904   5.905 -0.0052 -2.3799 -0.7719
 4810TIP3   OH235844   4.962   3.557  13.155 -0.6334  0.1019 -0.0945
 4810TIP3    H135845   4.975   3.531  13.246 -0.5405 -2.0478 -0.6768
 4810TIP3    H235846   4.992   3.483  13.104 -2.7173  0.3519 -1.8322
 4811TIP3   OH235847   0.920   6.467  13.834  0.3455 -0.7158 -0.4257
 4811TIP3    H135848   0.845   6.435  13.885 -0.9521 -1.1432 -2.4943
 4811TIP3    H235849   0.881   6.509  13.757  2.2273 -1.0986 -1.6592
 4812TIP3   OH235850   5.813   6.538   4.805 -0.5898  0.0247  0.3879
 4812TIP3    H135851   5.864   6.619   4.800  0.2720 -0.5987 -1.8940
 4812TIP3    H235852   5.722   6.567   4.804 -0.2987  1.0049  0.8167
 4813TIP3   OH235853   2.522   4.967   0.619  0.0189  0.3638  0.2095
 4813TIP3    H135854   2.591   4.922   0.571  0.9235  1.6864  0.2070
 4813TIP3    H235855   2.479   5.022   0.554 -2.4119 -1.8642 -0.2519
 4814TIP3   OH235856   5.152   4.315  15.414 -0.3135  0.6730 -0.6120
 4814TIP3    H135857   5.064   4.317  15.377 -0.0142 -2.6899 -1.9344
 4814TIP3    H235858   5.210   4.340  15.342 -0.0779  0.7636 -0.3954
 4815TIP3   OH235859   6.499   2.347   1.031  0.0383  0.8047  0.1652
 4815TIP3    H135860   6.573   2.378   1.084  1.6316 -0.3708 -1.2780
 4815TIP3    H235861   6.449   2.426   1.011  0.8658  1.6173  1.1936
 4816TIP3   OH235862   3.221   0.189   3.402 -0.2963  0.0199 -0.2189
 4816TIP3    H135863   3.268   0.218   3.324 -0.3277 -3.1042 -1.5453
 4816TIP3    H235864   3.270   0.228   3.475  1.9803  0.0925 -1.6885
 4817TIP3   OH235865   3.242   6.766   0.438  0.0125  0.3613  0.5632
 4817TIP3    H135866   3.168   6.732   0.389 -0.8551  2.3556  0.3817
 4817TIP3    H235867   3.305   6.793   0.371 -0.4154  1.4483  0.5774
 4818TIP3   OH235868   4.250   4.771   4.635  0.1130 -0.7020  0.0238
 4818TIP3    H135869   4.258   4.753   4.728 -0.7898  0.5436  0.3665
 4818TIP3    H235870   4.212   4.859   4.630 -0.0660 -0.8315 -1.5070
 4819TIP3   OH235871   4.039   0.195   4.647 -0.0269 -0.3969  0.3965
 4819TIP3    H135872   4.098   0.269   4.659 -1.9948  1.5372 -0.9992
 4819TIP3    H235873   4.045   0.145   4.729  1.5400  1.1719  1.2951
 4820TIP3   OH235874   1.590   1.197  16.584  0.3961  0.6773  0.1745
 4820TIP3    H135875   1.497   1.205  16.608  0.1950  0.6058 -0.5627
 4820TIP3    H235876   1.599   1.252  16.506  0.1286 -2.1404 -1.9726
 4821TIP3   OH235877   3.861   2.930  16.551  0.1635  0.1936  0.7010
 4821TIP3    H135878   3.857   2.866  16.480  0.0058 -0.0000  0.8830
 4821TIP3    H235879   3.770   2.957  16.563  0.1605  0.0639  0.9744
 4822TIP3   OH235880   1.488   6.741  17.097 -0.1897  0.0913  0.6761
 4822TIP3    H135881   1.497   6.687  17.019 -1.0447  0.2292  0.4734
 4822TIP3    H235882   1.544   6.817  17.080 -1.3260  0.7416 -0.3721
 4823TIP3   OH235883   2.736   3.479  17.079  0.5158  0.2259 -0.3001
 4823TIP3    H135884   2.693   3.434  17.007 -0.7643 -2.3740  1.9226
 4823TIP3    H235885   2.695   3.566  17.081 -0.5212 -0.2059 -1.7096
 4824TIP3   OH235886   5.743   3.249  13.419  0.1631 -0.3901  0.2353
 4824TIP3    H135887   5.663   3.235  13.368 -0.5737  2.1949  0.5356
 4824TIP3    H235888   5.808   3.277  13.355 -0.0511  0.4008  0.3478
 4825TIP3   OH235889   3.520   6.148  13.583  0.3722  0.7162 -0.4470
 4825TIP3    H135890   3.471   6.069  13.606  0.5270  0.6269 -0.4220
 4825TIP3    H235891   3.562   6.175  13.665  0.6783  0.5712 -0.5537
 4826TIP3   OH235892   5.046   4.684   3.377  0.1577  0.6701 -0.1729
 4826TIP3    H135893   5.050   4.596   3.339 -1.9162  1.2888 -2.0478
 4826TIP3    H235894   5.068   4.742   3.303 -0.2125  1.7893  0.5749
 4827TIP3   OH235895   4.302   4.182  15.051  0.5904  0.0512  0.1547
 4827TIP3    H135896   4.376   4.214  15.000  0.8502  1.7519  1.5251
 4827TIP3    H235897   4.227   4.231  15.017  0.7132  0.9595  1.1784
 4828TIP3   OH235898   0.294   4.063   5.098  0.1589  0.2136  0.1008
 4828TIP3    H135899   0.350   4.052   5.021 -0.6890 -1.2131 -0.3324
 4828TIP3    H235900   0.335   4.009   5.166 -0.5353 -0.6408 -0.1464
 4829TIP3   OH235901   1.000   1.511  14.543 -0.3674  0.1239  0.2782
 4829TIP3    H135902   0.969   1.510  14.453 -1.2382 -0.8455  0.5590
 4829TIP3    H235903   1.051   1.591  14.551  0.6910 -0.3374 -1.3848
 4830TIP3   OH235904   5.234   1.493   3.929 -0.0143  0.7800  0.0319
 4830TIP3    H135905   5.262   1.437   3.857 -0.5697  1.6663 -0.8986
 4830TIP3    H235906   5.300   1.480   3.997 -0.0647 -0.8767 -0.2150
 4831TIP3   OH235907   2.150   5.698  10.664  0.1010 -0.0457 -0.0530
 4831TIP3    H135908   2.164   5.613  10.621  1.5063  0.0528  0.1643
 4831TIP3    H235909   2.077   5.682  10.724  0.6681 -1.2525  0.3537
 4832TIP3   OH235910   4.943   0.408   4.714 -0.4588  0.4392  0.1249
 4832TIP3    H135911   4.858   0.368   4.732 -0.5564  0.8773  0.6432
 4832TIP3    H235912   4.933   0.500   4.740 -0.0310  0.6507 -0.4304
 4833TIP3   OH235913   0.443   3.516  11.377  0.2817 -0.1291  0.0008
 4833TIP3    H135914   0.352   3.537  11.400  0.5891  1.5293 -0.1306
 4833TIP3    H235915   0.479   3.475  11.456 -0.7261 -1.3388 -0.1471
 4834TIP3   OH235916   4.187   2.649   5.414  0.4236 -0.0162  0.2210
 4834TIP3    H135917   4.219   2.708   5.482 -2.2279 -1.1821  2.7181
 4834TIP3    H235918   4.150   2.706   5.347  1.2166  1.1758  0.7700
 4835TIP3   OH235919   6.738   2.376   5.194  0.6754 -0.0242  0.0158
 4835TIP3    H135920   6.804   2.307   5.183  0.9022  0.2903 -0.6205
 4835TIP3    H235921   6.760   2.417   5.278  0.8223 -0.4168  0.1736
 4836TIP3   OH235922   4.910   0.567  13.768 -0.0696  0.4799 -0.0411
 4836TIP3    H135923   4.958   0.540  13.847  0.2350  2.0901  0.3611
 4836TIP3    H235924   4.963   0.638  13.731 -1.9819  2.1422  0.2690
 4837TIP3   OH235925   5.327   3.978  16.292  0.3392  0.0669  0.6035
 4837TIP3    H135926   5.365   3.938  16.370 -0.5673  0.1870  1.1283
 4837TIP3    H235927   5.272   3.910  16.254  0.7653  0.0152  0.0756
 4838TIP3   OH235928   2.516   0.256  10.671  0.2961 -0.2281 -0.2806
 4838TIP3    H135929   2.442   0.314  10.685  1.4025  1.0584  0.5383
 4838TIP3    H235930   2.570   0.300  10.605 -0.1268 -1.6267 -1.6068
 4839TIP3   OH235931   3.157   6.382  17.264  0.2621 -0.5356 -0.2520
 4839TIP3    H135932   3.218   6.441  17.219 -1.6332  1.6084 -0.2055
 4839TIP3    H235933   3.117   6.331  17.193  2.9053 -2.8922 -0.1749
 4840TIP3   OH235934   0.097   0.253  12.098  0.2802  0.1058 -0.0769
 4840TIP3    H135935   0.039   0.208  12.037  1.3275 -0.1643 -0.9046
 4840TIP3    H235936   0.066   0.343  12.098 -0.3597 -0.1110 -0.2390
 4841TIP3   OH235937   4.958   3.749   3.096 -0.0673 -0.2419 -0.3938
 4841TIP3    H135938   4.903   3.750   3.174  0.2989  1.4063 -0.1036
 4841TIP3    H235939   5.028   3.688   3.116 -0.2880 -0.2594  0.3465
 4842TIP3   OH235940   3.276   5.309  11.544 -0.6759 -0.1749  0.1891
 4842TIP3    H135941   3.182   5.320  11.532 -0.8375 -0.6887  0.9316
 4842TIP3    H235942   3.316   5.367  11.479 -1.5077 -2.2349 -2.3623
 4843TIP3   OH235943   5.933   6.209   6.471  0.4515  0.8323 -0.1306
 4843TIP3    H135944   5.969   6.229   6.385 -0.2865  1.0261 -0.4064
 4843TIP3    H235945   5.848   6.254   6.472  0.9539  1.8249  1.1381
 4844TIP3   OH235946   5.260   4.984  16.578 -0.0689  0.1536  0.5506
 4844TIP3    H135947   5.173   4.961  16.545 -0.8393  0.1931  2.4079
 4844TIP3    H235948   5.244   5.057  16.638  1.3397  0.5491  0.4709
 4845TIP3   OH235949   1.791   3.972   0.707 -0.5404  0.3627  0.2421
 4845TIP3    H135950   1.792   3.907   0.776  2.6567 -0.6558 -0.5820
 4845TIP3    H235951   1.764   3.924   0.629 -1.5074  0.8749  0.2451
 4846TIP3   OH235952   0.959   3.465  11.365 -0.2480  0.1423  0.6868
 4846TIP3    H135953   0.976   3.500  11.452  0.8278 -0.6125  0.8029
 4846TIP3    H235954   1.046   3.453  11.327 -0.6200 -1.2148  0.1924
 4847TIP3   OH235955   3.933   5.618  16.164  0.2602 -0.3465  0.2590
 4847TIP3    H135956   3.892   5.704  16.152 -0.7067 -0.9580 -1.0012
 4847TIP3    H235957   4.017   5.625  16.119 -0.2879 -0.3853 -0.7865
 4848TIP3   OH235958   5.942   5.651   1.061 -0.8651 -0.5495  0.4882
 4848TIP3    H135959   5.887   5.581   1.027  0.8762 -1.1322 -1.3272
 4848TIP3    H235960   6.001   5.672   0.988 -0.8480  2.3098  1.2293
 4849TIP3   OH235961   3.849   5.247   0.254  0.0757 -0.1685  0.0757
 4849TIP3    H135962   3.927   5.200   0.227  2.0490  2.4671  0.8281
 4849TIP3    H235963   3.880   5.316   0.313 -3.0242 -0.1047  1.9093
 4850TIP3   OH235964   5.683   1.407  15.729  0.5838 -0.0248 -0.1027
 4850TIP3    H135965   5.668   1.393  15.823 -0.0864  0.5610 -0.1169
 4850TIP3    H235966   5.725   1.492  15.724 -0.6671  0.6045 -0.4164
 4851TIP3   OH235967   3.291   3.646  14.142  0.2243  0.0966  0.1119
 4851TIP3    H135968   3.240   3.573  14.107 -0.1469 -0.3662  1.5291
 4851TIP3    H235969   3.364   3.604  14.189 -0.6869  0.5216  2.0260
 4852TIP3   OH235970   6.282   2.090  15.517 -0.1937 -0.6620  0.1289
 4852TIP3    H135971   6.287   2.185  15.506 -1.1457 -0.5767  0.2782
 4852TIP3    H235972   6.281   2.056  15.427 -0.4316 -0.4827  0.0611
 4853TIP3   OH235973   1.748   2.685   1.725  0.6455 -0.6299  0.5983
 4853TIP3    H135974   1.763   2.591   1.717  1.0710 -0.5741  0.7116
 4853TIP3    H235975   1.783   2.708   1.811  1.9054 -0.1194 -0.0153
 4854TIP3   OH235976   3.928   4.306   3.610  0.0487  0.0316  0.4470
 4854TIP3    H135977   3.986   4.252   3.555  1.0013 -2.6176  3.7372
 4854TIP3    H235978   3.967   4.394   3.607  1.9209 -0.7632 -0.5578
 4855TIP3   OH235979   1.535   2.645  13.603  0.1363 -0.1959 -0.1055
 4855TIP3    H135980   1.495   2.633  13.689  0.9126 -2.5670 -0.0022
 4855TIP3    H235981   1.462   2.654  13.542 -0.4510 -0.3458  0.5727
 4856TIP3   OH235982   0.454   0.810  14.872 -0.0379 -0.1900 -0.0784
 4856TIP3    H135983   0.525   0.812  14.937 -1.5687 -1.6708  1.7437
 4856TIP3    H235984   0.499   0.799  14.789  2.0912  2.8025  0.4950
 4857TIP3   OH235985   0.472   6.557  16.265  0.0237  0.2955  0.8909
 4857TIP3    H135986   0.527   6.624  16.306  0.7586  0.0352  0.3636
 4857TIP3    H235987   0.458   6.589  16.176 -0.7267  0.3776  1.0340
 4858TIP3   OH235988   0.173   3.702  13.160  0.6476 -0.7947  0.7359
 4858TIP3    H135989   0.135   3.738  13.079 -1.1871 -1.1363  1.3916
 4858TIP3    H235990   0.267   3.701  13.144  0.3150 -1.2882 -1.5759
 4859TIP3   OH235991   4.481   1.971   1.776  0.5975  0.2529  0.5266
 4859TIP3    H135992   4.444   2.042   1.828  2.6508 -0.1960  2.7981
 4859TIP3    H235993   4.524   2.014   1.702 -0.6299  1.0963  0.2767
 4860TIP3   OH235994   2.280   3.929  16.384 -0.2299  0.4657 -0.7149
 4860TIP3    H135995   2.257   3.882  16.464 -0.1022 -0.2851 -1.1188
 4860TIP3    H235996   2.209   3.992  16.372 -0.5776  0.1432 -0.3655
 4861TIP3   OH235997   3.568   2.806  13.551  0.3161  0.3252 -0.5571
 4861TIP3    H135998   3.546   2.890  13.509 -0.5345  1.1001  1.3316
 4861TIP3    H235999   3.654   2.821  13.590  0.3233  0.1828 -0.5188
 4862TIP3   OH236000   4.542   2.701  11.471 -0.2202 -0.4734 -0.1758
 4862TIP3    H136001   4.492   2.641  11.417  1.5317 -0.7904 -1.5274
 4862TIP3    H236002   4.485   2.719  11.546 -1.6786 -2.0268 -0.8523
 4863TIP3   OH236003   4.881   3.628  15.472  0.0041 -0.2961 -0.2297
 4863TIP3    H136004   4.955   3.615  15.531  0.4561 -1.3328 -0.9993
 4863TIP3    H236005   4.805   3.631  15.530  0.2480 -3.0257  0.3336
 4864TIP3   OH236006   5.858   5.923   6.001  0.6195  0.5311  0.2716
 4864TIP3    H136007   5.891   5.974   5.927 -0.0850  1.4648  0.5828
 4864TIP3    H236008   5.916   5.945   6.074  1.1226 -0.1487  0.0853
 4865TIP3   OH236009   0.686   3.388   5.265 -0.5008  0.4198  0.1505
 4865TIP3    H136010   0.735   3.470   5.257  0.2346 -0.1169 -1.0713
 4865TIP3    H236011   0.750   3.320   5.246 -1.5822 -0.3307 -0.9281
 4866TIP3   OH236012   2.055   3.745  17.209  0.0785 -0.0725  0.2046
 4866TIP3    H136013   2.151   3.744  17.216  0.0613 -0.8173  0.4301
 4866TIP3    H236014   2.025   3.731  17.299 -0.2390  0.0404  0.1132
 4867TIP3   OH236015   5.351   0.733   5.910  0.1849  0.3616 -0.3824
 4867TIP3    H136016   5.445   0.714   5.917 -0.4014 -3.0094 -0.1643
 4867TIP3    H236017   5.328   0.773   5.994  1.2030  0.2371 -0.0329
 4868TIP3   OH236018   4.562   1.409   2.577  0.0454  0.3798 -0.7560
 4868TIP3    H136019   4.518   1.397   2.492  0.4641  0.7009 -1.0193
 4868TIP3    H236020   4.530   1.493   2.609 -0.1146  0.2572 -0.5936
 4869TIP3   OH236021   0.249   3.143   3.077 -0.1720  0.1756 -0.0592
 4869TIP3    H136022   0.270   3.174   3.166 -0.0366  2.5736 -0.8400
 4869TIP3    H236023   0.154   3.134   3.076 -0.2140  0.5463  0.2306
 4870TIP3   OH236024   4.194   2.115   1.633  0.0449  0.8895 -0.5683
 4870TIP3    H136025   4.239   2.191   1.595  1.5099  1.0011  1.2659
 4870TIP3    H236026   4.214   2.043   1.573  0.4984  1.5026 -1.1685
 4871TIP3   OH236027   4.247   2.558   5.019 -0.0944  0.1410 -0.0184
 4871TIP3    H136028   4.229   2.542   5.111 -0.5719 -0.6749 -0.2487
 4871TIP3    H236029   4.295   2.481   4.990  1.3155  1.0055 -0.1246
 4872TIP3   OH236030   1.747   5.473  16.937 -0.2032  0.1706 -0.2799
 4872TIP3    H136031   1.830   5.487  16.893 -0.8651 -0.3687 -1.7958
 4872TIP3    H236032   1.684   5.524  16.886 -1.7842 -3.8843 -2.8875
 4873TIP3   OH236033   0.859   0.116   0.072 -0.6097  0.1994 -0.3070
 4873TIP3    H136034   0.910   0.092   0.149 -0.2906 -2.4241 -1.2132
 4873TIP3    H236035   0.922   0.154   0.012 -0.6457  1.2069  0.2709
 4874TIP3   OH236036   0.673   0.513  11.602 -0.2911  0.6665 -0.1485
 4874TIP3    H136037   0.739   0.549  11.542 -0.3091  0.4751 -0.2801
 4874TIP3    H236038   0.592   0.513  11.552 -0.0654 -0.6491 -0.5490
 4875TIP3   OH236039   4.642   6.709   2.935  0.1327 -0.4187 -0.1181
 4875TIP3    H136040   4.570   6.677   2.881  0.2202 -0.9223  0.0512
 4875TIP3    H236041   4.677   6.630   2.977  0.7725 -0.1825 -0.1896
 4876TIP3   OH236042   0.725   5.335   6.336 -0.0458 -0.3779  0.0185
 4876TIP3    H136043   0.684   5.322   6.422  0.5879 -0.4807  0.3201
 4876TIP3    H236044   0.817   5.350   6.357  0.1195 -0.4456 -0.6505
 4877TIP3   OH236045   0.663   4.465   0.944  0.1178  0.5411  0.8298
 4877TIP3    H136046   0.611   4.454   0.864  0.2954  0.9179  0.6610
 4877TIP3    H236047   0.679   4.375   0.974  0.8169  0.3512 -0.0540
 4878TIP3   OH236048   0.110   6.140   3.606  0.3854 -0.5748  0.3421
 4878TIP3    H136049   0.088   6.098   3.523  0.4272 -0.0168  0.0424
 4878TIP3    H236050   0.156   6.073   3.656 -0.2000 -1.1129  0.1678
 4879TIP3   OH236051   0.005   5.719   1.778  0.3695 -0.2441  0.0936
 4879TIP3    H136052   0.078   5.656   1.777 -0.8610 -1.8034  1.5568
 4879TIP3    H236053   0.020   5.772   1.855 -1.1559 -2.0910  1.7651
 4880TIP3   OH236054   1.746   0.583  10.858 -0.5021 -0.2487  0.1743
 4880TIP3    H136055   1.784   0.503  10.823 -2.0896  0.2319 -2.9624
 4880TIP3    H236056   1.819   0.644  10.864  0.2742 -1.1672  0.1803
 4881TIP3   OH236057   5.536   1.217  10.854 -0.0573  0.6866 -0.4634
 4881TIP3    H136058   5.503   1.129  10.873  3.1012 -0.8069 -1.3182
 4881TIP3    H236059   5.501   1.236  10.767  2.1811 -1.4728 -1.9885
 4882TIP3   OH236060   6.260   1.210  12.520  0.0024  0.4975 -0.1720
 4882TIP3    H136061   6.250   1.164  12.437 -2.0861  4.5849 -2.5182
 4882TIP3    H236062   6.335   1.268  12.506 -1.4459  2.5013  0.0183
 4883TIP3   OH236063   0.044   6.732   5.722  0.5757  0.4006  0.5603
 4883TIP3    H136064   0.074   6.663   5.781 -0.0792 -0.7634 -0.4202
 4883TIP3    H236065  -0.049   6.741   5.742  0.8837  1.8443  1.4802
 4884TIP3   OH236066   4.482   5.221  12.017  0.4630 -0.4003 -0.0045
 4884TIP3    H136067   4.471   5.264  11.932  0.6566  0.0522  0.1991
 4884TIP3    H236068   4.424   5.145  12.013 -1.1828  0.7928  0.2661
 4885TIP3   OH236069   0.944   3.374   1.076 -0.0060  0.3960  0.7934
 4885TIP3    H136070   0.912   3.287   1.051 -1.1263  0.8256  0.6852
 4885TIP3    H236071   1.026   3.357   1.122  0.3866 -0.6392 -0.2359
 4886TIP3   OH236072   4.055   5.688  12.034 -0.2982 -0.3673  0.3632
 4886TIP3    H136073   4.048   5.707  11.940  1.4862 -1.5138 -0.0523
 4886TIP3    H236074   4.083   5.770  12.073 -0.1252 -0.1215 -0.2614
 4887TIP3   OH236075   4.029   5.566  11.488 -0.4895  0.0691  0.0068
 4887TIP3    H136076   3.957   5.570  11.426 -0.8490 -0.0254  0.4177
 4887TIP3    H236077   3.988   5.578  11.573 -0.1861 -1.2515  0.3561
 4888TIP3   OH236078   3.830   6.747  10.566 -0.1168  0.0927 -0.6285
 4888TIP3    H136079   3.876   6.665  10.549  0.8123  0.3664  0.4024
 4888TIP3    H236080   3.900   6.808  10.590 -0.9746  0.6889  0.3996
 4889TIP3   OH236081   5.905   0.863  12.164  0.4821 -0.3126 -0.0101
 4889TIP3    H136082   5.985   0.824  12.127 -1.0898 -2.6720 -1.2051
 4889TIP3    H236083   5.884   0.936  12.106  0.7893 -0.8345 -0.7951
 4890TIP3   OH236084   4.259   2.404  10.795  0.6533  0.2526  0.3790
 4890TIP3    H136085   4.194   2.336  10.813  0.7466  0.4989  1.7122
 4890TIP3    H236086   4.207   2.484  10.783  0.4528 -0.1538 -2.1963
 4891TIP3   OH236087   1.331   1.150   6.276 -0.2050  0.4397 -0.6680
 4891TIP3    H136088   1.273   1.208   6.325 -1.0998 -0.0306 -1.1350
 4891TIP3    H236089   1.391   1.114   6.342 -2.0463 -1.0084  0.3250
 4892TIP3   OH236090   5.000   2.125  15.732 -0.5680  0.2692  0.2342
 4892TIP3    H136091   5.069   2.080  15.682  0.0027 -0.4996  1.6704
 4892TIP3    H236092   5.007   2.089  15.820 -2.7072  0.3080  0.4673
 4893TIP3   OH236093   4.797   3.153  17.146  0.1487 -0.4266 -0.2086
 4893TIP3    H136094   4.746   3.225  17.183  1.0030  0.0992 -0.0254
 4893TIP3    H236095   4.771   3.150  17.054 -1.1719 -1.0266  0.1598
 4894TIP3   OH236096   4.898   3.676   2.683  0.0854  0.3998  0.1154
 4894TIP3    H136097   4.935   3.590   2.701 -1.9864 -0.9198 -1.4237
 4894TIP3    H236098   4.969   3.724   2.640  0.4680 -1.6143 -1.6907
 4895TIP3   OH236099   3.270   2.572   1.904 -0.3568 -0.5115 -0.3514
 4895TIP3    H136100   3.289   2.662   1.879  2.1802 -0.8529  0.0593
 4895TIP3    H236101   3.305   2.519   1.833 -0.2985 -1.2084  0.1779
 4896TIP3   OH236102   0.609   3.981   6.044 -0.2420  0.2219  0.4651
 4896TIP3    H136103   0.615   3.978   6.139 -1.2482 -0.7332  0.5203
 4896TIP3    H236104   0.515   3.986   6.025 -0.0628  0.3343 -0.4706
 4897TIP3   OH236105   0.324   3.536   5.176  0.0880  0.2439  0.2653
 4897TIP3    H136106   0.283   3.539   5.090  0.0430  0.7329  0.3038
 4897TIP3    H236107   0.255   3.506   5.235  0.4045 -1.1567 -0.0335
 4898TIP3   OH236108   1.921   4.246  12.576  0.0009 -0.0990  0.0484
 4898TIP3    H136109   1.876   4.163  12.559 -2.5367  1.2945 -0.6357
 4898TIP3    H236110   1.899   4.301  12.501 -0.2956  1.8971  1.5091
 4899TIP3   OH236111   1.402   3.530  10.873 -0.5145  0.2258 -0.5163
 4899TIP3    H136112   1.421   3.599  10.809  1.1638  0.5167  0.2417
 4899TIP3    H236113   1.309   3.511  10.861 -0.4092  0.7991 -2.5054
 4900TIP3   OH236114   4.371   5.733  16.835 -0.5894  0.0981  0.6071
 4900TIP3    H136115   4.452   5.769  16.872 -0.4738 -0.7716  1.2331
 4900TIP3    H236116   4.324   5.698  16.910 -1.8072  1.0355  0.3245
 4901TIP3   OH236117   2.845   5.713  11.449 -0.0550  0.2988 -0.0305
 4901TIP3    H136118   2.904   5.665  11.392  0.9278  0.7933  0.5245
 4901TIP3    H236119   2.882   5.802  11.452 -0.1217  0.3067  1.2759
 4902TIP3   OH236120   2.982   3.072   4.297  0.1852 -0.1834 -0.2033
 4902TIP3    H136121   3.041   3.133   4.340  0.5926 -1.7009  1.5309
 4902TIP3    H236122   2.903   3.071   4.351  0.5161 -1.7610  0.3275
 4903TIP3   OH236123   2.385   5.374  12.558  0.2800 -0.0911 -0.1151
 4903TIP3    H136124   2.432   5.413  12.484 -0.7886  0.8301 -0.3336
 4903TIP3    H236125   2.409   5.429  12.633 -0.8901  0.7742 -0.3433
 4904TIP3   OH236126   1.573   2.170  12.734 -0.6024  0.6050  0.1998
 4904TIP3    H136127   1.568   2.142  12.826  2.7705  0.3015  0.4186
 4904TIP3    H236128   1.663   2.201  12.723 -0.9111  0.7103 -3.0114
 4905TIP3   OH236129   0.508   4.158   4.183 -0.1798  0.8506 -0.3100
 4905TIP3    H136130   0.500   4.075   4.136  1.9305  0.4615 -0.0646
 4905TIP3    H236131   0.521   4.223   4.113  0.5614  0.6132 -0.4036
 4906TIP3   OH236132   2.766   6.282  13.347  0.1431  0.3797  0.0875
 4906TIP3    H136133   2.717   6.351  13.302 -0.9220 -1.2644 -1.4022
 4906TIP3    H236134   2.858   6.306  13.335 -0.1945  1.4386 -0.5264
 4907TIP3   OH236135   0.833   1.022   4.504 -0.8323 -0.3217 -0.5961
 4907TIP3    H136136   0.894   1.023   4.430  0.3900  0.4993  0.3805
 4907TIP3    H236137   0.888   1.042   4.580 -2.0215 -1.3845  0.5711
 4908TIP3   OH236138   3.644   1.069   2.694  0.0129  0.3845 -0.1333
 4908TIP3    H136139   3.557   1.031   2.703 -0.1939  0.7905 -0.4351
 4908TIP3    H236140   3.653   1.126   2.771 -0.7970  1.9359 -1.1347
 4909TIP3   OH236141   6.159   2.081  15.955  0.5445  0.0386 -0.1043
 4909TIP3    H136142   6.204   2.015  15.903  4.2965  0.6270  2.0040
 4909TIP3    H236143   6.152   2.042  16.042 -0.4524  1.1168  0.3244
 4910TIP3   OH236144   4.017   1.873  14.173 -0.0197 -0.5590  0.1246
 4910TIP3    H136145   3.986   1.886  14.084  0.2262  0.3771  0.1611
 4910TIP3    H236146   4.011   1.779  14.188  2.4590 -1.0982 -1.7808
 4911TIP3   OH236147   1.453   2.603   2.351 -0.3615  0.0459 -0.1268
 4911TIP3    H136148   1.425   2.512   2.343 -1.1903  0.2498  0.2483
 4911TIP3    H236149   1.524   2.601   2.415  0.3792 -0.4655 -0.9424
 4912TIP3   OH236150   2.081   2.889  13.125 -0.0237  0.2971  0.2818
 4912TIP3    H136151   2.139   2.813  13.130  0.6579  0.7587 -0.3059
 4912TIP3    H236152   2.090   2.932  13.210  0.7177  0.5155  0.0984
 4913TIP3   OH236153   5.495   5.377   4.048  0.1228  0.0781  0.2837
 4913TIP3    H136154   5.469   5.350   3.960 -1.1684 -0.8066  0.9085
 4913TIP3    H236155   5.569   5.320   4.070 -1.3849 -1.7806  0.8537
 4914TIP3   OH236156   5.159   3.409  16.363  0.4265  0.7129  0.4737
 4914TIP3    H136157   5.122   3.331  16.323 -0.6406  1.1803  0.5275
 4914TIP3    H236158   5.253   3.403  16.346  0.2812 -0.3052  0.0147
 4915TIP3   OH236159   3.535   6.283   1.019 -0.2123 -0.0715 -0.8258
 4915TIP3    H136160   3.485   6.344   0.965  1.1662  2.1694  0.3319
 4915TIP3    H236161   3.558   6.332   1.098  0.3836 -2.3112  0.4866
 4916TIP3   OH236162   6.359   3.077   1.797  0.0146 -1.0575  0.0308
 4916TIP3    H136163   6.403   3.111   1.875  1.2622 -2.7859  0.1280
 4916TIP3    H236164   6.275   3.046   1.829 -0.7162  0.8838  0.1226
 4917TIP3   OH236165   2.964   6.157   0.468 -0.1738  0.3581  0.0186
 4917TIP3    H136166   2.950   6.151   0.562 -0.6486  0.9269 -0.0104
 4917TIP3    H236167   3.056   6.133   0.456 -0.1988 -0.0336  0.5901
 4918TIP3   OH236168   0.469   4.310  14.892  0.2656  0.0053  0.1589
 4918TIP3    H136169   0.454   4.377  14.958  0.9297  0.0465  0.2750
 4918TIP3    H236170   0.429   4.231  14.928 -0.8610  0.4071 -0.1460
 4919TIP3   OH236171   4.968   6.345   2.192  0.2801  0.6836 -0.1866
 4919TIP3    H136172   4.874   6.333   2.179  0.1482  1.3472  0.1232
 4919TIP3    H236173   5.006   6.260   2.171 -0.5302 -0.0274  1.1092
 4920TIP3   OH236174   1.652   4.224  10.242  0.1820 -0.0123  0.3658
 4920TIP3    H136175   1.745   4.211  10.261  0.6055  0.8267 -1.0282
 4920TIP3    H236176   1.629   4.304  10.288  0.0236 -0.4424  1.0538
 4921TIP3   OH236177   4.537   3.532  15.876 -0.1136  1.0299 -0.6075
 4921TIP3    H136178   4.583   3.568  15.951  2.2759  0.6599 -1.7908
 4921TIP3    H236179   4.578   3.575  15.800 -1.0825 -0.0308 -1.7735
 4922TIP3   OH236180   4.585   6.357   4.539 -0.0479  0.2250  0.4692
 4922TIP3    H136181   4.502   6.390   4.504  0.0224 -1.8934 -2.0628
 4922TIP3    H236182   4.561   6.312   4.620 -1.3795 -0.1363 -0.1010
 4923TIP3   OH236183   6.596   3.221   1.412 -0.1889  0.6871 -0.4707
 4923TIP3    H136184   6.633   3.255   1.493  1.5698 -2.2507  0.1049
 4923TIP3    H236185   6.507   3.196   1.434  0.6170 -1.1202  0.9759
 4924TIP3   OH236186   6.006   0.434  12.508  0.3068  0.8077 -0.7588
 4924TIP3    H136187   6.024   0.464  12.419  0.9168 -0.6598 -1.1558
 4924TIP3    H236188   6.075   0.475  12.561 -0.0521  1.6761 -0.9334
 4925TIP3   OH236189   0.627   2.576  16.055  0.2460  0.7041 -0.3699
 4925TIP3    H136190   0.599   2.569  16.146  1.2433 -0.7396 -0.1377
 4925TIP3    H236191   0.723   2.582  16.059  0.2332  2.0643 -1.2751
 4926TIP3   OH236192   4.055   1.328  16.909 -0.3004  0.7716 -0.1889
 4926TIP3    H136193   4.053   1.292  16.821 -0.6478 -0.3848  0.2767
 4926TIP3    H236194   4.054   1.251  16.967 -0.5789  1.5166  0.8276
 4927TIP3   OH236195   0.627   4.368  12.761  0.4465 -0.5980  0.3004
 4927TIP3    H136196   0.547   4.327  12.792  0.2011 -0.1330  0.2983
 4927TIP3    H236197   0.609   4.391  12.670  1.0964 -1.7861 -0.1429
 4928TIP3   OH236198   3.158   1.911  10.748  0.6697  0.1252  0.5505
 4928TIP3    H136199   3.139   1.821  10.724  1.8612  0.2273 -0.9199
 4928TIP3    H236200   3.175   1.955  10.665 -0.2850  1.8187  1.2088
 4929TIP3   OH236201   5.972   4.161  14.394  0.6384  0.0710  0.3993
 4929TIP3    H136202   5.960   4.066  14.390  2.0708 -0.1101 -0.0503
 4929TIP3    H236203   6.035   4.180  14.324  0.6996  1.2966  0.7737
 4930TIP3   OH236204   2.142   1.123   5.567 -0.1292  0.4381 -0.5749
 4930TIP3    H136205   2.182   1.194   5.618  0.1548 -0.1287 -0.0073
 4930TIP3    H236206   2.051   1.150   5.557 -1.6834 -1.6795  4.5840
 4931TIP3   OH236207   5.469   1.899  12.213  0.0473  0.0147  0.0096
 4931TIP3    H136208   5.498   1.827  12.157  0.1704 -0.5136  0.7369
 4931TIP3    H236209   5.383   1.923  12.178 -0.5910 -1.3687  0.5394
 4932TIP3   OH236210   5.786   4.969   3.406 -0.3894  0.5382 -0.2886
 4932TIP3    H136211   5.719   4.901   3.411 -0.3521  0.4526 -0.8965
 4932TIP3    H236212   5.864   4.930   3.445 -0.5990  0.5178  0.1067
 4933TIP3   OH236213   2.919   5.608   1.401  0.7768 -0.2336  0.4739
 4933TIP3    H136214   2.950   5.665   1.330  2.5261 -1.1084  0.4974
 4933TIP3    H236215   2.934   5.659   1.481  0.0455  0.2192  0.3360
 4934TIP3   OH236216   2.394   1.223   1.514  0.6856 -0.0658  0.2281
 4934TIP3    H136217   2.382   1.282   1.589 -1.0455 -0.4689  0.3280
 4934TIP3    H236218   2.488   1.216   1.503  0.9995 -0.2357  2.5768
 4935TIP3   OH236219   0.053   1.325   0.339  0.8735 -0.7335  0.3911
 4935TIP3    H136220   0.103   1.271   0.399 -0.4867 -0.4700  1.8228
 4935TIP3    H236221   0.060   1.414   0.374 -0.1925 -0.6202  0.3718
 4936TIP3   OH236222   2.585   5.038   6.270 -0.1262 -0.2226  0.3436
 4936TIP3    H136223   2.663   5.074   6.311  0.9124  0.0596 -1.7229
 4936TIP3    H236224   2.592   4.943   6.284  0.6663 -0.2114  0.0569
 4937TIP3   OH236225   4.354   6.687  13.988 -0.6293 -0.3773 -0.1987
 4937TIP3    H136226   4.374   6.772  14.029 -0.7271  0.0102 -0.9331
 4937TIP3    H236227   4.325   6.710  13.900 -1.3438 -1.1360 -0.1688
 4938TIP3   OH236228   5.236   6.542  12.667 -0.7916 -0.0343 -0.1497
 4938TIP3    H136229   5.313   6.580  12.624 -0.7136 -1.6976 -1.5860
 4938TIP3    H236230   5.167   6.606  12.653 -0.1416  0.5994 -0.5539
 4939TIP3   OH236231   2.409   5.725  13.791 -0.2122  0.0251 -0.1581
 4939TIP3    H136232   2.429   5.676  13.711  0.4437  0.6298 -0.3804
 4939TIP3    H236233   2.321   5.759  13.777 -1.3312 -2.3192  0.6376
 4940TIP3   OH236234   1.972   5.800   1.234  0.2088 -0.3841  0.1467
 4940TIP3    H136235   1.940   5.817   1.322  0.9563  0.9122  0.2022
 4940TIP3    H236236   2.019   5.880   1.210 -1.9149  0.2642 -2.3420
 4941TIP3   OH236237   1.882   1.310   3.233 -0.1522  0.9601 -0.9627
 4941TIP3    H136238   1.827   1.315   3.154 -1.0152  0.2905 -0.4169
 4941TIP3    H236239   1.820   1.314   3.306  0.4360 -0.6099 -0.3347
 4942TIP3   OH236240   1.755   0.547  12.774 -0.6414  0.3681  0.3609
 4942TIP3    H136241   1.833   0.563  12.720 -0.5848  1.0034  0.6292
 4942TIP3    H236242   1.773   0.592  12.856 -0.8517 -0.3650  0.8108
 4943TIP3   OH236243   0.315   6.772  10.833  0.5414  0.1498 -0.3044
 4943TIP3    H136244   0.317   6.867  10.828  0.7248  0.1879  0.4047
 4943TIP3    H236245   0.298   6.743  10.743  1.0615  0.8301 -0.6260
 4944TIP3   OH236246   6.628   0.360  12.466 -0.0289 -0.4503  0.3842
 4944TIP3    H136247   6.676   0.443  12.453 -0.2373 -0.3243  0.4128
 4944TIP3    H236248   6.536   0.386  12.465 -0.1688 -0.8921 -1.2501
 4945TIP3   OH236249   0.631   2.374  12.663  0.2466 -0.7918 -0.1838
 4945TIP3    H136250   0.689   2.410  12.731  1.7080 -1.5369 -0.9722
 4945TIP3    H236251   0.669   2.406  12.581 -0.7672 -0.9129 -0.7064
 4946TIP3   OH236252   4.880   1.879   3.624 -0.3505  0.0600 -0.2368
 4946TIP3    H136253   4.919   1.961   3.651 -1.2343  1.0563 -1.7829
 4946TIP3    H236254   4.902   1.872   3.531  0.9133 -2.1920  0.1681
 4947TIP3   OH236255   1.565   6.114   6.250 -0.4046 -0.4062 -0.4928
 4947TIP3    H136256   1.528   6.119   6.162 -2.0762  2.2100  0.2397
 4947TIP3    H236257   1.534   6.031   6.284 -1.1786 -0.6715 -1.7648
 4948TIP3   OH236258   5.200   1.010   0.758 -0.1147  0.2143 -0.2957
 4948TIP3    H136259   5.251   0.966   0.689 -1.7945 -0.2880 -1.2712
 4948TIP3    H236260   5.186   1.099   0.724 -0.1302  0.2641 -0.1592
 4949TIP3   OH236261   3.651   0.794   3.750 -0.1342  1.1231 -0.1218
 4949TIP3    H136262   3.721   0.854   3.779 -0.7812  1.2657  1.2062
 4949TIP3    H236263   3.574   0.823   3.799 -0.5665 -0.5148  0.1985
 4950TIP3   OH236264   1.946   0.576  17.233  0.0849  0.0628 -0.7897
 4950TIP3    H136265   1.988   0.622  17.306  1.3116 -1.5358 -0.4338
 4950TIP3    H236266   1.886   0.641  17.196 -1.8458  0.4884  2.6175
 4951TIP3   OH236267   1.449   0.938   1.894 -0.2357 -0.1198  0.4712
 4951TIP3    H136268   1.361   0.975   1.891 -0.4850 -0.5590  1.6415
 4951TIP3    H236269   1.469   0.913   1.804 -1.9215 -1.4177  0.4267
 4952TIP3   OH236270   4.516   5.575   0.461 -0.0578  0.1146  0.1104
 4952TIP3    H136271   4.446   5.589   0.525  1.1085  1.1111  1.2272
 4952TIP3    H236272   4.584   5.529   0.509  0.4181 -0.0781 -0.7190
 4953TIP3   OH236273   0.259   4.801   2.333 -0.0900 -0.4070  0.1641
 4953TIP3    H136274   0.171   4.769   2.313 -0.5819 -0.0822  1.6722
 4953TIP3    H236275   0.305   4.726   2.370 -0.3193 -0.1421  1.0175
 4954TIP3   OH236276   2.707   0.275   3.700 -0.7819 -0.1475  0.0674
 4954TIP3    H136277   2.659   0.358   3.698 -1.2370 -0.3897  0.5517
 4954TIP3    H236278   2.773   0.284   3.632  0.0593  1.1411  0.9862
 4955TIP3   OH236279   3.062   1.224  11.299  0.0909  0.0281  0.6314
 4955TIP3    H136280   3.132   1.282  11.269  0.0266  0.7438  1.7708
 4955TIP3    H236281   2.989   1.242  11.240  0.4591  0.2126  0.2266
 4956TIP3   OH236282   5.114   3.507  16.037  0.0569 -0.2489  0.1033
 4956TIP3    H136283   5.131   3.581  15.978 -0.4374 -0.9588 -0.9607
 4956TIP3    H236284   5.201   3.471  16.055  0.2384  0.1702  0.0815
 4957TIP3   OH236285   2.929   4.331  15.436  0.0929  0.0814 -0.1620
 4957TIP3    H136286   2.835   4.327  15.417 -0.1888  3.0280  0.1122
 4957TIP3    H236287   2.962   4.398  15.375  1.3308  1.5182  1.9625
 4958TIP3   OH236288   6.248   3.915  16.049  0.6997  0.4617  0.4188
 4958TIP3    H136289   6.215   3.839  16.098 -0.6076  0.2420 -0.7404
 4958TIP3    H236290   6.175   3.977  16.049 -0.0580 -0.2635 -2.6994
 4959TIP3   OH236291   4.638   2.045   2.219 -0.2383 -0.1141  0.8332
 4959TIP3    H136292   4.728   2.040   2.252 -0.0329  1.3018  0.5390
 4959TIP3    H236293   4.648   2.048   2.124 -0.7436 -2.4682  0.6531
 4960TIP3   OH236294   4.196   1.271  15.218  0.3682 -0.3930 -0.3909
 4960TIP3    H136295   4.151   1.353  15.197  0.7080  0.2653  1.3272
 4960TIP3    H236296   4.202   1.226  15.134  1.3570  1.9365 -1.6803
 4961TIP3   OH236297   0.339   0.190  16.646  0.1283 -0.3863 -0.2738
 4961TIP3    H136298   0.275   0.250  16.609  0.6976  0.9905  0.8723
 4961TIP3    H236299   0.288   0.118  16.682 -0.7583  0.5833  0.4323
 4962TIP3   OH236300   1.890   3.998   4.493 -0.0327 -0.1299 -0.1211
 4962TIP3    H136301   1.799   3.970   4.480 -0.4734  1.4110 -0.6164
 4962TIP3    H236302   1.882   4.086   4.532  1.2570 -0.4182  0.8605
 4963TIP3   OH236303   4.004   2.203   4.341  0.1674  0.4278 -0.3442
 4963TIP3    H136304   4.089   2.227   4.378 -0.2029  0.4091  0.5261
 4963TIP3    H236305   4.005   2.108   4.338  0.0216  0.4134  0.0405
 4964TIP3   OH236306   4.516   0.155  17.165 -0.3578 -0.6580  0.0678
 4964TIP3    H136307   4.575   0.220  17.202  0.4297 -2.1084  1.4970
 4964TIP3    H236308   4.436   0.162  17.218  0.4255 -2.0860  1.5428
 4965TIP3   OH236309   4.701   4.470  10.824  0.1669 -0.6139  0.2888
 4965TIP3    H136310   4.734   4.380  10.827  1.5730 -0.1205  0.6608
 4965TIP3    H236311   4.729   4.508  10.908  1.0559  0.6375 -0.5380
 4966TIP3   OH236312   5.151   1.092  12.145  0.0486  0.0303  0.1787
 4966TIP3    H136313   5.062   1.109  12.173  0.5237  0.9271  1.1959
 4966TIP3    H236314   5.161   0.997  12.152 -1.3316 -0.2924 -1.5905
 4967TIP3   OH236315   2.372   1.023  15.710 -0.2571 -0.2469 -0.2686
 4967TIP3    H136316   2.331   1.080  15.776 -1.1928 -2.2968  1.0354
 4967TIP3    H236317   2.311   1.023  15.637 -0.8663 -0.5276  0.2306
 4968TIP3   OH236318   4.407   2.557   0.955 -0.2395 -0.4076 -0.7096
 4968TIP3    H136319   4.383   2.560   1.047  0.0164 -1.0234 -0.6168
 4968TIP3    H236320   4.342   2.612   0.911  0.2300  0.7190 -0.0407
 4969TIP3   OH236321   0.100   5.279  14.645  0.4529  0.3893 -0.2402
 4969TIP3    H136322   0.065   5.349  14.591 -1.5755  0.5964  1.2268
 4969TIP3    H236323   0.092   5.200  14.592 -0.3705  0.7708 -0.7007
 4970TIP3   OH236324   3.971   0.843   5.163  0.2450  0.6082  0.1626
 4970TIP3    H136325   3.910   0.794   5.107 -1.4855  2.2826  0.4888
 4970TIP3    H236326   4.036   0.879   5.102 -1.4617  2.1845 -0.8414
 4971TIP3   OH236327   1.121   5.534  16.617 -0.3541  0.1723  0.7821
 4971TIP3    H136328   1.042   5.530  16.563  0.5314  1.8471 -0.7380
 4971TIP3    H236329   1.090   5.557  16.704 -1.6526 -0.6839  0.5723
 4972TIP3   OH236330   4.288   6.093   1.046 -0.6739 -0.7029  0.0544
 4972TIP3    H136331   4.336   6.176   1.049 -1.1556 -0.4418  0.7908
 4972TIP3    H236332   4.357   6.026   1.049 -0.3100 -0.3309  0.1297
 4973TIP3   OH236333   1.398   4.447   1.235  0.2517  0.2371 -0.1933
 4973TIP3    H136334   1.485   4.412   1.255  0.9975  2.2494  0.3030
 4973TIP3    H236335   1.406   4.483   1.146 -0.3279 -0.3134 -0.4766
 4974TIP3   OH236336   3.214   3.547   5.764  0.3732  0.2942  0.2312
 4974TIP3    H136337   3.306   3.521   5.772  0.3315  0.7027  2.9767
 4974TIP3    H236338   3.193   3.588   5.848 -2.0851  1.0237 -0.6536
 4975TIP3   OH236339   0.648   2.303  17.170  0.4380  0.3783  0.5558
 4975TIP3    H136340   0.721   2.328  17.227  0.6441  2.0248 -0.3867
 4975TIP3    H236341   0.651   2.207  17.169  1.9919  0.3894  1.2826
 4976TIP3   OH236342   2.317   3.059  15.169  0.7231  0.3099  0.0633
 4976TIP3    H136343   2.310   3.050  15.074  0.0735 -0.0358  0.1391
 4976TIP3    H236344   2.276   3.143  15.188  0.6748  0.2871  0.0591
 4977TIP3   OH236345   1.873   1.421  15.020  0.1170 -0.0025 -0.6932
 4977TIP3    H136346   1.818   1.498  15.009  1.3038  1.2598  1.4793
 4977TIP3    H236347   1.957   1.444  14.979  0.6006  0.0577  0.2849
 4978TIP3   OH236348   3.227   3.624  11.931 -0.2986  0.2700 -0.0129
 4978TIP3    H136349   3.312   3.613  11.975 -0.6741  0.7489  0.8478
 4978TIP3    H236350   3.180   3.543  11.951  0.3847 -0.5609 -1.5395
 4979TIP3   OH236351   1.707   5.907   4.714 -0.3816 -0.2027  0.0088
 4979TIP3    H136352   1.703   5.874   4.624 -1.8764  1.2085 -0.4929
 4979TIP3    H236353   1.637   5.860   4.759 -0.4395 -0.0056  0.1211
 4980TIP3   OH236354   5.758   2.874   5.785  0.6315  0.7047  0.1496
 4980TIP3    H136355   5.792   2.786   5.771  0.3453  0.9166 -2.2901
 4980TIP3    H236356   5.663   2.863   5.785  0.5897  1.0129 -0.3489
 4981TIP3   OH236357   5.209   3.697  15.367  0.2358 -0.2217  0.3286
 4981TIP3    H136358   5.271   3.646  15.315 -1.3927 -0.7944 -1.1708
 4981TIP3    H236359   5.218   3.786  15.334 -0.2028 -0.4335 -0.4067
 4982TIP3   OH236360   5.614   1.714   4.743 -0.2401 -0.2202  0.2687
 4982TIP3    H136361   5.535   1.699   4.795  0.9883 -0.2560  2.2374
 4982TIP3    H236362   5.658   1.786   4.788  0.6337  0.0961 -1.0597
 4983TIP3   OH236363   5.381   1.383  15.079 -0.1592  0.5126  0.3353
 4983TIP3    H136364   5.468   1.394  15.118 -0.5274  1.4669  0.8907
 4983TIP3    H236365   5.323   1.364  15.153 -0.2590 -1.2848 -0.1446
 4984TIP3   OH236366   2.431   2.826   3.601  0.8627 -0.6029 -0.9417
 4984TIP3    H136367   2.506   2.884   3.605  1.1667 -1.0271 -0.2340
 4984TIP3    H236368   2.436   2.775   3.682  1.0657 -2.1798 -1.9088
 4985TIP3   OH236369   1.437   1.770   1.711 -0.6964  0.4717  0.2197
 4985TIP3    H136370   1.428   1.843   1.773 -2.0146 -0.9793  1.8194
 4985TIP3    H236371   1.386   1.699   1.749  0.7773 -1.4214 -1.1451
 4986TIP3   OH236372   0.796   5.223   0.081  0.1562  0.1960 -0.4227
 4986TIP3    H136373   0.884   5.259   0.071  0.2311  0.2632  0.4270
 4986TIP3    H236374   0.810   5.129   0.097  0.1756  0.4555  1.2646
 4987TIP3   OH236375   0.521   3.078   5.709 -0.1756 -0.1965 -0.0640
 4987TIP3    H136376   0.510   2.998   5.658 -0.9819 -0.5019  0.5561
 4987TIP3    H236377   0.565   3.049   5.789 -1.6584 -0.2753  0.7552
 4988TIP3   OH236378   1.341   3.394  17.137  0.4119 -0.1273 -0.2821
 4988TIP3    H136379   1.382   3.337  17.202 -0.5876 -0.7541 -0.1879
 4988TIP3    H236380   1.369   3.357  17.053  0.9816  0.1516 -0.2209
 4989TIP3   OH236381   3.881   1.638  14.204  0.3532  0.1201 -0.3753
 4989TIP3    H136382   3.904   1.588  14.283 -1.2606  2.3646  1.6779
 4989TIP3    H236383   3.842   1.574  14.145  0.6459 -1.4789  1.0880
 4990TIP3   OH236384   3.333   0.042  13.906 -0.2870  0.5020  0.0472
 4990TIP3    H136385   3.373   0.090  13.834 -0.4907  1.9049  0.8353
 4990TIP3    H236386   3.340  -0.050  13.880  3.0905  0.6344 -0.0729
 4991TIP3   OH236387   2.489   0.575   6.016 -0.2700  0.0115 -0.0073
 4991TIP3    H136388   2.522   0.622   6.093 -1.3723 -0.3257  0.6973
 4991TIP3    H236389   2.482   0.484   6.045  1.0022 -0.4603 -1.0847
 4992TIP3   OH236390   0.439   1.284  12.898 -0.2146  0.1103 -0.4653
 4992TIP3    H136391   0.450   1.192  12.924  0.5800  0.4590  0.4567
 4992TIP3    H236392   0.352   1.307  12.930  0.1893  0.1184  0.6479
 4993TIP3   OH236393   5.274   3.540  12.773  0.1705 -0.1741 -0.0844
 4993TIP3    H136394   5.228   3.551  12.856 -1.3447 -2.0686 -0.6081
 4993TIP3    H236395   5.314   3.453  12.780 -0.1619 -0.4407 -1.4188
 4994TIP3   OH236396   2.219   5.641  15.513  0.2252  0.4425 -0.2402
 4994TIP3    H136397   2.197   5.585  15.438  0.6837  0.5724 -0.4804
 4994TIP3    H236398   2.271   5.712  15.474 -1.4794  1.8013 -0.1647
 4995TIP3   OH236399   2.698   4.822  16.223 -0.3443  0.3346  0.0621
 4995TIP3    H136400   2.643   4.812  16.302 -0.3133  1.6597  0.2769
 4995TIP3    H236401   2.678   4.910  16.192  1.3438  0.6813 -0.1145
 4996TIP3   OH236402   5.392   3.715  14.011  0.4317  0.1700  0.0084
 4996TIP3    H136403   5.436   3.642  14.055  0.0378 -1.9532 -2.8094
 4996TIP3    H236404   5.311   3.726  14.059  0.3532 -1.5224  0.3360
 4997TIP3   OH236405   3.352   1.601   0.090  0.0094 -0.8355  0.6207
 4997TIP3    H136406   3.403   1.637   0.018 -1.4990 -0.7332 -0.4285
 4997TIP3    H236407   3.345   1.673   0.153 -0.2963 -0.2882 -0.0235
 4998TIP3   OH236408   0.988   3.037   2.974 -0.6486  0.3265 -0.0616
 4998TIP3    H136409   0.966   3.094   2.900 -0.2319  2.6333  1.4843
 4998TIP3    H236410   0.903   3.005   3.006 -0.8315 -0.7489 -1.4968
 4999TIP3   OH236411   1.935   0.507   2.023 -0.2228 -0.2615 -0.2311
 4999TIP3    H136412   1.936   0.594   2.062 -1.6947 -0.3532  0.0792
 4999TIP3    H236413   1.910   0.521   1.931  0.5098 -0.2819 -0.4391
 5000TIP3   OH236414   1.433   3.432  13.907 -0.4214 -0.1045 -0.1666
 5000TIP3    H136415   1.426   3.527  13.899  1.4434  0.2155  1.3629
 5000TIP3    H236416   1.444   3.416  14.001 -0.7744 -1.8540 -0.3784
 5001TIP3   OH236417   1.095   3.771  10.822 -0.3672  0.6296  0.1481
 5001TIP3    H136418   1.026   3.799  10.762 -1.4274 -0.4086  0.8513
 5001TIP3    H236419   1.140   3.852  10.846 -1.7850  1.4321  0.2148
 5002TIP3   OH236420   0.680   0.796  10.736 -0.4556 -0.1062 -0.4357
 5002TIP3    H136421   0.729   0.824  10.814 -0.3768 -2.0549  0.2960
 5002TIP3    H236422   0.599   0.846  10.739  0.0902  0.7756  0.1846
 5003TIP3   OH236423   1.169   0.421  12.195 -0.2723 -0.4639  0.6149
 5003TIP3    H136424   1.240   0.474  12.158 -0.8451 -0.0651  0.0888
 5003TIP3    H236425   1.090   0.450  12.150 -1.3051  1.2425  3.2725
 5004TIP3   OH236426   4.037   3.248  16.204 -0.0223 -0.2046  0.2914
 5004TIP3    H136427   3.986   3.328  16.219  0.0328 -0.1763  0.3263
 5004TIP3    H236428   3.994   3.206  16.129  1.1251  0.8454 -1.0275
 5005TIP3   OH236429   4.876   1.162  15.694  0.0033 -0.7516 -0.4394
 5005TIP3    H136430   4.819   1.140  15.768  1.2390 -0.5700  0.6035
 5005TIP3    H236431   4.954   1.109  15.708  0.8469  0.3742 -0.8144
 5006TIP3   OH236432   2.877   5.478   2.887 -0.1717  0.0696 -0.4303
 5006TIP3    H136433   2.854   5.387   2.868  0.6064 -0.6071  1.6264
 5006TIP3    H236434   2.875   5.521   2.802 -0.6919 -1.8298 -1.4424
 5007TIP3   OH236435   5.016   5.222   0.745 -0.3254  0.1473 -0.0711
 5007TIP3    H136436   5.073   5.180   0.681 -0.6953  0.0073 -0.3145
 5007TIP3    H236437   4.933   5.233   0.699  0.5555  3.9470 -1.1054
 5008TIP3   OH236438   1.630   5.288  16.067  1.0273 -0.9386  0.1642
 5008TIP3    H136439   1.632   5.324  15.979 -2.3194 -0.7570  0.0263
 5008TIP3    H236440   1.696   5.219  16.066  0.5769 -1.4605 -2.7491
 5009TIP3   OH236441   3.700   3.132   5.626 -0.3931  0.3936 -0.3383
 5009TIP3    H136442   3.760   3.151   5.699  0.0121 -2.3874  0.1612
 5009TIP3    H236443   3.702   3.212   5.573  1.3955  1.5236  1.2687
 5010TIP3   OH236444   1.923   1.967  12.260 -0.2385 -0.4384 -0.5042
 5010TIP3    H136445   1.990   1.997  12.198  0.5599 -0.9346  0.0981
 5010TIP3    H236446   1.908   1.875  12.237 -0.6964 -0.3343 -0.6227
 5011TIP3   OH236447   4.991   5.480   0.807  0.0390  0.5974 -0.2371
 5011TIP3    H136448   5.033   5.522   0.733 -1.8020  2.9719 -0.0459
 5011TIP3    H236449   5.018   5.388   0.801  0.2996  0.7750 -3.5788
 5012TIP3   OH236450   4.070   4.184  16.970 -0.2980 -0.1148  0.3253
 5012TIP3    H136451   4.056   4.244  16.896  1.2172  0.8088  0.7579
 5012TIP3    H236452   3.999   4.120  16.962 -0.9604  0.7501 -1.1385
 5013TIP3   OH236453   6.314   2.549   1.329  0.7268 -0.6010  0.2416
 5013TIP3    H136454   6.385   2.485   1.322  0.4006 -0.9253 -0.2618
 5013TIP3    H236455   6.355   2.629   1.361  1.5723 -0.3813 -1.2895
 5014TIP3   OH236456   3.047   1.656  14.517 -0.6294  0.7773  0.3285
 5014TIP3    H136457   3.086   1.656  14.604  0.3017  0.5226 -0.0758
 5014TIP3    H236458   3.105   1.711  14.464 -0.8986  0.5263 -0.2423
 5015TIP3   OH236459   6.159   2.928  13.446  0.4703  0.0187  0.1754
 5015TIP3    H136460   6.100   2.876  13.392 -1.5645  2.7431 -0.4048
 5015TIP3    H236461   6.108   2.946  13.525  1.5096  0.3365  0.7893
 5016TIP3   OH236462   6.159   4.764  13.988  0.1980 -0.1729  0.3578
 5016TIP3    H136463   6.176   4.858  13.990 -0.1953 -0.1009  0.4818
 5016TIP3    H236464   6.160   4.737  14.080 -0.7156 -0.0899  0.4043
 5017TIP3   OH236465   4.140   1.557   3.643  0.1010 -0.4498 -0.0766
 5017TIP3    H136466   4.044   1.562   3.635  0.2314 -0.6393 -3.1251
 5017TIP3    H236467   4.161   1.467   3.616  1.1724 -0.1448 -0.3010
 5018TIP3   OH236468   3.374   6.286  14.173 -0.0826 -0.0278 -0.2023
 5018TIP3    H136469   3.353   6.217  14.109  0.7296 -0.5443  0.0700
 5018TIP3    H236470   3.357   6.368  14.127  1.0425 -0.3743 -1.2977
 5019TIP3   OH236471   5.611   0.393  15.649 -0.3595 -0.0618  0.5957
 5019TIP3    H136472   5.580   0.352  15.729  0.4521 -0.3745  0.7647
 5019TIP3    H236473   5.703   0.413  15.666 -0.2336  0.0718 -0.1749
 5020TIP3   OH236474   1.295   4.872   0.398  0.2024 -0.3719  0.0191
 5020TIP3    H136475   1.279   4.846   0.307 -1.4351 -1.2028  0.5102
 5020TIP3    H236476   1.333   4.960   0.391  1.4175 -0.9497 -1.4929
 5021TIP3   OH236477   6.698   1.802   1.703  0.0542 -0.0379 -0.8096
 5021TIP3    H136478   6.640   1.875   1.683  0.2203 -0.3832 -2.7020
 5021TIP3    H236479   6.641   1.735   1.741 -0.5262  0.1549 -1.3382
 5022TIP3   OH236480   1.985   6.248   2.248  0.3551  0.6491 -0.1191
 5022TIP3    H136481   1.898   6.280   2.272 -0.4596 -0.0309 -2.0165
 5022TIP3    H236482   1.971   6.156   2.226  1.3424  0.8168 -1.5234
 5023TIP3   OH236483   1.982   6.311   0.514 -0.4819  0.1171 -0.5311
 5023TIP3    H136484   1.950   6.241   0.457 -1.8215 -0.8113  1.2451
 5023TIP3    H236485   2.014   6.265   0.592  1.7932  1.3023 -0.6947
 5024TIP3   OH236486   5.766   3.010   4.891 -0.4892  0.1347 -0.3007
 5024TIP3    H136487   5.737   3.101   4.889 -0.8544  0.0380  0.2324
 5024TIP3    H236488   5.685   2.959   4.896 -0.4117 -0.3328 -2.6838
 5025TIP3   OH236489   6.113   4.494  12.401 -0.3199  0.3882  0.5607
 5025TIP3    H136490   6.035   4.439  12.398  0.2589 -0.4100 -0.3411
 5025TIP3    H236491   6.176   4.444  12.453  0.9369 -0.8439 -2.0006
 5026TIP3   OH236492   1.384   5.292  12.037 -0.6735 -0.5656  0.1676
 5026TIP3    H136493   1.311   5.294  11.976 -1.6261 -1.6579  1.2346
 5026TIP3    H236494   1.348   5.329  12.118 -0.0787 -1.1736  0.7221
 5027TIP3   OH236495   1.969   1.267  16.256  0.0648  0.8353 -0.3257
 5027TIP3    H136496   1.927   1.346  16.222  0.1766  0.8465 -0.4380
 5027TIP3    H236497   1.980   1.210  16.180 -1.2362  0.1464 -0.0296
 5028TIP3   OH236498   1.493   3.903   5.029 -0.2255  0.0719 -0.4255
 5028TIP3    H136499   1.544   3.983   5.017 -1.3636  1.1606  1.4647
 5028TIP3    H236500   1.412   3.917   4.981 -0.0568 -0.3369 -0.8381
 5029TIP3   OH236501   3.635   5.665  17.297 -0.6060  0.3975  0.5863
 5029TIP3    H136502   3.627   5.692  17.206  0.2251  0.7289  0.5998
 5029TIP3    H236503   3.572   5.593  17.307 -0.2762 -0.0440 -0.4079
 5030TIP3   OH236504   1.053   4.256   2.527  0.4013  0.4021  0.0503
 5030TIP3    H136505   1.023   4.343   2.500 -0.3482  0.1264 -0.0547
 5030TIP3    H236506   1.018   4.245   2.616 -2.5579 -1.1090 -1.1385
 5031TIP3   OH236507   1.336   0.878   2.694  0.5916 -0.1915  0.8891
 5031TIP3    H136508   1.429   0.871   2.672  0.6119 -2.4532  1.4323
 5031TIP3    H236509   1.330   0.958   2.746  2.1688  0.1643  0.5853
 5032TIP3   OH236510   1.024   5.333   2.754  0.4018  0.3231  0.0679
 5032TIP3    H136511   0.976   5.290   2.825 -0.0615  1.2890  0.3496
 5032TIP3    H236512   0.956   5.358   2.691  0.7499 -0.0093 -0.4552
 5033TIP3   OH236513   5.431   4.678   4.731 -0.2195  0.2424 -0.1509
 5033TIP3    H136514   5.432   4.663   4.826  0.1336  1.1080 -0.0053
 5033TIP3    H236515   5.349   4.641   4.701  0.5365 -1.8142  0.1825
 5034TIP3   OH236516   4.183   0.766   2.583  0.2396 -0.1912 -0.1507
 5034TIP3    H136517   4.279   0.773   2.583  0.3195 -1.0824 -0.0948
 5034TIP3    H236518   4.164   0.700   2.516 -0.3042 -0.3442  0.1488
 5035TIP3   OH236519   1.094   1.115  11.070  0.2694  0.3285 -0.1717
 5035TIP3    H136520   1.143   1.045  11.112 -0.5191  0.4268  0.9695
 5035TIP3    H236521   1.062   1.078  10.988  0.9082 -0.2323 -0.1679
 5036TIP3   OH236522   6.179   6.190  14.729  0.4460  0.7736  0.8437
 5036TIP3    H136523   6.102   6.219  14.681  1.4033  0.2078 -1.1756
 5036TIP3    H236524   6.145   6.140  14.803 -1.1132  2.2019  1.1420
 5037TIP3   OH236525   0.959   6.235   4.511  0.4201  0.0850  0.2009
 5037TIP3    H136526   1.002   6.158   4.547  2.1286  0.9801  0.1991
 5037TIP3    H236527   1.014   6.309   4.539 -0.0205  1.1069 -1.4432
 5038TIP3   OH236528   5.471   1.534  14.706 -0.2472  0.0202 -0.0848
 5038TIP3    H136529   5.451   1.544  14.613  0.2890 -0.3324 -0.2453
 5038TIP3    H236530   5.518   1.451  14.712 -1.4745 -0.6614  0.7028
 5039TIP3   OH236531   3.062   4.872  10.757 -0.5490  0.3591 -0.2602
 5039TIP3    H136532   3.069   4.822  10.676 -1.1557 -0.4417  0.1683
 5039TIP3    H236533   2.978   4.846  10.794  0.8922 -1.4908  2.0472
 5040TIP3   OH236534   4.125   3.614  14.964  0.9846  0.6041  0.0874
 5040TIP3    H136535   4.207   3.662  14.968  1.3329 -0.0341  0.8876
 5040TIP3    H236536   4.118   3.571  15.050 -0.9513  1.9032  0.6319
 5041TIP3   OH236537   0.118   1.897   3.357 -0.3316  0.6726 -0.1002
 5041TIP3    H136538   0.035   1.920   3.317 -0.2036  0.1058 -0.7151
 5041TIP3    H236539   0.121   1.948   3.438 -1.3036  0.6432 -0.0340
 5042TIP3   OH236540   4.229   3.665   0.754 -0.0994  0.2947 -0.3596
 5042TIP3    H136541   4.300   3.601   0.764  0.4852  0.3531 -3.1015
 5042TIP3    H236542   4.180   3.661   0.836  1.9907 -1.0866  0.9141
 5043TIP3   OH236543   4.830   2.526   0.892 -0.5513 -0.6227 -0.0194
 5043TIP3    H136544   4.801   2.550   0.980 -0.6413  0.4306 -0.3292
 5043TIP3    H236545   4.848   2.432   0.898  0.0466 -0.4423  1.2770
 5044TIP3   OH236546   0.175   3.214  15.645 -0.3634 -0.2293 -0.1580
 5044TIP3    H136547   0.211   3.301  15.664 -1.2606  0.1205 -0.0490
 5044TIP3    H236548   0.081   3.225  15.650 -0.5320 -0.9142 -1.4273
 5045TIP3   OH236549   0.658   3.965   1.946 -0.3305 -0.7376  0.4168
 5045TIP3    H136550   0.729   3.907   1.917  1.2889  2.0271 -1.6893
 5045TIP3    H236551   0.657   3.955   2.041  2.0039 -1.8934  0.4150
 5046TIP3   OH236552   2.121   5.771  12.632  0.1144  0.1005  0.0624
 5046TIP3    H136553   2.170   5.839  12.586  1.4081 -1.4727 -1.0210
 5046TIP3    H236554   2.152   5.776  12.723 -0.2012  1.2462  0.1269
 5047TIP3   OH236555   5.092   5.929   1.689 -0.1272 -0.6141  0.3923
 5047TIP3    H136556   5.160   5.983   1.731 -1.7798  2.2028 -0.2700
 5047TIP3    H236557   5.028   5.914   1.759 -1.1932  1.1145 -0.1376
 5048TIP3   OH236558   0.155   0.149  15.128 -0.5625 -0.0068 -0.1316
 5048TIP3    H136559   0.133   0.122  15.216 -2.1280  0.9087 -0.2150
 5048TIP3    H236560   0.140   0.071  15.074  0.5979 -0.6302  0.4008
 5049TIP3   OH236561   3.277   4.727  15.168  0.2893  0.0851 -0.8443
 5049TIP3    H136562   3.271   4.678  15.085  0.7602 -0.8239 -0.3603
 5049TIP3    H236563   3.247   4.665  15.234 -1.8683  1.3991 -0.4989
 5050TIP3   OH236564   5.030   1.635  13.767  0.1005 -0.0818 -0.3871
 5050TIP3    H136565   5.059   1.642  13.676  1.1441  2.8781  0.0869
 5050TIP3    H236566   5.109   1.646  13.819 -0.6812 -0.3641  0.9096
 5051TIP3   OH236567   0.024   1.781  12.986  0.2451  0.3019 -0.3225
 5051TIP3    H136568  -0.033   1.726  12.932  1.3986  0.1058 -1.4091
 5051TIP3    H236569   0.010   1.869  12.953  2.2501 -0.0137 -2.2892
 5052TIP3   OH236570   5.122   0.755  13.766 -0.1832  0.1015  0.1517
 5052TIP3    H136571   5.148   0.770  13.675  1.5057  1.3117  0.7800
 5052TIP3    H236572   5.073   0.833  13.790  1.2476  0.8066  0.8907
 5053TIP3   OH236573   2.457   0.570   4.589 -0.2582  0.2448  0.3850
 5053TIP3    H136574   2.527   0.634   4.605 -1.0446  1.0426  0.6898
 5053TIP3    H236575   2.385   0.621   4.552 -0.5588 -0.6303 -0.2811
 5054TIP3   OH236576   3.209   1.722  16.772  0.2097  0.0791  0.2610
 5054TIP3    H136577   3.273   1.746  16.839  0.5153 -0.1379  0.0531
 5054TIP3    H236578   3.245   1.758  16.691 -0.6535  1.2020  0.3593
 5055TIP3   OH236579   4.840   4.854  16.632 -0.7074 -0.0974  0.0083
 5055TIP3    H136580   4.756   4.840  16.588 -0.9442 -1.3938  0.8347
 5055TIP3    H236581   4.819   4.912  16.705 -0.4627  1.3624 -1.0250
 5056TIP3   OH236582   6.640   3.213  17.058 -0.2969  0.5777  0.3119
 5056TIP3    H136583   6.649   3.301  17.022  2.2834  0.0205 -0.5719
 5056TIP3    H236584   6.604   3.161  16.986 -2.9554  1.0411  1.1839
 5057TIP3   OH236585   2.692   5.505   4.760 -0.5769  0.5914  0.3734
 5057TIP3    H136586   2.720   5.496   4.852  1.5483  0.6795 -0.2076
 5057TIP3    H236587   2.634   5.431   4.745  2.0828 -1.7271  0.7830
 5058TIP3   OH236588   3.956   4.622   2.637 -0.2325 -0.2419  0.2256
 5058TIP3    H136589   3.915   4.677   2.704 -1.2919 -0.6146 -0.0850
 5058TIP3    H236590   3.941   4.668   2.555 -0.5657 -0.6702  0.0397
 5059TIP3   OH236591   4.959   2.261  16.080  0.3512 -0.0039  0.2303
 5059TIP3    H136592   5.024   2.328  16.103 -0.7411  0.5886  1.7431
 5059TIP3    H236593   4.884   2.310  16.047 -0.6800 -0.3990  1.8966
 5060TIP3   OH236594   4.755   1.660   3.368  0.2723  0.2685 -0.1609
 5060TIP3    H136595   4.731   1.650   3.461  0.4548  2.1504  0.1425
 5060TIP3    H236596   4.722   1.581   3.326 -1.1606  0.0505  1.2631
 5061TIP3   OH236597   2.783   0.421   3.457 -0.1164 -0.1243  0.0314
 5061TIP3    H136598   2.735   0.498   3.487  1.7099  1.6079 -1.1978
 5061TIP3    H236599   2.866   0.425   3.505 -0.0965 -1.5280  0.1586
 5062TIP3   OH236600   2.294   6.732   2.915 -0.0441 -0.3148  0.0365
 5062TIP3    H136601   2.224   6.670   2.892  0.8709 -2.5533  2.6912
 5062TIP3    H236602   2.372   6.698   2.871  0.5293 -1.3439  1.7492
 5063TIP3   OH236603   0.115   2.794  15.514 -0.1249 -0.0795  0.4407
 5063TIP3    H136604   0.136   2.827  15.601 -1.3407  2.2471 -0.0416
 5063TIP3    H236605   0.068   2.712  15.529 -1.3546  0.8694  2.0757
 5064TIP3   OH236606   0.642   3.235  13.718  0.0767  0.7583  0.0215
 5064TIP3    H136607   0.677   3.320  13.693  0.0484  0.7905  0.0939
 5064TIP3    H236608   0.719   3.185  13.747  0.3335  0.2690 -1.3881
 5065TIP3   OH236609   1.291   6.175   5.826 -0.0571 -0.6981  0.1473
 5065TIP3    H136610   1.206   6.178   5.781  0.4955 -1.3964 -0.9872
 5065TIP3    H236611   1.346   6.121   5.769  1.3733  0.3513  0.4850
 5066TIP3   OH236612   3.265   6.691  13.226 -0.1425 -0.1670  0.1389
 5066TIP3    H136613   3.287   6.671  13.135 -0.1361  0.1787  0.0606
 5066TIP3    H236614   3.314   6.771  13.245  1.0456 -1.0628  0.9278
 5067TIP3   OH236615   1.634   1.729  11.398  0.2028  0.5368 -0.5003
 5067TIP3    H136616   1.546   1.762  11.382 -0.4106  0.2645  1.9895
 5067TIP3    H236617   1.656   1.760  11.486  2.1042 -0.4220 -0.5880
 5068TIP3   OH236618   0.506   5.653  14.646 -0.1778  0.3899  0.2807
 5068TIP3    H136619   0.483   5.565  14.676  0.5113 -0.3419 -1.2637
 5068TIP3    H236620   0.546   5.695  14.723 -1.5150 -0.2248  1.3599
 5069TIP3   OH236621   6.054   4.822  17.105 -0.4792 -0.2044 -0.0467
 5069TIP3    H136622   6.128   4.818  17.165 -1.0483 -0.6949  0.6457
 5069TIP3    H236623   6.093   4.841  17.020  0.2392  1.8800  0.6678
 5070TIP3   OH236624   4.163   4.868   2.898  0.2352  0.0132  0.0394
 5070TIP3    H136625   4.199   4.919   2.826 -1.8092 -0.1597 -1.1754
 5070TIP3    H236626   4.214   4.787   2.897  1.5887  0.8145  0.1516
 5071TIP3   OH236627   4.556   6.621   5.011 -0.1573 -0.1207  0.3924
 5071TIP3    H136628   4.650   6.609   4.998 -0.0394  1.2147 -0.1055
 5071TIP3    H236629   4.516   6.554   4.956  0.4930 -0.3373  0.1678
 5072TIP3   OH236630   2.366   0.736  15.718 -0.2604 -0.1663  0.2321
 5072TIP3    H136631   2.343   0.691  15.637  0.4110  0.6014 -0.3878
 5072TIP3    H236632   2.419   0.810  15.691 -0.0740  0.1353  1.3714
 5073TIP3   OH236633   3.333   0.555  11.242  0.0412  0.2874 -0.4406
 5073TIP3    H136634   3.400   0.618  11.271  0.8186 -0.7169  0.0155
 5073TIP3    H236635   3.272   0.608  11.191  3.3262  0.6895 -4.5646
 5074TIP3   OH236636   3.917   1.768  12.472 -0.0874  0.6301 -0.7579
 5074TIP3    H136637   3.922   1.853  12.515  0.2355  1.2461 -1.9768
 5074TIP3    H236638   3.861   1.783  12.395 -0.1800 -0.2978 -0.8867
 5075TIP3   OH236639   6.248   3.021  12.239  0.2398  0.4060 -0.5315
 5075TIP3    H136640   6.280   3.035  12.150  2.9547 -0.7983  0.1277
 5075TIP3    H236641   6.194   3.097  12.258  1.1894  1.6703 -2.5412
 5076TIP3   OH236642   6.297   5.782  13.838 -0.0455  0.2958  0.6727
 5076TIP3    H136643   6.290   5.702  13.786  1.3657  1.0715 -0.8591
 5076TIP3    H236644   6.224   5.779  13.899 -0.5444 -1.7105  0.0393
 5077TIP3   OH236645   2.791   0.825   4.427  0.8469  0.2339 -0.1019
 5077TIP3    H136646   2.740   0.782   4.495 -0.0561 -2.6085 -2.3760
 5077TIP3    H236647   2.738   0.900   4.400 -0.5491 -0.7308 -0.1216
 5078TIP3   OH236648   2.610   4.980  11.872  0.1800 -0.1983  0.5219
 5078TIP3    H136649   2.680   5.044  11.886  0.8629 -0.7034 -0.5003
 5078TIP3    H236650   2.576   5.000  11.785 -0.2507 -0.6247  0.5887
 5079TIP3   OH236651   2.758   5.983   2.485  0.4955 -0.5735 -0.3017
 5079TIP3    H136652   2.776   6.065   2.531 -0.4761  0.0530 -0.9951
 5079TIP3    H236653   2.672   5.997   2.445 -0.7328 -2.6971  1.3439
 5080TIP3   OH236654   4.803   6.252  15.035 -0.3518 -0.3138  0.0358
 5080TIP3    H136655   4.897   6.262  15.021 -0.0972  1.3271  2.2410
 5080TIP3    H236656   4.772   6.205  14.958  2.1453 -0.2897 -1.0990
 5081TIP3   OH236657   6.384   5.171   1.587 -0.2645 -0.1914 -0.1982
 5081TIP3    H136658   6.422   5.246   1.542  2.1509 -0.8449  0.6280
 5081TIP3    H236659   6.365   5.202   1.675 -0.9453 -0.0947 -0.3704
 5082TIP3   OH236660   4.059   6.256  15.673  0.3192 -0.0473 -0.4100
 5082TIP3    H136661   4.049   6.275  15.580  0.7969  2.0717 -0.0699
 5082TIP3    H236662   4.152   6.237  15.684  0.9375  2.8345  0.0762
 5083TIP3   OH236663   1.524   0.270   4.579  0.0315 -0.2293 -1.0123
 5083TIP3    H136664   1.447   0.286   4.634 -0.0972 -0.4838 -1.1211
 5083TIP3    H236665   1.512   0.182   4.545  1.8946 -1.6180  1.5180
 5084TIP3   OH236666   5.182   2.209  13.459  0.2404 -0.1453  0.4117
 5084TIP3    H136667   5.136   2.144  13.406  1.7571 -1.7550  0.9828
 5084TIP3    H236668   5.258   2.233  13.407 -0.6342  1.7489 -0.0892
 5085TIP3   OH236669   3.121   6.174  15.261  0.1468  0.0088 -0.4446
 5085TIP3    H136670   3.168   6.213  15.186  0.6912  1.3924  0.5764
 5085TIP3    H236671   3.135   6.080  15.251  0.3349  0.1695 -2.0009
 5086TIP3   OH236672   6.022   5.473  15.142  0.0707 -0.3964  0.0186
 5086TIP3    H136673   6.085   5.457  15.212  0.5076 -0.9681 -0.5048
 5086TIP3    H236674   6.024   5.568  15.130 -0.4529 -0.2162  1.1837
 5087TIP3   OH236675   2.090   0.742   3.794 -0.3208  0.2619 -0.0092
 5087TIP3    H136676   2.059   0.828   3.768 -3.3694 -1.5372 -3.2111
 5087TIP3    H236677   2.028   0.715   3.862 -1.5066 -0.6057 -1.3848
 5088TIP3   OH236678   1.935   5.114   3.124  0.1126 -0.2720  0.4692
 5088TIP3    H136679   1.996   5.158   3.184 -0.1634  1.0332 -0.1655
 5088TIP3    H236680   1.981   5.034   3.098  0.6395 -0.3796  1.6519
 5089TIP3   OH236681   1.489   1.416  15.622 -0.1698 -0.1704 -0.0642
 5089TIP3    H136682   1.476   1.464  15.539 -3.8500 -0.3259  0.2449
 5089TIP3    H236683   1.581   1.391  15.621  0.5023  1.8527 -2.9980
 5090TIP3   OH236684   1.864   1.359   2.105 -0.1982  0.0172 -0.1120
 5090TIP3    H136685   1.827   1.436   2.062 -0.9620 -0.5412 -0.4807
 5090TIP3    H236686   1.958   1.370   2.098 -0.3005  0.0823 -1.6819
 5091TIP3   OH236687   2.920   0.927  11.498  0.5900 -0.3321  0.6909
 5091TIP3    H136688   2.916   0.844  11.544 -3.3899 -0.7499 -0.0396
 5091TIP3    H236689   2.972   0.909  11.420  1.9491 -1.3724  1.8019
 5092TIP3   OH236690   4.858   3.459  17.281 -0.1950 -0.3495  0.8751
 5092TIP3    H136691   4.876   3.408  17.202  2.2053 -1.2106  1.8590
 5092TIP3    H236692   4.763   3.469  17.283 -0.3281 -0.1990 -2.1393
 5093TIP3   OH236693   3.272   2.146   6.529  0.5932 -0.4160  0.1425
 5093TIP3    H136694   3.201   2.199   6.565 -1.5173 -2.2400 -1.0651
 5093TIP3    H236695   3.327   2.208   6.481 -1.1287  0.8544 -0.2847
 5094TIP3   OH236696   5.521   6.717   4.282  0.7542  0.1666 -0.4316
 5094TIP3    H136697   5.578   6.701   4.357  1.5682  3.5499 -0.1430
 5094TIP3    H236698   5.574   6.691   4.206  1.6504  0.7689 -0.0294
 5095TIP3   OH236699   6.617   0.999   4.614  0.0284 -0.2000 -0.4116
 5095TIP3    H136700   6.654   0.951   4.540 -1.0815 -0.1226 -1.0344
 5095TIP3    H236701   6.523   1.006   4.595  0.1743  2.6434 -0.6207
 5096TIP3   OH236702   3.875   1.486  16.206 -0.2247 -0.4199  0.1996
 5096TIP3    H136703   3.815   1.559  16.222 -0.4347 -0.5771  0.1467
 5096TIP3    H236704   3.839   1.443  16.128 -0.7165 -1.2097  0.8431
 5097TIP3   OH236705   3.293   4.600  14.866  0.0972 -0.1207 -0.4607
 5097TIP3    H136706   3.297   4.518  14.815  0.0319  0.5284 -1.5335
 5097TIP3    H236707   3.293   4.669  14.800 -0.2108  0.7444  0.4284
 5098TIP3   OH236708   3.746   4.786  13.472  0.2327  0.0442  0.0111
 5098TIP3    H136709   3.697   4.834  13.539  0.3750 -0.4820  0.4996
 5098TIP3    H236710   3.807   4.851  13.437  1.2970 -0.0630  1.5405
 5099TIP3   OH236711   5.122   4.653   4.075 -0.5090 -0.4934 -0.2054
 5099TIP3    H136712   5.062   4.715   4.116  1.1235  2.3540 -1.7951
 5099TIP3    H236713   5.172   4.615   4.147 -2.1137 -0.6307  0.8773
 5100TIP3   OH236714   5.963   6.517   4.484  0.1485 -0.1627  0.3379
 5100TIP3    H136715   5.921   6.555   4.407  2.2119  2.4069  0.3379
 5100TIP3    H236716   5.920   6.559   4.558 -0.2210 -0.8474  0.5224
 5101TIP3   OH236717   3.281   4.471  13.966  0.1658  0.1803  0.3545
 5101TIP3    H136718   3.272   4.379  13.990 -0.3912  0.5055  1.4810
 5101TIP3    H236719   3.193   4.507  13.975  0.2959  0.7297 -0.5022
 5102TIP3   OH236720   5.319   0.685  11.627  0.1441  0.0042 -0.3034
 5102TIP3    H136721   5.331   0.780  11.632  0.6085 -0.0138 -0.9225
 5102TIP3    H236722   5.260   0.673  11.552 -1.1255 -0.1187  0.6743
 5103TIP3   OH236723   3.868   1.918   5.972 -0.0732  0.1898 -0.1569
 5103TIP3    H136724   3.947   1.971   5.954  0.2912  0.5621  2.2590
 5103TIP3    H236725   3.875   1.895   6.064 -0.8518 -3.1422 -0.8272
 5104TIP3   OH236726   4.851   5.329   2.878  0.5189  0.0285 -0.4095
 5104TIP3    H136727   4.780   5.390   2.857 -0.2130 -0.7146 -0.1625
 5104TIP3    H236728   4.898   5.317   2.795  0.3769  0.5533 -0.5685
 5105TIP3   OH236729   0.133   6.638  14.355  0.0627  0.3201 -0.0120
 5105TIP3    H136730   0.045   6.638  14.315 -0.0572 -0.4690  0.2349
 5105TIP3    H236731   0.170   6.723  14.330 -1.1145  1.0598  0.6471
 5106TIP3   OH236732   4.186   1.959   3.733  0.2811  0.6679 -0.1882
 5106TIP3    H136733   4.197   1.990   3.643 -1.1170 -0.3152 -0.7227
 5106TIP3    H236734   4.112   1.900   3.729 -0.0101  0.8622  1.6967
 5107TIP3   OH236735   3.392   3.024   3.900 -0.2689  0.6624  0.0982
 5107TIP3    H136736   3.473   2.973   3.893  0.4106  1.8653 -1.4918
 5107TIP3    H236737   3.322   2.960   3.888  0.5126 -0.1349 -0.2981
 5108TIP3   OH236738   4.148   1.333   3.447  0.9057 -0.2142 -0.0891
 5108TIP3    H136739   4.229   1.282   3.451 -1.0014 -3.4673  0.3476
 5108TIP3    H236740   4.128   1.339   3.353  0.9363 -0.6883 -0.1305
 5109TIP3   OH236741   6.565   2.566  15.786 -0.5552 -0.3026 -0.2602
 5109TIP3    H136742   6.531   2.594  15.702 -2.2954 -2.5885 -0.4044
 5109TIP3    H236743   6.549   2.472  15.789 -0.0405 -0.3980  2.4007
 5110TIP3   OH236744   1.280   1.619  11.301  0.0801 -0.3598 -0.0532
 5110TIP3    H136745   1.266   1.601  11.394 -0.9167  0.7024  0.0276
 5110TIP3    H236746   1.310   1.710  11.299 -0.1234 -0.3045 -0.7783
 5111TIP3   OH236747   0.277   1.458   1.924 -0.2737  0.2961  0.3653
 5111TIP3    H136748   0.263   1.553   1.931 -0.7797  0.0901  3.7405
 5111TIP3    H236749   0.332   1.437   2.000 -1.4182 -2.3265  0.5569
 5112TIP3   OH236750   1.303   1.570  12.559 -0.4356 -0.0023  0.1282
 5112TIP3    H136751   1.270   1.518  12.486  0.1353  0.2027 -0.2799
 5112TIP3    H236752   1.398   1.559  12.555 -0.3137  0.9895  0.0984
 5113TIP3   OH236753   5.584   0.430  11.942  0.0506 -0.3859  0.4973
 5113TIP3    H136754   5.527   0.373  11.994  0.9727 -0.6440  1.2534
 5113TIP3    H236755   5.620   0.373  11.874  0.8547 -0.6944  1.1620
 5114TIP3   OH236756   5.002   0.449  14.709 -0.4844 -0.2659  0.3620
 5114TIP3    H136757   5.016   0.498  14.628 -3.2298 -0.1265 -0.1535
 5114TIP3    H236758   4.983   0.359  14.680  0.0038 -0.5625  0.9567
 5115TIP3   OH236759   4.637   4.132   1.937  0.6041  0.4926  0.3817
 5115TIP3    H136760   4.626   4.156   2.028  0.5552  1.5271  0.1088
 5115TIP3    H236761   4.620   4.212   1.888 -0.3248 -0.2592 -0.5984
 5116TIP3   OH236762   0.164   3.706  17.110  0.1888 -0.3793  0.4869
 5116TIP3    H136763   0.242   3.682  17.161 -0.1117 -1.6639  0.3936
 5116TIP3    H236764   0.191   3.693  17.019  0.1883  0.2007  0.4055
 5117TIP3   OH236765   2.747   3.872   3.126  0.4121 -0.3047 -0.7023
 5117TIP3    H136766   2.831   3.841   3.158  0.5737 -0.6907 -1.4776
 5117TIP3    H236767   2.765   3.905   3.038 -0.0098  0.8033 -0.3873
 5118TIP3   OH236768   3.999   0.056   5.653  0.0795 -0.4538  0.3442
 5118TIP3    H136769   4.015   0.122   5.720  0.4160  2.5775 -2.4433
 5118TIP3    H236770   3.910   0.026   5.669  0.3923 -0.3598  2.4875
 5119TIP3   OH236771   4.831   6.739   4.859 -0.0511  0.3170  0.0271
 5119TIP3    H136772   4.910   6.686   4.868  1.3381  2.3260  0.0726
 5119TIP3    H236773   4.855   6.825   4.893 -2.3747  0.8982  0.3807
 5120TIP3   OH236774   5.774   4.655   1.773 -0.5274 -0.3266 -0.4971
 5120TIP3    H136775   5.750   4.575   1.726 -0.7060 -0.4347 -0.2212
 5120TIP3    H236776   5.762   4.634   1.865 -2.9644  0.7791 -0.4893
 5121TIP3   OH236777   2.261   0.435  16.887 -0.5958  0.1653 -0.5213
 5121TIP3    H136778   2.173   0.468  16.904 -0.8334 -0.2792 -0.8632
 5121TIP3    H236779   2.253   0.388  16.804  0.0332  0.3788 -0.7112
 5122TIP3   OH236780   1.484   0.267   2.242 -0.3521 -0.1454  0.4060
 5122TIP3    H136781   1.523   0.343   2.200 -0.0725  0.1506  1.1714
 5122TIP3    H236782   1.419   0.235   2.180  0.3672 -0.0014 -0.4373
 5123TIP3   OH236783   0.951   3.561  16.921 -0.3976  0.5733 -0.3495
 5123TIP3    H136784   0.912   3.504  16.988  0.9031  0.4887  0.3661
 5123TIP3    H236785   0.898   3.545  16.843 -2.6968  1.5098  0.9016
 5124TIP3   OH236786   4.945   6.485   0.005 -0.0234  0.2065  0.0443
 5124TIP3    H136787   4.953   6.398   0.045  2.2505  1.2909  2.2110
 5124TIP3    H236788   5.034   6.505  -0.026 -0.7802  1.3057 -1.5511
 5125TIP3   OH236789   1.922   5.337  13.702  0.2430 -0.3826  0.4842
 5125TIP3    H136790   1.880   5.353  13.617 -1.6338  1.3733  1.6480
 5125TIP3    H236791   1.921   5.242  13.712  0.5376 -0.6380 -1.4475
 5126TIP3   OH236792   4.644   0.745   2.296 -0.2258  0.3332 -0.5408
 5126TIP3    H136793   4.664   0.804   2.369  0.1866  0.3851 -0.6924
 5126TIP3    H236794   4.697   0.778   2.224  1.8024 -1.5319 -0.0313
 5127TIP3   OH236795   0.559   0.787   4.110  0.1946 -0.0281 -0.7995
 5127TIP3    H136796   0.571   0.724   4.181  1.2927  1.8756  0.8203
 5127TIP3    H236797   0.509   0.740   4.044 -0.6259 -1.9949  1.1093
 5128TIP3   OH236798   1.792   1.626  12.752  0.1384  0.7694  0.4018
 5128TIP3    H136799   1.817   1.584  12.834 -1.7394  0.6349  0.9311
 5128TIP3    H236800   1.763   1.713  12.777  0.8410  1.2250 -0.3069
 5129TIP3   OH236801   1.697   2.624  12.048 -0.1914 -0.9037  0.2632
 5129TIP3    H136802   1.721   2.604  12.138 -0.0343 -1.4081  0.1101
 5129TIP3    H236803   1.743   2.559  11.995  1.2263  0.5035 -0.3265
 5130TIP3   OH236804   2.802   4.534  13.732 -0.1074  0.3696 -0.6063
 5130TIP3    H136805   2.759   4.600  13.787  0.4230 -1.0606  1.6830
 5130TIP3    H236806   2.894   4.541  13.755  0.0664 -0.5539 -0.9911
 5131TIP3   OH236807   4.035   1.843  10.905  0.5925  0.1349 -0.1656
 5131TIP3    H136808   4.105   1.792  10.945 -0.5295 -0.7075  0.7816
 5131TIP3    H236809   3.970   1.779  10.878 -0.7885  1.0094  0.9225
 5132TIP3   OH236810   2.347   5.065  13.236  0.0013 -0.0339  0.6591
 5132TIP3    H136811   2.320   4.995  13.296  1.5787  0.0611  1.5373
 5132TIP3    H236812   2.284   5.135  13.253  0.8498  0.2963  2.8521
 5133TIP3   OH236813   0.073   1.525  11.968 -0.2989 -0.1426 -0.2007
 5133TIP3    H136814   0.018   1.476  11.907 -0.7952 -0.0980  0.2059
 5133TIP3    H236815   0.024   1.605  11.985  0.2469  0.2454 -0.4199
 5134TIP3   OH236816   2.218   1.607   3.170 -0.4430  0.0011  0.1814
 5134TIP3    H136817   2.154   1.554   3.122  0.5756  0.8256 -2.2734
 5134TIP3    H236818   2.214   1.693   3.127  3.1070 -0.2407 -0.9285
 5135TIP3   OH236819   4.117   3.013   4.598 -0.8318  0.0646 -1.2388
 5135TIP3    H136820   4.118   2.943   4.664 -0.2365  1.8793  0.7855
 5135TIP3    H236821   4.181   2.985   4.533  0.7467 -0.4785  0.4530
 5136TIP3   OH236822   3.001   3.813   3.197  0.2350  0.3306  0.0590
 5136TIP3    H136823   3.086   3.825   3.239  0.6125 -1.7613  0.0049
 5136TIP3    H236824   3.017   3.746   3.130 -1.7120 -1.1974  1.0200
 5137TIP3   OH236825   0.947   1.543   6.726  0.4039 -0.2104 -0.1493
 5137TIP3    H136826   1.031   1.501   6.707 -0.6182 -1.8630 -1.2826
 5137TIP3    H236827   0.954   1.630   6.687  1.0700 -0.8680 -1.5803
 5138TIP3   OH236828   6.666   0.762   2.990  0.0486  0.1412  0.2028
 5138TIP3    H136829   6.662   0.698   3.060 -0.7897 -0.2108 -0.1466
 5138TIP3    H236830   6.610   0.726   2.921  3.9814 -1.6091 -2.4533
 5139TIP3   OH236831   4.032   0.424   7.028 -0.3746 -0.7641 -0.5712
 5139TIP3    H136832   4.089   0.379   7.091  1.2665  1.4847 -0.3297
 5139TIP3    H236833   4.087   0.439   6.951 -0.4198  1.7221 -0.2238
 5140TIP3   OH236834   5.190   0.976  14.651 -0.1133 -0.2503  1.1887
 5140TIP3    H136835   5.213   0.939  14.736 -0.2552  0.3731  1.5040
 5140TIP3    H236836   5.095   0.989  14.656  0.0675  1.0330  1.4362
 5141TIP3   OH236837   2.201   1.797  11.799 -0.3995 -0.5340  0.0112
 5141TIP3    H136838   2.188   1.797  11.704  1.6317  0.8224 -0.3450
 5141TIP3    H236839   2.123   1.754  11.834 -0.3605 -2.8127 -2.3592
 5142TIP3   OH236840   5.813   0.776  13.547  0.2942 -0.3503  0.2285
 5142TIP3    H136841   5.873   0.841  13.509  0.1555  0.3657  1.1989
 5142TIP3    H236842   5.740   0.828  13.582 -0.5910 -1.1602 -0.3711
 5143TIP3   OH236843   2.855   0.509   0.523 -0.4083 -0.9318 -0.0238
 5143TIP3    H136844   2.867   0.509   0.618 -1.5533 -3.6230  0.2032
 5143TIP3    H236845   2.772   0.464   0.509  0.2338 -1.5539 -2.3350
 5144TIP3   OH236846   1.607   1.489   1.845 -0.0205  0.5085  0.2001
 5144TIP3    H136847   1.610   1.413   1.787 -1.4656  0.7171 -0.1825
 5144TIP3    H236848   1.580   1.454   1.930  2.0903  0.2036  0.8268
 5145TIP3   OH236849   2.697   6.282   3.430 -0.1501 -0.2043  0.3083
 5145TIP3    H136850   2.787   6.293   3.461  0.0777 -1.6840  0.2768
 5145TIP3    H236851   2.684   6.353   3.367  0.8128  0.3403  0.7033
 5146TIP3   OH236852   0.681   0.918  13.070  0.2618 -0.3140  0.5361
 5146TIP3    H136853   0.722   0.985  13.124 -0.7222 -0.3428  1.3555
 5146TIP3    H236854   0.721   0.928  12.984  0.9556  0.5617  0.9466
 5147TIP3   OH236855   4.326   5.707   4.572  0.0091  0.2382  0.0826
 5147TIP3    H136856   4.395   5.675   4.514 -0.1311 -2.0516  1.0984
 5147TIP3    H236857   4.275   5.767   4.518  0.6114 -0.8625 -1.7650
 5148TIP3   OH236858   1.766   0.333   5.070  0.0024  0.3514  0.3453
 5148TIP3    H136859   1.780   0.252   5.022 -2.0052  0.3498 -0.3388
 5148TIP3    H236860   1.809   0.319   5.155  0.4363 -1.0795 -0.0859
 5149TIP3   OH236861   0.599   2.313   4.805  0.1809  0.3095  0.8314
 5149TIP3    H136862   0.661   2.245   4.834 -1.4801 -1.1430  1.1353
 5149TIP3    H236863   0.576   2.360   4.885 -0.8140 -0.6426  1.1272
 5150TIP3   OH236864   5.515   2.716  12.182  0.2596  0.0384 -0.1469
 5150TIP3    H136865   5.593   2.665  12.204 -0.3174 -1.0095 -0.5132
 5150TIP3    H236866   5.471   2.730  12.266  0.3067 -0.2442 -0.0760
 5151TIP3   OH236867   5.162   6.431   2.625 -0.1313  0.1928  0.3557
 5151TIP3    H136868   5.224   6.461   2.558  2.6431 -1.0851  2.1574
 5151TIP3    H236869   5.101   6.374   2.577  0.8675  0.4514 -1.3027
 5152TIP3   OH236870   0.692   5.938  17.174 -0.1178 -0.0440 -0.6003
 5152TIP3    H136871   0.688   6.014  17.231  0.4315 -0.5982  0.1935
 5152TIP3    H236872   0.746   5.875  17.221 -0.2059 -0.7664 -1.4350
 5153TIP3   OH236873   0.263   6.372  14.362 -0.0889 -0.4082 -0.5177
 5153TIP3    H136874   0.206   6.449  14.357 -1.4219 -1.4213 -2.1563
 5153TIP3    H236875   0.316   6.386  14.440 -0.2692  2.1681 -0.7697
 5154TIP3   OH236876   2.845   1.982  11.676  0.2035  0.2493 -0.3268
 5154TIP3    H136877   2.784   1.957  11.745  0.0124 -0.4588 -0.7479
 5154TIP3    H236878   2.813   2.067  11.646  1.1060  1.2509  1.3968
 5155TIP3   OH236879   0.850   0.873  16.749 -0.7949  0.3495 -0.4025
 5155TIP3    H136880   0.834   0.941  16.684  0.6402 -0.8896 -2.1585
 5155TIP3    H236881   0.939   0.842  16.730 -0.8848 -1.0467  1.2323
 5156TIP3   OH236882   0.142   3.620   0.262  0.5414 -0.3082 -0.4657
 5156TIP3    H136883   0.111   3.529   0.265  1.0365 -0.4642 -0.1154
 5156TIP3    H236884   0.130   3.653   0.351 -0.6873  0.3339 -0.8347
 5157TIP3   OH236885   3.446   2.858   1.406  0.0665 -0.0721  0.4086
 5157TIP3    H136886   3.478   2.767   1.407 -0.0675 -0.1655 -1.0388
 5157TIP3    H236887   3.491   2.897   1.331 -0.5709  0.7930  0.4722
 5158TIP3   OH236888   3.646   6.054   1.729 -0.5955  0.4744 -0.2306
 5158TIP3    H136889   3.561   6.090   1.754 -0.9740 -0.9993  0.7436
 5158TIP3    H236890   3.658   5.978   1.786  1.7361  1.0637  0.1928
 5159TIP3   OH236891   2.553   4.637   4.605  0.3955  0.5831 -0.2980
 5159TIP3    H136892   2.640   4.629   4.566  0.4523 -0.0712 -0.0390
 5159TIP3    H236893   2.493   4.631   4.531  0.5975  3.1954 -0.7989
 5160TIP3   OH236894   1.635   3.900  13.722  0.2636 -0.5425  0.0674
 5160TIP3    H136895   1.708   3.960  13.740 -0.0097 -0.1080 -0.2406
 5160TIP3    H236896   1.557   3.949  13.750 -0.0495 -0.3708 -1.0506
 5161TIP3   OH236897   6.769   1.227  14.690  0.0598  0.1813  0.0482
 5161TIP3    H136898   6.773   1.163  14.619  1.4457 -0.3359  0.5482
 5161TIP3    H236899   6.782   1.311  14.647  0.9199 -0.1304 -0.3266
 5162TIP3   OH236900   1.275   3.368  14.754 -0.0385 -0.2206 -0.1085
 5162TIP3    H136901   1.223   3.356  14.675 -1.6802  0.2654  0.8638
 5162TIP3    H236902   1.238   3.308  14.818  0.7602 -0.0462  0.5406
 5163TIP3   OH236903   1.442   3.868  11.415 -0.2402  0.3851 -0.3681
 5163TIP3    H136904   1.363   3.816  11.431 -0.6421  0.7742 -1.0391
 5163TIP3    H236905   1.425   3.951  11.459  0.5784 -0.1670  1.0689
 5164TIP3   OH236906   5.737   6.032   5.052  0.2683 -0.2610 -0.6402
 5164TIP3    H136907   5.654   6.076   5.070  0.2017 -0.7463  0.2849
 5164TIP3    H236908   5.744   6.032   4.957 -1.2403 -1.0479 -0.7755
 5165TIP3   OH236909   3.987   6.480   0.283  0.2002  0.5769 -0.5687
 5165TIP3    H136910   4.002   6.521   0.198 -0.6649  1.3874 -0.3406
 5165TIP3    H236911   3.968   6.554   0.342  1.1222  0.0602  0.4034
 5166TIP3   OH236912   5.920   4.675   6.364  0.1652 -0.0261 -0.1155
 5166TIP3    H136913   5.927   4.589   6.323  1.7856  0.9497 -2.0393
 5166TIP3    H236914   5.868   4.728   6.304 -2.5174 -0.0772  1.9629
 5167TIP3   OH236915   1.181   5.136  16.016 -0.3504  0.3711 -0.6130
 5167TIP3    H136916   1.110   5.200  16.013 -0.0499  0.9065  1.4928
 5167TIP3    H236917   1.255   5.181  15.975 -0.5109  0.8810 -0.3639
 5168TIP3   OH236918   5.202   4.549   1.617  0.2856 -0.1364  0.1999
 5168TIP3    H136919   5.187   4.639   1.587  0.4145 -1.1551 -3.3992
 5168TIP3    H236920   5.126   4.529   1.671  0.4169  2.1889  1.3850
 5169TIP3   OH236921   4.053   4.535   5.700  0.5847  0.1653  0.6073
 5169TIP3    H136922   3.957   4.538   5.701  0.5107 -0.6237 -0.9997
 5169TIP3    H236923   4.076   4.537   5.607  2.0409 -1.4457  0.8804
 5170TIP3   OH236924   2.202   4.196   3.707  0.5528 -0.5820 -0.0536
 5170TIP3    H136925   2.244   4.257   3.646 -1.0770  1.1946  0.5025
 5170TIP3    H236926   2.119   4.173   3.665 -0.1869 -0.0357  1.0491
 5171TIP3   OH236927   6.270   5.209  11.211 -0.0326  0.0802  0.6041
 5171TIP3    H136928   6.231   5.126  11.182  2.3584 -0.3221 -1.7988
 5171TIP3    H236929   6.252   5.212  11.305 -1.3568 -2.4912  0.5243
 5172TIP3   OH236930   2.556   3.270  16.653 -0.0890  0.4765  0.2911
 5172TIP3    H136931   2.492   3.299  16.588 -0.6670  0.4433  0.8473
 5172TIP3    H236932   2.553   3.336  16.722  0.4413  0.4494  0.3460
 5173TIP3   OH236933   0.675   6.182   4.048 -0.0128  0.6546 -0.2303
 5173TIP3    H136934   0.745   6.180   3.983 -0.7260  2.2234 -1.0955
 5173TIP3    H236935   0.694   6.259   4.101 -0.2760  0.2376  0.4923
 5174TIP3   OH236936   5.125   1.124  17.227  0.4040  0.8523  0.0432
 5174TIP3    H136937   5.061   1.191  17.204 -2.0072  0.0698  3.6685
 5174TIP3    H236938   5.135   1.073  17.146 -2.3725  1.9590 -1.1494
 5175TIP3   OH236939   3.798   6.454   3.281  0.4473  0.4413  0.8844
 5175TIP3    H136940   3.798   6.359   3.291  0.4651  0.4228  0.7057
 5175TIP3    H236941   3.715   6.482   3.321  0.0335  0.2720  0.1571
 5176TIP3   OH236942   6.121   2.056  13.040 -0.2791 -0.2551  0.0258
 5176TIP3    H136943   6.097   2.148  13.043 -0.4533 -0.3071  0.3146
 5176TIP3    H236944   6.188   2.047  13.108  0.3206 -0.1781 -0.5534
 5177TIP3   OH236945   3.435   1.490   6.598 -0.0237 -0.3668  0.2841
 5177TIP3    H136946   3.461   1.581   6.610  1.1211 -0.8175  1.5111
 5177TIP3    H236947   3.387   1.468   6.677 -0.3006 -0.8251 -0.0066
 5178TIP3   OH236948   5.715   1.944   4.826 -0.1028 -0.8427 -0.0303
 5178TIP3    H136949   5.705   1.976   4.915 -3.0611 -1.0341 -0.1869
 5178TIP3    H236950   5.797   1.983   4.795 -0.5874  1.8108  1.7357
 5179TIP3   OH236951   1.797   2.353  16.882 -0.3943  0.2793 -0.3440
 5179TIP3    H136952   1.867   2.289  16.873  0.2393  1.0272 -0.7589
 5179TIP3    H236953   1.718   2.299  16.893 -0.1274 -0.6222 -2.3341
 5180TIP3   OH236954   0.459   6.233  14.740  0.0400  0.7032  0.6339
 5180TIP3    H136955   0.498   6.320  14.749 -0.1739  1.0960 -1.5764
 5180TIP3    H236956   0.367   6.250  14.719 -0.2306 -0.0962  1.1173
 5181TIP3   OH236957   6.418   1.165  12.895 -0.2562 -0.4307 -0.3064
 5181TIP3    H136958   6.460   1.085  12.928 -0.4581 -0.1305  0.7134
 5181TIP3    H236959   6.483   1.234  12.911 -0.2735 -0.3106 -0.7433
 5182TIP3   OH236960   3.709   2.234  16.118  0.1347 -0.7944 -0.1234
 5182TIP3    H136961   3.638   2.284  16.077  1.4694  1.2244 -0.1195
 5182TIP3    H236962   3.701   2.146  16.080 -1.8254 -0.3978 -0.7550
 5183TIP3   OH236963   3.681   5.086  16.048  0.2994 -0.1754 -0.3608
 5183TIP3    H136964   3.596   5.058  16.014  0.0778 -0.5614  0.4659
 5183TIP3    H236965   3.681   5.181  16.037 -0.1536 -0.1946 -0.5618
 5184TIP3   OH236966   4.376   4.567   2.285 -0.2292 -0.5451 -0.9200
 5184TIP3    H136967   4.376   4.491   2.343 -2.1351 -1.1066 -1.5952
 5184TIP3    H236968   4.418   4.636   2.337 -2.4294 -0.8332  1.4672
 5185TIP3   OH236969   3.859   0.190  12.441  0.0116 -0.7278 -0.0567
 5185TIP3    H136970   3.794   0.257  12.463  0.0912 -0.9215  0.7978
 5185TIP3    H236971   3.852   0.180  12.346 -0.1818  0.3101 -0.1647
 5186TIP3   OH236972   5.863   4.113  11.196  0.3811  0.0444 -0.2200
 5186TIP3    H136973   5.936   4.108  11.133 -0.1424 -0.6021 -0.7923
 5186TIP3    H236974   5.836   4.205  11.193  1.6309  0.4584  0.5408
 5187TIP3   OH236975   3.463   5.326   4.483 -0.1374 -0.0541 -0.0267
 5187TIP3    H136976   3.489   5.234   4.491 -1.3807 -0.3702  0.5191
 5187TIP3    H236977   3.410   5.330   4.404  0.7589  0.4156 -0.6282
 5188TIP3   OH236978   5.625   3.678  15.211 -0.2283  0.2635  0.1429
 5188TIP3    H136979   5.710   3.663  15.252 -0.7597 -0.7321  0.9093
 5188TIP3    H236980   5.630   3.768  15.179  0.8779  0.4370  0.7409
 5189TIP3   OH236981   5.087   1.016   4.652 -0.6993 -0.4122  0.5134
 5189TIP3    H136982   5.068   1.045   4.741 -0.3708  0.8635  0.1872
 5189TIP3    H236983   5.004   0.977   4.622 -1.0351 -0.1789  1.1109
 5190TIP3   OH236984   2.753   0.534   4.931  0.7180 -0.1680 -0.0231
 5190TIP3    H136985   2.777   0.610   4.984  1.4793  0.5274 -1.3316
 5190TIP3    H236986   2.836   0.505   4.892 -0.0331  0.2224 -1.9746
 5191TIP3   OH236987   1.458   0.771   2.380 -0.5400  0.6035 -0.0714
 5191TIP3    H136988   1.462   0.675   2.387 -2.9874  0.3668 -0.8603
 5191TIP3    H236989   1.365   0.792   2.391 -0.2970  2.7389 -1.4518
 5192TIP3   OH236990   2.591   4.286   1.479 -0.4617  0.5482 -0.8867
 5192TIP3    H136991   2.584   4.258   1.387  2.3028 -0.9039 -0.7466
 5192TIP3    H236992   2.557   4.212   1.529 -0.2533  0.5957 -0.6781
 5193TIP3   OH236993   5.783   1.053  13.012 -0.0602 -0.6672  0.1256
 5193TIP3    H136994   5.878   1.046  13.012  0.1252  1.3146 -0.0696
 5193TIP3    H236995   5.757   1.032  12.922  0.2583 -0.4585 -0.0153
 5194TIP3   OH236996   4.681   6.037  12.195  0.1807 -0.1113 -0.5112
 5194TIP3    H136997   4.669   5.981  12.272 -1.9556  2.4438  1.1618
 5194TIP3    H236998   4.764   6.081  12.210  0.4073 -0.5811 -0.3603
 5195TIP3   OH236999   1.467   3.966   2.135  0.6391 -0.3473  0.1691
 5195TIP3    H137000   1.467   3.873   2.117 -0.3121 -0.0508 -1.6001
 5195TIP3    H237001   1.554   3.996   2.109  0.7140 -0.6301  0.0918
 5196TIP3   OH237002   3.984   5.922  15.406 -0.4250  0.4517  0.9570
 5196TIP3    H137003   3.907   5.868  15.392  0.0278  0.2996 -1.2661
 5196TIP3    H237004   3.949   6.010  15.424 -1.1277  0.4585 -0.3583
 5197TIP3   OH237005   0.694   6.686  11.365 -0.2291  0.3686  0.2692
 5197TIP3    H137006   0.690   6.669  11.270 -2.9846  1.8763  0.0074
 5197TIP3    H237007   0.713   6.779  11.371  0.1916  0.2283  1.2472
 5198TIP3   OH237008   1.317   4.824   1.750 -0.4967 -0.2687 -0.0984
 5198TIP3    H137009   1.357   4.905   1.718 -2.0527  0.3214 -0.6461
 5198TIP3    H237010   1.234   4.852   1.788 -1.8291 -1.7527 -1.7444
 5199TIP3   OH237011   6.066   0.473   3.170  1.2293  0.8192 -0.2228
 5199TIP3    H137012   6.109   0.461   3.086  2.6112  2.2061  0.2577
 5199TIP3    H237013   5.973   0.460   3.151  1.6860 -1.0903 -1.5018
 5200TIP3   OH237014   6.516   0.066  14.631  0.2231 -0.1679  0.3519
 5200TIP3    H137015   6.434   0.066  14.680 -0.7593 -1.0759 -1.2197
 5200TIP3    H237016   6.517   0.150  14.586 -0.2082 -0.4399 -0.1779
 5201TIP3   OH237017   5.239   4.589   6.136  0.7994  0.0581 -0.3651
 5201TIP3    H137018   5.198   4.654   6.079  0.4538  0.8118  0.7143
 5201TIP3    H237019   5.170   4.524   6.152  0.5982  0.3540 -0.0311
 5202TIP3   OH237020   5.299   1.085  12.516  0.1416  0.4340  0.4393
 5202TIP3    H137021   5.214   1.108  12.551  0.3039  0.1156  1.0688
 5202TIP3    H237022   5.330   1.164  12.473  0.1944  1.0432  1.5484
 5203TIP3   OH237023   5.091   0.497  16.587  0.5981 -0.5847  0.2223
 5203TIP3    H137024   5.029   0.445  16.535  1.1986 -0.8743 -0.2136
 5203TIP3    H237025   5.078   0.467  16.677 -0.3411 -0.1871  0.2294
 5204TIP3   OH237026   0.473   1.540   0.333  0.5071  0.2797 -0.1953
 5204TIP3    H137027   0.560   1.530   0.372  0.9547 -0.3903 -1.3262
 5204TIP3    H237028   0.462   1.463   0.277 -1.4861 -0.4985  1.1466
 5205TIP3   OH237029   2.659   3.825  10.797  0.0549  0.2322  0.1198
 5205TIP3    H137030   2.743   3.859  10.826  0.5855 -0.2847 -0.7594
 5205TIP3    H237031   2.678   3.781  10.714 -1.0630  0.0197 -0.0441
 5206TIP3   OH237032   5.042   3.990   1.092 -0.3229 -0.2528 -0.1970
 5206TIP3    H137033   5.014   4.081   1.100 -3.0712 -1.0903  1.3891
 5206TIP3    H237034   4.985   3.954   1.024 -1.0116 -1.3061  0.8923
 5207TIP3   OH237035   0.611   1.609  11.383  0.3424 -0.0086 -0.3511
 5207TIP3    H137036   0.699   1.646  11.391  0.4295  0.0385 -1.3222
 5207TIP3    H237037   0.575   1.652  11.304 -1.1585  1.1847  0.9167
 5208TIP3   OH237038   5.792   2.244   2.042 -0.3017  0.6508  0.2255
 5208TIP3    H137039   5.714   2.253   1.988 -0.0746  0.2702 -0.1651
 5208TIP3    H237040   5.828   2.158   2.020  1.1232  1.4557 -0.7841
 5209TIP3   OH237041   2.483   1.232   0.816 -0.5167  0.2351 -0.7444
 5209TIP3    H137042   2.512   1.144   0.840 -2.2322 -0.0586  0.5338
 5209TIP3    H237043   2.458   1.226   0.724 -0.6089 -0.6148 -0.6661
 5210TIP3   OH237044   2.049   4.802  16.539 -0.6783 -0.1720  0.4675
 5210TIP3    H137045   1.966   4.813  16.585  0.1333  1.5794  1.6402
 5210TIP3    H237046   2.025   4.794  16.447 -2.0824  3.2948  0.3933
 5211TIP3   OH237047   1.367   3.888   0.086  0.1219  0.3503 -0.1086
 5211TIP3    H137048   1.352   3.982   0.085 -1.9734  0.0542 -0.7947
 5211TIP3    H237049   1.330   3.856   0.004  1.7018 -0.9792 -0.3633
 5212TIP3   OH237050   5.797   3.052   3.375  0.5257  0.5360 -0.4681
 5212TIP3    H137051   5.820   3.064   3.283  0.9473 -0.1975 -0.4679
 5212TIP3    H237052   5.770   3.139   3.405 -2.3385  0.3023 -1.9972
 5213TIP3   OH237053   4.537   6.133   5.556  0.1928  0.9955  0.0872
 5213TIP3    H137054   4.509   6.043   5.569  2.6309  0.1501 -0.0415
 5213TIP3    H237055   4.456   6.184   5.563 -1.6492 -1.3562 -2.0069
 5214TIP3   OH237056   4.815   4.604  11.043 -0.2760  0.4252 -0.5920
 5214TIP3    H137057   4.876   4.581  11.112 -2.7639  0.5971  1.8489
 5214TIP3    H237058   4.813   4.699  11.043 -1.0615  0.4193 -0.1094
 5215TIP3   OH237059   5.622   0.323   0.628 -0.0848 -0.0146 -0.0981
 5215TIP3    H137060   5.713   0.301   0.607 -0.4659 -1.6907 -0.0981
 5215TIP3    H237061   5.598   0.261   0.698 -1.2269  0.4045 -0.0994
 5216TIP3   OH237062   1.308   6.040   2.567  0.5348  0.3709  0.3262
 5216TIP3    H137063   1.368   5.995   2.507  0.2678  1.6966 -1.0045
 5216TIP3    H237064   1.283   5.973   2.630 -0.2392 -1.5076 -1.8343
 5217TIP3   OH237065   5.540   2.102  12.689  0.4848  0.0902 -0.7011
 5217TIP3    H137066   5.512   2.153  12.613  2.8889  1.4196 -0.8065
 5217TIP3    H237067   5.636   2.102  12.684  0.6794 -0.8877  1.6304
 5218TIP3   OH237068   0.302   0.170  11.323  0.4604  0.3688  0.1090
 5218TIP3    H137069   0.215   0.206  11.342  0.4147  0.1082  0.3849
 5218TIP3    H237070   0.285   0.094  11.268  0.5582  0.7465 -0.4630
 5219TIP3   OH237071   0.802   2.062  14.698 -0.2623  0.1447 -0.3840
 5219TIP3    H137072   0.742   2.136  14.712  0.6068  0.9322 -0.6989
 5219TIP3    H237073   0.785   2.034  14.609  0.1849  0.6947 -0.6452
 5220TIP3   OH237074   3.572   6.393   1.291  0.7259 -0.1169  0.5418
 5220TIP3    H137075   3.540   6.482   1.306  0.5901 -0.3160  1.4969
 5220TIP3    H237076   3.654   6.388   1.341  0.0799 -0.9186  1.5673
 5221TIP3   OH237077   4.484   0.120  11.828  0.3317  0.0871  0.0606
 5221TIP3    H137078   4.493   0.203  11.781  0.3999  1.1157  1.7979
 5221TIP3    H237079   4.519   0.139  11.915 -0.7643 -1.4350  0.8676
 5222TIP3   OH237080   6.683   5.330  13.221  0.0054 -0.2404  0.4475
 5222TIP3    H137081   6.617   5.398  13.231 -0.9227 -0.7204 -1.8323
 5222TIP3    H237082   6.663   5.267  13.292  0.1813  1.2327  1.8621
 5223TIP3   OH237083   2.767   5.735   3.238 -0.9363  0.3611  0.7101
 5223TIP3    H137084   2.762   5.653   3.286  0.5045  0.0937  0.4480
 5223TIP3    H237085   2.708   5.723   3.163 -1.8714  0.1491  1.4569
 5224TIP3   OH237086   1.368   4.981  14.297  0.4486  0.8213  0.2188
 5224TIP3    H137087   1.405   5.036  14.227 -0.6151  0.2673 -0.8119
 5224TIP3    H237088   1.298   4.932  14.254 -0.3455  0.5856  1.7340
 5225TIP3   OH237089   4.888   0.289  11.700  0.1541 -0.3181  0.4445
 5225TIP3    H137090   4.812   0.347  11.706 -0.3083 -0.9134  0.3854
 5225TIP3    H237091   4.859   0.216  11.645  1.7991  1.0748 -2.5755
 5226TIP3   OH237092   2.624   3.262   5.950 -0.0801 -0.3212 -0.6856
 5226TIP3    H137093   2.657   3.257   5.860  1.3676 -2.2517 -0.1110
 5226TIP3    H237094   2.586   3.176   5.967  1.5650 -0.7574  1.1934
 5227TIP3   OH237095   6.091   3.846  12.615 -0.0571  0.2732  0.4471
 5227TIP3    H137096   6.009   3.881  12.648 -0.9136 -1.5168  0.3595
 5227TIP3    H237097   6.065   3.768  12.565  1.6668 -0.2383  0.2827
 5228TIP3   OH237098   5.048   1.465  17.203 -0.1713  0.3446 -0.0713
 5228TIP3    H137099   5.049   1.507  17.117 -1.4456  1.8064  0.5869
 5228TIP3    H237100   4.997   1.524  17.258 -2.9754 -2.5406  0.7012
 5229TIP3   OH237101   5.352   3.235   3.381 -0.0912  0.1383 -0.4165
 5229TIP3    H137102   5.281   3.196   3.432 -0.4873  1.2778 -0.0652
 5229TIP3    H237103   5.314   3.249   3.294 -0.9103  2.3376  0.2320
 5230TIP3   OH237104   4.418   1.901  17.174  0.5137 -0.1301 -0.4765
 5230TIP3    H137105   4.364   1.946  17.240  0.4677  1.0585 -1.2919
 5230TIP3    H237106   4.373   1.919  17.091  1.2302 -0.5868 -0.9657
 5231TIP3   OH237107   5.037   3.986  11.504  0.1572  0.1784  0.6238
 5231TIP3    H137108   5.118   4.017  11.544 -0.1879  0.0989  1.4037
 5231TIP3    H237109   5.025   4.042  11.427 -0.7745  2.4325  2.3058
 5232TIP3   OH237110   6.158   5.457  12.562  0.3873 -0.2443  0.1807
 5232TIP3    H137111   6.065   5.482  12.557  0.2956 -0.8567 -3.4157
 5232TIP3    H237112   6.201   5.536  12.594 -1.2366  0.2975  1.2124
 5233TIP3   OH237113   4.881   5.743   5.296 -0.5558 -0.3366 -0.2885
 5233TIP3    H137114   4.925   5.689   5.362 -1.0761 -2.0965 -1.3096
 5233TIP3    H237115   4.805   5.691   5.270 -0.8112  0.6899 -1.6858
 5234TIP3   OH237116   1.712   6.368   2.070  0.0898 -0.1715 -0.2179
 5234TIP3    H137117   1.629   6.400   2.104 -1.2290 -1.9486 -1.5689
 5234TIP3    H237118   1.689   6.324   1.988  2.0694 -2.2014  0.2101
 5235TIP3   OH237119   2.683   1.199   0.077  0.0269  0.3172  0.1184
 5235TIP3    H137120   2.718   1.118   0.040 -0.1230  0.3997 -0.2173
 5235TIP3    H237121   2.683   1.260   0.003 -0.2215  0.5049  0.2727
 5236TIP3   OH237122   4.344   6.672  14.763  0.4196 -0.0276  0.5407
 5236TIP3    H137123   4.276   6.629  14.816 -0.9361  0.5030 -0.6924
 5236TIP3    H237124   4.308   6.758  14.743  1.3046  0.1336 -0.4456
 5237TIP3   OH237125   0.123   1.214   2.832 -0.5512 -0.1840 -0.1967
 5237TIP3    H137126   0.168   1.231   2.749 -0.4914  0.2817 -0.0727
 5237TIP3    H237127   0.101   1.301   2.866 -2.7842 -0.4102 -0.9163
 5238TIP3   OH237128   6.179   2.753   6.276  0.0350  0.0834 -0.0342
 5238TIP3    H137129   6.258   2.797   6.245 -0.5153  0.1769 -1.3801
 5238TIP3    H237130   6.187   2.753   6.371  1.4459  0.4706 -0.1293
 5239TIP3   OH237131   2.218   3.262  15.683  0.1828 -0.2121  0.2376
 5239TIP3    H137132   2.301   3.244  15.728  1.4673 -1.0452 -2.3092
 5239TIP3    H237133   2.221   3.209  15.604 -3.0719 -0.6685  0.2891
 5240TIP3   OH237134   0.078   5.431  11.851  0.2821  0.3803  0.1747
 5240TIP3    H137135   0.130   5.508  11.828  2.2099 -0.3246  1.8877
 5240TIP3    H237136   0.119   5.397  11.930 -0.7079 -2.2601 -0.3486
 5241TIP3   OH237137   4.558   1.791   1.420 -0.6608 -0.0358  0.8354
 5241TIP3    H137138   4.652   1.778   1.412  0.0127  2.7366  2.5768
 5241TIP3    H237139   4.527   1.798   1.330  1.1534  0.7937  0.2215
 5242TIP3   OH237140   3.496   3.234  15.477  0.3825 -0.0441 -0.3683
 5242TIP3    H137141   3.453   3.172  15.417  1.6343 -1.9280  0.5786
 5242TIP3    H237142   3.575   3.188  15.505  1.0040  1.7441  0.9406
 5243TIP3   OH237143   0.260   6.619   0.518  0.0623 -0.2521 -0.4565
 5243TIP3    H137144   0.246   6.664   0.435 -3.8859  2.2334  1.2263
 5243TIP3    H237145   0.350   6.641   0.543  0.6748  0.5878 -3.0925
 5244TIP3   OH237146   4.995   5.081   3.068 -0.1845  0.1709  0.5753
 5244TIP3    H137147   4.911   5.103   3.107 -0.1222 -0.0831  0.8557
 5244TIP3    H237148   5.030   5.012   3.124 -0.5221 -0.8828 -0.4761
 5245TIP3   OH237149   5.577   2.184   4.700 -0.2453 -0.1679  0.6941
 5245TIP3    H137150   5.520   2.178   4.623  0.9559 -2.0386 -0.0933
 5245TIP3    H237151   5.624   2.101   4.702  1.3386  0.7081  2.2210
 5246TIP3   OH237152   2.582   6.740  13.384 -0.1910  0.1476 -0.4363
 5246TIP3    H137153   2.561   6.782  13.468 -2.2594  0.4735 -1.0737
 5246TIP3    H237154   2.629   6.661  13.409 -0.2994  0.5001  1.0088
 5247TIP3   OH237155   3.663   4.813   5.236  0.0551  0.1577  0.0318
 5247TIP3    H137156   3.584   4.855   5.272  1.2908  1.8562  0.9135
 5247TIP3    H237157   3.645   4.720   5.242 -0.8316  0.4180  2.7956
 5248TIP3   OH237158   5.847   0.584  13.035  0.1679  0.4767 -0.5831
 5248TIP3    H137159   5.787   0.617  13.102 -0.6888 -1.0614 -0.5541
 5248TIP3    H237160   5.864   0.494  13.061  1.6230  0.5473 -1.2218
 5249TIP3   OH237161   0.620   1.776  16.842 -0.1257 -0.8082 -0.5471
 5249TIP3    H137162   0.549   1.773  16.907 -0.1382 -1.5513 -0.5850
 5249TIP3    H237163   0.640   1.869  16.832 -1.0011 -0.6013 -0.4326
 5250TIP3   OH237164   5.511   6.780   5.120  0.3433  0.2700  0.0385
 5250TIP3    H137165   5.548   6.867   5.126 -0.9616  1.0883 -2.1865
 5250TIP3    H237166   5.420   6.794   5.094  0.2711 -1.7355 -1.0725
 5251TIP3   OH237167   1.301   2.224  13.225  0.3701 -0.0128  0.0755
 5251TIP3    H137168   1.233   2.243  13.290  0.5756  0.1405  0.2473
 5251TIP3    H237169   1.356   2.159  13.267  0.2021 -0.3027 -0.1521
 5252TIP3   OH237170   0.353   5.442  11.331 -0.5101 -0.1124 -0.6721
 5252TIP3    H137171   0.295   5.440  11.256 -1.6461 -0.1596  0.1867
 5252TIP3    H237172   0.343   5.356  11.372 -3.2210  1.2817  1.9504
 5253TIP3   OH237173   3.216   1.013  10.731 -0.3610  0.3270  0.1255
 5253TIP3    H137174   3.295   1.056  10.764 -0.8428  1.7808 -0.5127
 5253TIP3    H237175   3.213   0.929  10.776  0.7640  0.8596  1.2419
 5254TIP3   OH237176   1.496   4.052  11.076 -0.3065 -0.2476 -0.4778
 5254TIP3    H137177   1.574   4.016  11.118  0.1138  0.9437 -0.2049
 5254TIP3    H237178   1.528   4.124  11.021 -0.9756 -1.1175 -2.0665
 5255TIP3   OH237179   4.125   4.660   2.219  0.5451 -0.2830  0.2472
 5255TIP3    H137180   4.209   4.617   2.235 -0.3566 -1.8782  0.9761
 5255TIP3    H237181   4.096   4.626   2.134 -0.6188 -1.9706  1.2604
 5256TIP3   OH237182   0.999   2.386   4.699  0.0874  0.5145  0.2959
 5256TIP3    H137183   1.015   2.379   4.793 -0.7691 -0.6278  0.3772
 5256TIP3    H237184   0.941   2.313   4.679  0.1379  0.8281 -1.1026
 5257TIP3   OH237185   0.132   2.731  16.881  0.1184  0.2100 -0.2045
 5257TIP3    H137186   0.127   2.657  16.821  1.4731  0.0096 -0.0928
 5257TIP3    H237187   0.051   2.726  16.932  0.6342 -1.8276  0.5144
 5258TIP3   OH237188   6.130   4.050   3.258 -0.0068  0.2710 -0.2137
 5258TIP3    H137189   6.045   4.092   3.239 -1.3279 -1.2786  1.8231
 5258TIP3    H237190   6.123   4.024   3.350  2.9606  0.6146  0.1895
 5259TIP3   OH237191   6.572   2.936   2.950 -0.5669 -0.2055 -0.6132
 5259TIP3    H137192   6.530   2.953   2.866  2.6090  1.0233 -2.1237
 5259TIP3    H237193   6.592   2.842   2.948 -0.9334 -0.2795 -1.0059
 5260TIP3   OH237194   3.933   4.487  12.174 -0.3153 -0.4709 -0.0981
 5260TIP3    H137195   3.902   4.442  12.253  0.8213 -0.0100  0.6319
 5260TIP3    H237196   4.005   4.432  12.142 -0.8849 -0.7526 -0.9354
 5261TIP3   OH237197   4.148   4.873  17.286 -0.1442  0.1660 -0.2481
 5261TIP3    H137198   4.059   4.871  17.321 -0.0664  0.5847 -0.0268
 5261TIP3    H237199   4.139   4.843  17.196 -0.5773  0.6581 -0.3720
 5262TIP3   OH237200   5.786   1.255  12.016  0.2119 -0.4343 -0.1904
 5262TIP3    H137201   5.776   1.166  11.981 -3.5640  0.0685 -0.7803
 5262TIP3    H237202   5.797   1.310  11.939  2.6987 -0.2940  0.1826
 5263TIP3   OH237203   2.680   4.120  14.430  0.0439 -0.6484  0.1749
 5263TIP3    H137204   2.679   4.170  14.512 -1.2494 -0.5888  0.1421
 5263TIP3    H237205   2.619   4.048  14.446 -1.4177  0.2115 -1.2369
 5264TIP3   OH237206   4.251   6.224  15.948  0.4510 -0.3479  0.0789
 5264TIP3    H137207   4.222   6.142  15.985  0.7299 -1.1598 -1.4052
 5264TIP3    H237208   4.241   6.288  16.019 -1.3808 -1.3007  0.7520
 5265TIP3   OH237209   4.252   1.674  12.311  0.6248  0.2459  0.3275
 5265TIP3    H137210   4.241   1.591  12.357  3.2740 -0.3758  0.0012
 5265TIP3    H237211   4.258   1.649  12.219 -0.2292  1.0036  0.0558
 5266TIP3   OH237212   3.885   4.936  11.083  0.2612 -0.3125 -0.1357
 5266TIP3    H137213   3.810   4.914  11.028 -0.6485  0.4570  0.7627
 5266TIP3    H237214   3.930   5.005  11.036 -0.9260  0.8628  0.3885
 5267TIP3   OH237215   3.725   4.722  11.396  0.2226  0.3136  0.0795
 5267TIP3    H137216   3.652   4.763  11.350  0.2953  1.6493  1.0698
 5267TIP3    H237217   3.764   4.794  11.447  1.6847 -0.5561  0.2444
 5268TIP3   OH237218   1.830   4.420  16.268 -0.4443  0.3406  0.4141
 5268TIP3    H137219   1.747   4.375  16.282 -1.1007  1.5446  0.4671
 5268TIP3    H237220   1.878   4.407  16.349 -0.9224  0.3400  0.7003
 5269TIP3   OH237221   3.026   4.961  11.661  0.0282 -0.3229 -0.1170
 5269TIP3    H137222   3.059   4.927  11.744  0.7582  1.3880  0.3264
 5269TIP3    H237223   3.096   5.018  11.629 -0.3695 -0.7142 -1.7643
 5270TIP3   OH237224   1.369   1.511   5.970 -0.7588  0.0276  0.4109
 5270TIP3    H137225   1.389   1.418   5.975  0.4171  0.1854 -0.6946
 5270TIP3    H237226   1.273   1.516   5.973 -0.8423 -1.2217  0.2081
 5271TIP3   OH237227   2.446   5.727   3.892 -0.4764 -0.3180 -0.0530
 5271TIP3    H137228   2.393   5.716   3.971  0.8163 -0.3696  0.8407
 5271TIP3    H237229   2.387   5.766   3.828 -1.2966  0.6187  1.2466
 5272TIP3   OH237230   0.029   0.313   0.849 -0.3470 -0.3166 -0.0003
 5272TIP3    H137231   0.054   0.391   0.799 -1.6506  1.9070  2.5816
 5272TIP3    H237232  -0.058   0.289   0.814  0.2683 -0.9953 -1.1353
 5273TIP3   OH237233   2.053   2.508  15.612 -0.5411  0.2325  0.1089
 5273TIP3    H137234   2.130   2.470  15.654  0.6180  0.7424 -1.4733
 5273TIP3    H237235   2.075   2.600  15.599 -1.8293  0.6272  0.4946
 5274TIP3   OH237236   6.251   3.699   2.630 -0.3151  0.3569 -0.1003
 5274TIP3    H137237   6.213   3.708   2.717  1.4068  0.8425  0.6614
 5274TIP3    H237238   6.341   3.731   2.640  0.1966 -0.3838 -1.8576
 5275TIP3   OH237239   1.426   6.651  15.446  0.0296 -0.2649  0.0886
 5275TIP3    H137240   1.358   6.670  15.382 -1.7683 -0.6413  1.8117
 5275TIP3    H237241   1.403   6.566  15.482  1.5902 -0.5425  0.5286
 5276TIP3   OH237242   1.039   0.485   2.546  0.5057  0.0098  0.1088
 5276TIP3    H137243   0.972   0.429   2.506  0.0010  0.0172  0.9266
 5276TIP3    H237244   1.104   0.497   2.477  1.8944 -3.5689  0.6099
 5277TIP3   OH237245   4.247   0.679  11.350 -0.1841  0.2768  0.4079
 5277TIP3    H137246   4.230   0.587  11.373 -2.1630  0.5254  0.1049
 5277TIP3    H237247   4.295   0.714  11.425  0.1652 -0.8706  0.7446
 5278TIP3   OH237248   6.764   5.488   1.392  0.2453 -0.0905 -0.1880
 5278TIP3    H137249   6.846   5.521   1.428 -0.0743 -0.4043  0.8691
 5278TIP3    H237250   6.714   5.566   1.369  0.8034  0.1016 -0.7784
 5279TIP3   OH237251   4.577   1.430  14.572  0.6173  0.1200 -0.4384
 5279TIP3    H137252   4.563   1.353  14.627  0.8148 -0.9074 -1.7773
 5279TIP3    H237253   4.535   1.408  14.489  0.5442  1.5303 -0.7969
 5280TIP3   OH237254   2.143   2.798   5.522 -0.0755  0.1116 -0.1097
 5280TIP3    H137255   2.098   2.872   5.479 -0.9762  0.0737  0.7460
 5280TIP3    H237256   2.162   2.737   5.450  2.1474  1.8468 -1.1176
 5281TIP3   OH237257   1.198   3.939   2.714  0.3731  0.4605 -0.0866
 5281TIP3    H137258   1.106   3.953   2.733  0.1766 -0.6285 -0.1800
 5281TIP3    H237259   1.244   3.987   2.784 -0.1817  2.6131 -1.1108
 5282TIP3   OH237260   5.405   3.505   3.022  0.4342 -0.1530  0.3360
 5282TIP3    H137261   5.460   3.433   2.993 -0.1952 -1.0101  1.2101
 5282TIP3    H237262   5.429   3.578   2.965  0.3659 -1.3216 -1.2448
 5283TIP3   OH237263   1.914   6.345  15.352  0.1959  0.3070 -0.4355
 5283TIP3    H137264   1.991   6.400  15.339  0.2528  0.6969  1.3765
 5283TIP3    H237265   1.851   6.377  15.286  0.6510  1.7588 -0.2090
 5284TIP3   OH237266   2.105   0.262  14.134 -0.3828  0.4555 -0.5198
 5284TIP3    H137267   2.071   0.249  14.045  0.6734 -0.6747 -0.7881
 5284TIP3    H237268   2.138   0.352  14.134  1.1706 -0.0589 -1.8542
 5285TIP3   OH237269   5.060   5.217  11.353 -0.7602 -0.1127  0.6113
 5285TIP3    H137270   5.056   5.128  11.387 -0.4828 -0.6612 -0.7428
 5285TIP3    H237271   5.044   5.273  11.430 -1.5185 -1.3288  1.3701
 5286TIP3   OH237272   6.759   1.893  14.469 -0.3072  0.7074  0.2189
 5286TIP3    H137273   6.763   1.916  14.376  0.5915  1.2413  0.3771
 5286TIP3    H237274   6.751   1.978  14.513  2.2701  0.7185  0.7807
 5287TIP3   OH237275   4.355   0.743  12.992  1.0175  0.0524 -0.0894
 5287TIP3    H137276   4.387   0.681  13.057  3.8268 -0.1237 -1.4572
 5287TIP3    H237277   4.431   0.797  12.971 -0.3602  1.5179 -1.6376
 5288TIP3   OH237278   1.258   1.727   0.183  0.3869 -0.4627 -0.0943
 5288TIP3    H137279   1.312   1.800   0.214 -0.7784  0.1902  0.4461
 5288TIP3    H237280   1.216   1.693   0.262  0.0169 -0.9769 -0.5018
 5289TIP3   OH237281   2.173   3.377  16.756  0.5787 -0.6876 -0.6289
 5289TIP3    H137282   2.211   3.436  16.691  1.0578  0.4799  0.6443
 5289TIP3    H237283   2.125   3.435  16.815  0.4599 -1.6707  0.2707
 5290TIP3   OH237284   5.757   6.434   3.220  0.1632  0.2269  0.6754
 5290TIP3    H137285   5.742   6.342   3.241 -1.1425 -0.0120 -1.1170
 5290TIP3    H237286   5.794   6.471   3.301  0.8850 -1.8775  1.3848
 5291TIP3   OH237287   3.480   3.323  11.790  0.2749  0.4137 -0.3754
 5291TIP3    H137288   3.414   3.385  11.760 -0.4999  0.2013  0.7986
 5291TIP3    H237289   3.556   3.377  11.811 -0.5106  1.0460  0.9620
 5292TIP3   OH237290   1.479   0.515   4.407  0.1570 -0.3816 -0.0961
 5292TIP3    H137291   1.403   0.481   4.360 -0.6332  0.4179  0.5932
 5292TIP3    H237292   1.540   0.539   4.337 -0.2307 -0.9736 -0.6567
 5293TIP3   OH237293   0.508   6.505   6.627  0.3456 -0.3186  0.1184
 5293TIP3    H137294   0.514   6.415   6.657  0.3637 -0.2401  0.3582
 5293TIP3    H237295   0.584   6.518   6.571  0.5091 -0.3633  0.3285
 5294TIP3   OH237296   4.731   1.411  13.433 -0.7638 -0.0428  0.9995
 5294TIP3    H137297   4.636   1.406  13.421 -0.7127 -0.3464  0.7068
 5294TIP3    H237298   4.744   1.487  13.490 -1.2782 -0.7269  2.0720
 5295TIP3   OH237299   5.962   1.845  13.050 -0.3220 -0.0211 -0.2148
 5295TIP3    H137300   6.013   1.923  13.028 -0.4033  0.3284  0.7538
 5295TIP3    H237301   5.926   1.865  13.137 -1.0432 -0.7921 -0.3299
 5296TIP3   OH237302   5.328   3.079   1.220  0.1853 -0.4215 -0.1418
 5296TIP3    H137303   5.393   3.032   1.273 -1.1201 -1.4101  0.6586
 5296TIP3    H237304   5.322   3.028   1.140  1.0939  0.2409 -0.6499
 5297TIP3   OH237305   4.344   2.128   4.869 -0.1787  0.3765 -0.1158
 5297TIP3    H137306   4.375   2.058   4.811 -0.4050  0.4117 -0.2812
 5297TIP3    H237307   4.291   2.183   4.813  0.1725  0.8013 -0.0360
 5298TIP3   OH237308   4.860   4.784   0.153  0.1284  0.0422  0.1709
 5298TIP3    H137309   4.936   4.824   0.195  1.3460 -1.8626 -0.0708
 5298TIP3    H237310   4.898   4.727   0.085 -1.6685  1.3572 -2.0722
 5299TIP3   OH237311   1.935   5.739   2.020  0.2426  0.1553 -0.4738
 5299TIP3    H137312   1.885   5.820   2.030 -1.8483 -0.9889 -0.8311
 5299TIP3    H237313   1.927   5.719   1.926  1.4437 -0.0559 -0.5414
 5300TIP3   OH237314   6.556   3.421  11.685  0.0085  0.4709 -0.4145
 5300TIP3    H137315   6.648   3.419  11.659  0.5227  0.1094  1.3585
 5300TIP3    H237316   6.512   3.462  11.610  1.7957  1.9458 -0.7423
 5301TIP3   OH237317   6.692   5.262   4.722  0.0056  0.5167  0.7417
 5301TIP3    H137318   6.742   5.194   4.768  1.2720  0.9744  0.0856
 5301TIP3    H237319   6.759   5.314   4.677 -1.1495 -0.2034 -2.0408
 5302TIP3   OH237320   3.602   6.329   4.883  0.1400 -0.0503 -0.0682
 5302TIP3    H137321   3.540   6.355   4.951  1.3154 -1.2870  1.5540
 5302TIP3    H237322   3.555   6.344   4.801 -1.8714  0.1301  1.0519
 5303TIP3   OH237323   5.635   5.070  13.761  0.0522 -0.8473 -0.4131
 5303TIP3    H137324   5.708   5.119  13.799 -0.1319 -1.0325  0.1996
 5303TIP3    H237325   5.586   5.135  13.711 -0.2929 -0.3417  0.5394
 5304TIP3   OH237326   6.415   4.077  11.518  0.0619 -0.8492 -0.9081
 5304TIP3    H137327   6.459   4.033  11.590 -0.0240 -0.2305 -0.4672
 5304TIP3    H237328   6.425   4.170  11.537 -0.9778 -0.6873 -1.0771
 5305TIP3   OH237329   6.405   3.666   4.707  0.4614 -0.0804 -0.4470
 5305TIP3    H137330   6.334   3.648   4.645 -0.3630  1.0805  0.1324
 5305TIP3    H237331   6.361   3.687   4.789  1.5065 -0.2718  0.1825
 5306TIP3   OH237332   6.188   0.236  15.027 -0.2844  0.3226  0.5564
 5306TIP3    H137333   6.114   0.224  15.087 -0.8509  0.8439 -0.0225
 5306TIP3    H237334   6.217   0.326  15.043  1.6007 -0.5064  2.2779
 5307TIP3   OH237335   0.245   2.273  17.148  0.0996 -0.9810 -0.5074
 5307TIP3    H137336   0.248   2.283  17.243 -0.0313 -2.5443 -0.3043
 5307TIP3    H237337   0.287   2.352  17.114  2.1604 -1.3762  0.9104
 5308TIP3   OH237338   0.236   0.853  12.004 -0.1566 -0.2168 -0.2800
 5308TIP3    H137339   0.292   0.781  11.974 -0.9083 -0.7910 -0.3299
 5308TIP3    H237340   0.195   0.886  11.924  0.2402  0.3305 -0.2670
 5309TIP3   OH237341   3.501   0.746   0.336  0.1972 -0.4147 -0.1622
 5309TIP3    H137342   3.480   0.652   0.334  1.7571 -0.7921  0.0208
 5309TIP3    H237343   3.527   0.762   0.426 -1.2045  0.4975  0.1129
 5310TIP3   OH237344   5.074   4.888  13.128 -0.3747 -0.6126 -0.5061
 5310TIP3    H137345   5.123   4.896  13.210 -1.5325  0.4803  0.1139
 5310TIP3    H237346   5.114   4.952  13.070 -1.5251  0.8655  0.2668
 5311TIP3   OH237347   6.045   6.590  14.084 -0.1211 -0.5062 -0.2691
 5311TIP3    H137348   6.128   6.624  14.050  0.5464 -1.9063 -0.1115
 5311TIP3    H237349   6.070   6.540  14.162 -1.1416 -0.7362 -0.0792
 5312TIP3   OH237350   0.612   3.319   4.209  0.2147 -0.2529  0.1845
 5312TIP3    H137351   0.616   3.361   4.295 -1.9478  1.8800 -0.6384
 5312TIP3    H237352   0.666   3.374   4.152  0.3592 -0.7307 -0.1454
 5313TIP3   OH237353   1.890   5.633  12.961  0.5197 -0.2328  0.3424
 5313TIP3    H137354   1.971   5.682  12.975 -0.5025  1.8549 -0.5913
 5313TIP3    H237355   1.917   5.556  12.912  2.1242 -0.3498  1.3467
 5314TIP3   OH237356   1.724   5.944  11.670  0.7755  0.5259  0.0029
 5314TIP3    H137357   1.764   6.022  11.708  0.4949  1.0609 -0.7661
 5314TIP3    H237358   1.796   5.901  11.623  1.2994 -0.5315  1.6848
 5315TIP3   OH237359   4.003   5.479  15.745  0.8936  0.4311 -0.5202
 5315TIP3    H137360   4.063   5.550  15.723  0.8787  1.0438  1.2943
 5315TIP3    H237361   3.945   5.516  15.812 -0.0557 -0.8540 -0.5967
 5316TIP3   OH237362   5.137   0.122   5.655 -0.5864  1.0066 -0.3411
 5316TIP3    H137363   5.145   0.056   5.586 -2.3555  0.6804 -0.2743
 5316TIP3    H237364   5.220   0.169   5.653  0.8659 -1.4033 -0.1737
 5317TIP3   OH237365   6.526   5.402  13.666 -0.7014 -0.1552  0.0977
 5317TIP3    H137366   6.473   5.356  13.601 -1.4438 -1.2278  1.4150
 5317TIP3    H237367   6.614   5.403  13.629 -1.2901  0.1839 -1.3721
 5318TIP3   OH237368   0.926   0.712   1.021  0.2193 -0.3311  0.1313
 5318TIP3    H137369   0.992   0.769   1.060  0.3079 -0.8347  0.7445
 5318TIP3    H237370   0.881   0.672   1.096 -0.7104 -0.0878 -0.2733
 5319TIP3   OH237371   1.172   5.784   3.445 -0.2310  0.5982  0.4359
 5319TIP3    H137372   1.209   5.865   3.481  1.3008 -0.8799  2.4299
 5319TIP3    H237373   1.104   5.759   3.508  0.5594 -0.5706  0.8658
 5320TIP3   OH237374   5.213   3.390  14.494 -0.0524  0.4679  0.5146
 5320TIP3    H137375   5.161   3.331  14.549 -2.6089  1.8486 -0.2684
 5320TIP3    H237376   5.247   3.333  14.424 -2.3683 -0.1904 -0.1735
 5321TIP3   OH237377   6.036   1.167  15.350 -0.4249 -0.7443 -0.7130
 5321TIP3    H137378   5.998   1.220  15.280  2.6293  0.3549 -1.6705
 5321TIP3    H237379   5.997   1.203  15.430 -0.2503  1.3534 -1.5164
 5322TIP3   OH237380   1.375   2.393   2.096 -0.4371 -0.1114  0.1501
 5322TIP3    H137381   1.344   2.376   2.007  1.1865  1.7464 -0.8484
 5322TIP3    H237382   1.434   2.320   2.115 -0.6307 -0.4122 -0.3777
 5323TIP3   OH237383   4.997   4.338  12.809  0.1132  0.2257 -0.4295
 5323TIP3    H137384   4.913   4.292  12.804 -0.3274  1.0205 -0.3928
 5323TIP3    H237385   5.001   4.371  12.899 -0.0247  1.1003 -0.7399
 5324TIP3   OH237386   1.764   3.487   1.444  0.1674 -0.3967  0.6832
 5324TIP3    H137387   1.700   3.554   1.422  0.3296 -0.6008 -0.4813
 5324TIP3    H237388   1.765   3.429   1.368  0.6919 -1.2053  1.2882
 5325TIP3   OH237389   1.279   4.901   4.559 -0.0632 -0.0351  0.0415
 5325TIP3    H137390   1.272   4.889   4.464 -0.2416  0.6954 -0.0425
 5325TIP3    H237391   1.225   4.831   4.596 -1.3594  0.6707 -0.4398
 5326TIP3   OH237392   4.026   4.891   1.550 -0.0925 -0.1891  0.0843
 5326TIP3    H137393   4.022   4.805   1.508  0.8950 -0.3266  0.2435
 5326TIP3    H237394   3.970   4.946   1.496  1.2593 -0.3154 -1.5445
 5327TIP3   OH237395   3.237   2.187  11.783 -0.0617 -0.3511 -0.0736
 5327TIP3    H137396   3.258   2.264  11.836 -0.1580 -1.9354  2.4712
 5327TIP3    H237397   3.150   2.160  11.813 -0.3297 -1.0744 -1.4051
 5328TIP3   OH237398   5.712   4.743   5.778 -0.0183 -0.7811  0.3593
 5328TIP3    H137399   5.651   4.670   5.790 -1.4371  0.6835  3.0044
 5328TIP3    H237400   5.780   4.728   5.844  1.6208 -1.4592 -1.3935
 5329TIP3   OH237401   5.072   1.203  16.728 -0.1409 -0.3408 -0.5647
 5329TIP3    H137402   5.070   1.145  16.652  0.3698  1.7976 -2.3224
 5329TIP3    H237403   4.983   1.238  16.734 -0.4174 -1.1839  0.4126
 5330TIP3   OH237404   0.994   4.081   0.367 -0.1369 -0.4013 -0.4510
 5330TIP3    H137405   0.977   4.115   0.455  0.5547  0.5199 -0.6420
 5330TIP3    H237406   1.051   4.005   0.381 -0.7874 -0.8182 -0.0599
 5331TIP3   OH237407   1.431   2.056   3.029  0.2969  0.1818  0.3804
 5331TIP3    H137408   1.350   2.087   3.068 -0.7997 -1.8646 -0.1407
 5331TIP3    H237409   1.476   2.135   3.000 -2.1356  1.2912 -0.5625
 5332TIP3   OH237410   5.672   4.759  13.367 -0.2797 -0.4211  0.2947
 5332TIP3    H137411   5.724   4.692  13.411  0.5363  1.7436  2.9199
 5332TIP3    H237412   5.583   4.745  13.399  0.0301  0.1739  1.4671
 5333TIP3   OH237413   1.730   0.271   2.034 -0.0663  0.1035  0.2382
 5333TIP3    H137414   1.764   0.185   2.011 -1.5891  0.0223 -2.0010
 5333TIP3    H237415   1.797   0.332   2.002  1.0004 -0.1613  1.8037
 5334TIP3   OH237416   1.288   1.819  16.625 -0.0151  0.0190 -0.1976
 5334TIP3    H137417   1.381   1.804  16.607 -0.5042 -3.7534 -0.3124
 5334TIP3    H237418   1.281   1.816  16.720  0.0285  1.2145 -0.1343
 5335TIP3   OH237419   0.873   1.974   5.956  0.4305  0.3432 -0.2564
 5335TIP3    H137420   0.883   1.987   6.051 -0.1390 -0.1698 -0.1132
 5335TIP3    H237421   0.805   1.906   5.949  1.2612 -0.4271 -1.0043
 5336TIP3   OH237422   6.034   4.702   1.120  0.7297 -0.1149  0.2212
 5336TIP3    H137423   6.074   4.750   1.047  0.8694  2.3116  1.8010
 5336TIP3    H237424   5.971   4.643   1.078  0.2046  1.7629 -1.8246
 5337TIP3   OH237425   6.361   1.082  10.778 -0.2623  0.8762  0.0239
 5337TIP3    H137426   6.301   1.154  10.799  2.5999  3.3953  0.1654
 5337TIP3    H237427   6.425   1.120  10.719  0.9854 -1.8065 -0.5200
 5338TIP3   OH237428   1.839   2.404  12.626  0.0561 -0.3473 -0.1038
 5338TIP3    H137429   1.861   2.413  12.719  0.2333 -2.0805  0.0693
 5338TIP3    H237430   1.881   2.479  12.584  0.3055  0.2509  1.1625
 5339TIP3   OH237431   0.171   2.032   2.422 -0.2193 -0.0935  0.4339
 5339TIP3    H137432   0.167   2.033   2.327  0.7538  0.5065  0.3832
 5339TIP3    H237433   0.171   2.125   2.447  1.6774 -0.1796  0.8900
 5340TIP3   OH237434   5.278   4.216   1.054  0.1374 -0.1080 -0.0078
 5340TIP3    H137435   5.367   4.182   1.052  0.1664 -0.3015  1.9407
 5340TIP3    H237436   5.242   4.184   1.138 -1.3671  0.9064 -0.2190
 5341TIP3   OH237437   5.962   2.713  12.139 -0.1567  0.6029  0.1940
 5341TIP3    H137438   5.890   2.654  12.161  0.3250 -0.4916 -1.0644
 5341TIP3    H237439   6.016   2.715  12.218 -0.2759 -0.5120  0.3150
 5342TIP3   OH237440   6.303   3.268   2.743  0.4819  0.1885  0.2124
 5342TIP3    H137441   6.309   3.306   2.831 -0.8008  1.7618 -0.3294
 5342TIP3    H237442   6.357   3.325   2.689 -0.0750  0.2262 -0.3143
 5343TIP3   OH237443   5.358   6.083  15.006 -0.2495  0.3925 -0.1330
 5343TIP3    H137444   5.350   6.119  14.918  3.3098  2.7066  0.2736
 5343TIP3    H237445   5.384   5.992  14.992 -3.4117 -0.4733 -1.2793
 5344TIP3   OH237446   1.884   1.369   4.633 -0.0555  0.0326 -0.2285
 5344TIP3    H137447   1.843   1.456   4.638 -2.2471 -1.0120  1.3610
 5344TIP3    H237448   1.844   1.320   4.705  1.4458 -2.1935 -0.8299
 5345TIP3   OH237449   2.359   2.189  14.668  0.3692 -0.0918  0.0259
 5345TIP3    H137450   2.430   2.209  14.607 -0.1033  0.3119 -0.4079
 5345TIP3    H237451   2.283   2.235  14.631  0.1995  0.6194  1.2137
 5346TIP3   OH237452   4.546   0.499   5.920 -0.5656  0.1869  0.1984
 5346TIP3    H137453   4.504   0.431   5.972  0.8522 -0.2475  0.8165
 5346TIP3    H237454   4.564   0.569   5.982 -0.9531  0.6457 -0.1988
 5347TIP3   OH237455   6.118   0.754   2.676 -0.3574  0.4273 -0.4527
 5347TIP3    H137456   6.163   0.700   2.610 -0.4008  3.1739 -2.9604
 5347TIP3    H237457   6.187   0.811   2.711 -1.0880  2.0011 -1.4573
 5348TIP3   OH237458   6.400   4.123   1.028 -0.1708  0.1695  0.0958
 5348TIP3    H137459   6.377   4.040   1.070  1.2798  0.9622  2.6786
 5348TIP3    H237460   6.496   4.122   1.024 -0.1473  1.5588 -0.1444
 5349TIP3   OH237461   3.028   2.941  14.582 -0.6826  0.0403  0.0241
 5349TIP3    H137462   3.113   2.975  14.611 -0.2575 -1.3543  0.4832
 5349TIP3    H237463   2.993   2.896  14.659 -1.5925  0.1179 -0.3315
 5350TIP3   OH237464   3.062   5.748  13.314 -0.8542 -0.3025 -0.1188
 5350TIP3    H137465   3.098   5.665  13.346 -0.2792  0.0373  0.1228
 5350TIP3    H237466   3.131   5.785  13.258 -0.8053  0.3651  0.3693
 5351TIP3   OH237467   4.754   0.357  15.920 -0.0153  0.0212  0.4551
 5351TIP3    H137468   4.773   0.352  16.014  0.9798  0.6742  0.3044
 5351TIP3    H237469   4.787   0.275  15.884 -0.5125 -0.2848  0.6908
 5352TIP3   OH237470   0.030   3.296  16.753 -0.2065 -0.3878  0.1902
 5352TIP3    H137471  -0.027   3.272  16.680  0.7372 -0.1902 -0.6291
 5352TIP3    H237472   0.045   3.390  16.742 -0.4848 -0.2422  0.9589
 5353TIP3   OH237473   1.817   4.961   1.201 -0.5252  0.0233  0.1762
 5353TIP3    H137474   1.783   4.873   1.217  0.7751 -0.7070 -0.8545
 5353TIP3    H237475   1.747   5.019   1.230 -0.4759 -1.2414  3.2417
 5354TIP3   OH237476   1.198   1.896  11.879  0.4217 -0.2243 -0.4614
 5354TIP3    H137477   1.146   1.857  11.809 -2.1296  0.2058  1.0991
 5354TIP3    H237478   1.159   1.982  11.894  1.9263  0.3554  0.4542
 5355TIP3   OH237479   4.852   4.552   3.774  0.4238  0.0170 -0.9838
 5355TIP3    H137480   4.790   4.603   3.825  0.7965 -0.3910 -0.0890
 5355TIP3    H237481   4.800   4.480   3.737  0.5730 -1.1354  0.9113
 5356TIP3   OH237482   2.420   1.577   4.728  0.6261  0.4216  0.0105
 5356TIP3    H137483   2.330   1.602   4.710  0.5482  0.7206  0.7633
 5356TIP3    H237484   2.418   1.482   4.736  0.8126  0.1715 -2.2623
 5357TIP3   OH237485   1.496   1.241  12.513 -0.3868  0.3522 -0.7324
 5357TIP3    H137486   1.429   1.186  12.554 -1.9328  0.2252 -3.2348
 5357TIP3    H237487   1.568   1.182  12.495 -1.1247 -0.3920 -1.3363
 5358TIP3   OH237488   5.819   5.118  14.431  0.3521 -0.0759 -0.1977
 5358TIP3    H137489   5.792   5.194  14.379 -0.5730 -1.0193 -1.1397
 5358TIP3    H237490   5.911   5.105  14.408 -0.4442 -1.4496 -2.9166
 5359TIP3   OH237491   2.038   2.427  13.316 -0.2816 -0.2678  0.0049
 5359TIP3    H137492   1.991   2.510  13.314 -1.0441 -0.6463  1.0946
 5359TIP3    H237493   2.127   2.451  13.342 -0.8888  0.1016  1.9378
 5360TIP3   OH237494   4.590   2.170   4.420  0.1699 -0.2401 -0.5325
 5360TIP3    H137495   4.516   2.117   4.389 -1.8570  1.7477  0.5821
 5360TIP3    H237496   4.640   2.111   4.476 -1.0268 -1.4628 -0.6813
 5361TIP3   OH237497   3.016   0.332   4.465  0.2046 -0.0139 -0.6009
 5361TIP3    H137498   2.992   0.241   4.479  1.0588 -0.3526 -1.2818
 5361TIP3    H237499   3.097   0.329   4.414  0.2087  1.1228 -0.7003
 5362TIP3   OH237500   1.712   4.811   2.651 -0.1291 -0.0850  0.1297
 5362TIP3    H137501   1.783   4.748   2.662  0.4291  0.4631 -0.2589
 5362TIP3    H237502   1.659   4.801   2.730 -0.8254 -1.9783 -0.5192
 5363TIP3   OH237503   1.294   3.102   2.096 -0.0326  0.7335  0.5917
 5363TIP3    H137504   1.266   3.013   2.079 -0.9271  1.1033  0.0497
 5363TIP3    H237505   1.280   3.148   2.013 -1.6938  1.8963  1.4569
 5364TIP3   OH237506   4.721   4.461  16.746  0.0773  0.1913  0.1094
 5364TIP3    H137507   4.680   4.380  16.717  1.3912 -0.9407  1.2429
 5364TIP3    H237508   4.649   4.522  16.757 -1.0974 -1.2006  0.4062
 5365TIP3   OH237509   5.798   0.466   1.688 -0.4620  0.0607 -0.4576
 5365TIP3    H137510   5.870   0.440   1.746 -2.0008  0.8275  1.9249
 5365TIP3    H237511   5.775   0.385   1.641  0.0461 -0.9018  0.9001
 5366TIP3   OH237512   5.703   6.579  10.666 -0.1306  0.1805  0.1294
 5366TIP3    H137513   5.676   6.649  10.726 -1.4951  0.7947 -1.1418
 5366TIP3    H237514   5.794   6.600  10.644 -0.5161  1.6075 -0.2479
 5367TIP3   OH237515   5.845   1.522   1.336  0.4499  0.0705 -0.1897
 5367TIP3    H137516   5.922   1.509   1.280  2.0442  0.2796  1.8354
 5367TIP3    H237517   5.834   1.617   1.340 -0.2449  0.0275 -0.8608
 5368TIP3   OH237518   0.639   0.118  12.913 -0.3504  0.8480 -0.3784
 5368TIP3    H137519   0.677   0.058  12.977 -1.5580 -0.6881 -1.0331
 5368TIP3    H237520   0.567   0.160  12.959 -0.0731  1.1291 -0.1949
 5369TIP3   OH237521   4.173   5.236  13.199  0.0354 -0.0626 -0.0327
 5369TIP3    H137522   4.218   5.288  13.265 -0.5148 -0.7622  0.9178
 5369TIP3    H237523   4.211   5.148  13.207 -1.2873 -0.6087  0.6296
 5370TIP3   OH237524   2.573   5.025  11.021  0.7209 -0.7581 -0.1846
 5370TIP3    H137525   2.550   5.115  11.043  0.7548 -1.3673  2.7309
 5370TIP3    H237526   2.497   4.991  10.974  0.7904  0.8019 -1.5143
 5371TIP3   OH237527   2.084   6.228  15.075 -0.2450 -0.0902  0.4521
 5371TIP3    H137528   2.020   6.271  15.019 -0.3145  0.5452  1.0092
 5371TIP3    H237529   2.040   6.148  15.104 -1.4845  1.1444  2.1861
 5372TIP3   OH237530   1.803   3.688  11.321  0.4214  0.5958 -0.3931
 5372TIP3    H137531   1.880   3.651  11.279  0.0712  0.1825 -0.6805
 5372TIP3    H237532   1.834   3.720  11.406  0.9738  0.7507 -0.6528
 5373TIP3   OH237533   5.245   1.976   3.717 -0.3798  0.0565 -0.2472
 5373TIP3    H137534   5.192   2.000   3.793  0.5045  2.2661 -0.2332
 5373TIP3    H237535   5.284   1.892   3.739 -0.5406  0.4224  1.5521
 5374TIP3   OH237536   2.399   2.212   2.085 -0.1798  0.5858 -0.2445
 5374TIP3    H137537   2.393   2.142   2.149 -1.5793  0.6999 -0.2154
 5374TIP3    H237538   2.492   2.237   2.084 -0.1805  0.8103  1.9791
 5375TIP3   OH237539   0.037   4.380  12.636  0.0445  0.1593 -0.1033
 5375TIP3    H137540   0.104   4.441  12.667 -0.3300  0.1738  0.7041
 5375TIP3    H237541  -0.044   4.431  12.637  0.0301  0.1843 -1.2111
 5376TIP3   OH237542   1.426   6.639   1.079 -0.2524 -0.3581  0.3842
 5376TIP3    H137543   1.452   6.673   0.993  0.3819 -1.7088 -0.0037
 5376TIP3    H237544   1.508   6.606   1.116 -0.9745 -2.6125  0.1454
 5377TIP3   OH237545   6.296   5.683  12.608  0.5397  0.3154 -0.2200
 5377TIP3    H137546   6.241   5.684  12.687  0.7165  0.3790 -0.0972
 5377TIP3    H237547   6.313   5.775  12.589 -0.2951  0.3434 -0.8886
 5378TIP3   OH237548   4.498   5.388   3.612  0.0100 -0.2937 -0.0812
 5378TIP3    H137549   4.490   5.294   3.629  0.7375 -0.0103  2.2141
 5378TIP3    H237550   4.567   5.417   3.672  0.2482  1.6137 -1.1986
 5379TIP3   OH237551   0.686   1.802  10.883 -0.0722 -0.3691  0.6837
 5379TIP3    H137552   0.669   1.866  10.813 -0.1420 -0.4995  0.5804
 5379TIP3    H237553   0.599   1.767  10.904 -0.0996 -0.0523  1.1019
 5380TIP3   OH237554   3.466   1.835  13.771  0.2416 -0.1245  0.0132
 5380TIP3    H137555   3.382   1.881  13.775  0.6370  0.7373 -1.1193
 5380TIP3    H237556   3.465   1.778  13.848 -0.6422  1.1207  0.9736
 5381TIP3   OH237557   4.406   2.753   2.955  0.0304  0.4301  0.3388
 5381TIP3    H137558   4.386   2.777   2.864 -0.2020  2.6812  0.9175
 5381TIP3    H237559   4.327   2.710   2.986  0.0423 -0.2012 -0.4657
 5382TIP3   OH237560   5.459   1.309   2.757  0.3277 -0.1296  0.1446
 5382TIP3    H137561   5.393   1.367   2.794 -0.9301 -0.8876 -0.8297
 5382TIP3    H237562   5.429   1.220   2.778  0.3464 -0.5304 -1.3544
 5383TIP3   OH237563   6.349   5.480  14.024 -0.0050  0.3586 -0.3079
 5383TIP3    H137564   6.305   5.553  13.980 -0.0366  0.4312 -0.1563
 5383TIP3    H237565   6.437   5.478  13.985 -0.8053 -1.1394 -2.1783
 5384TIP3   OH237566   3.991   2.746  13.324  0.1487 -0.6870  0.8366
 5384TIP3    H137567   3.973   2.790  13.407 -0.0060 -0.1154  0.5095
 5384TIP3    H237568   4.026   2.815  13.268  0.2779 -1.0760  0.4369
 5385TIP3   OH237569   5.733   4.658   0.190 -0.2371  0.0913 -0.2660
 5385TIP3    H137570   5.654   4.618   0.153 -0.1289  0.2277 -0.6448
 5385TIP3    H237571   5.709   4.680   0.280 -0.8890  0.8510 -0.6159
 5386TIP3   OH237572   5.522   4.800  11.888  0.3420  0.1179 -0.4957
 5386TIP3    H137573   5.473   4.736  11.939  1.4463  0.7342  1.4211
 5386TIP3    H237574   5.609   4.762  11.877  0.7190  0.8507 -0.1562
 5387TIP3   OH237575   3.087   2.903  14.292 -0.2007  0.1507  0.4044
 5387TIP3    H137576   3.035   2.824  14.277 -0.3964  0.3620 -0.0341
 5387TIP3    H237577   3.060   2.933  14.379  0.2990 -0.5877  0.8307
 5388TIP3   OH237578   5.395   3.401  16.063 -0.0519  0.1869 -0.5765
 5388TIP3    H137579   5.429   3.332  16.121  0.4814  1.1245  0.2410
 5388TIP3    H237580   5.461   3.470  16.066  0.3690 -0.0296 -2.8992
 5389TIP3   OH237581   4.807   1.940  12.767 -0.0153 -1.0521  0.4257
 5389TIP3    H137582   4.804   1.951  12.672  1.1173 -1.8835  0.2767
 5389TIP3    H237583   4.781   1.849  12.781  0.3076 -1.0764  0.8704
 5390TIP3   OH237584   0.172   1.619  14.127 -0.5828  0.0933  0.6411
 5390TIP3    H137585   0.177   1.658  14.040 -1.0769  0.8719  0.9470
 5390TIP3    H237586   0.132   1.533  14.112  0.4670 -0.2923 -0.0347
 5391TIP3   OH237587   5.839   2.701  16.020  0.2653  0.6468 -0.1979
 5391TIP3    H137588   5.925   2.742  16.036  0.5036  0.4279 -0.9111
 5391TIP3    H237589   5.791   2.766  15.968 -0.9007  1.8206  2.1678
 5392TIP3   OH237590   1.933   6.329  12.923  0.2272 -0.0269  0.1769
 5392TIP3    H137591   1.969   6.240  12.924  0.3628  0.0287  0.4115
 5392TIP3    H237592   1.977   6.373  12.997  0.7783  0.4756 -0.4386
 5393TIP3   OH237593   6.363   0.365   6.507 -0.3797 -0.0696  0.3004
 5393TIP3    H137594   6.373   0.271   6.490 -0.7436  0.0146 -0.4021
 5393TIP3    H237595   6.273   0.374   6.538 -0.2919  0.0312  0.5328
 5394TIP3   OH237596   2.723   2.825   1.880 -0.2446 -0.0275 -0.1962
 5394TIP3    H137597   2.787   2.890   1.850  0.4827 -0.9069 -0.6168
 5394TIP3    H237598   2.763   2.741   1.858 -1.5418 -0.6026 -0.4378
 5395TIP3   OH237599   2.591   3.225   3.386 -0.0509  0.1965 -0.3135
 5395TIP3    H137600   2.509   3.247   3.429 -0.3973  0.1894 -0.9650
 5395TIP3    H237601   2.567   3.209   3.295  0.6991  0.3473 -0.5407
 5396TIP3   OH237602   2.235   3.043  12.599  0.0840 -0.0115  0.0726
 5396TIP3    H137603   2.208   3.044  12.691 -1.6158  0.2334 -0.4106
 5396TIP3    H237604   2.263   3.132  12.581 -0.2818  0.1228  0.1601
 5397TIP3   OH237605   4.936   6.476  13.243 -0.4824  0.6645  0.7275
 5397TIP3    H137606   5.018   6.461  13.197 -0.7452  3.4145 -0.8523
 5397TIP3    H237607   4.899   6.388  13.256  1.9402 -0.5215  0.1384
 5398TIP3   OH237608   0.386   2.421  11.583  0.4368 -0.4244 -0.8544
 5398TIP3    H137609   0.379   2.487  11.514  1.2799  0.9753  0.3449
 5398TIP3    H237610   0.449   2.358  11.548  1.1815  0.4916 -1.2206
 5399TIP3   OH237611   5.956   3.979   2.902 -0.0763 -0.1552 -0.0300
 5399TIP3    H137612   5.987   4.031   2.828 -1.7436  0.6009 -0.2543
 5399TIP3    H237613   5.861   3.991   2.902 -0.6419 -3.4955 -0.3110
 5400TIP3   OH237614   0.457   1.957   5.792 -0.1248 -0.1961 -0.2752
 5400TIP3    H137615   0.487   1.931   5.705  1.9874 -0.5550  0.5068
 5400TIP3    H237616   0.450   2.053   5.786 -2.8368 -0.3904 -1.6242
 5401TIP3   OH237617   5.543   6.635   5.697 -0.3540  0.6262  0.2503
 5401TIP3    H137618   5.625   6.660   5.740  0.1555 -1.4588  0.6054
 5401TIP3    H237619   5.494   6.588   5.765 -0.7412 -0.3151 -0.6506
 5402TIP3   OH237620   6.556   6.079   6.247 -0.1043 -0.0851 -0.0373
 5402TIP3    H137621   6.620   6.009   6.244  0.8783  0.7279  1.2439
 5402TIP3    H237622   6.491   6.051   6.311 -0.8442 -0.7300 -1.0450
 5403TIP3   OH237623   0.281   0.768   1.409  0.1287  0.2367  0.7756
 5403TIP3    H137624   0.223   0.799   1.340  0.7939  0.5232  0.3452
 5403TIP3    H237625   0.222   0.732   1.475 -0.5341  0.4358  0.2967
 5404TIP3   OH237626   0.921   6.143  12.395  0.4040  0.1958  0.1559
 5404TIP3    H137627   1.004   6.150  12.442  1.4181  2.3053 -1.7127
 5404TIP3    H237628   0.924   6.056  12.355  0.2797 -0.9446  2.4688
 5405TIP3   OH237629   4.041   3.743  13.621 -0.3020  0.1550 -0.5541
 5405TIP3    H137630   4.095   3.821  13.607 -1.3214  0.9271 -0.3142
 5405TIP3    H237631   4.003   3.756  13.708 -1.6769  0.1336 -1.1353
 5406TIP3   OH237632   2.502   0.487  11.339  0.4881 -0.0352 -0.1193
 5406TIP3    H137633   2.457   0.540  11.404 -0.3362 -0.2532 -0.4986
 5406TIP3    H237634   2.450   0.498  11.259  2.1424  1.2023 -1.0856
 5407TIP3   OH237635   2.763   4.601   5.926  0.9145 -0.3421  0.3633
 5407TIP3    H137636   2.793   4.671   5.868 -0.9211 -0.2565 -0.5329
 5407TIP3    H237637   2.781   4.634   6.014  1.1183  0.7732 -0.0824
 5408TIP3   OH237638   1.079   3.236   2.219  0.0201 -0.0206 -0.2561
 5408TIP3    H137639   1.047   3.197   2.137  2.0283 -1.6846 -0.3234
 5408TIP3    H237640   1.082   3.163   2.281  1.0210  0.6667  0.5311
 5409TIP3   OH237641   5.758   3.326   3.428  0.1957 -0.8314 -0.2828
 5409TIP3    H137642   5.749   3.343   3.334 -1.7565  0.1499  0.0364
 5409TIP3    H237643   5.669   3.316   3.460  0.8703 -2.2795  1.3033
 5410TIP3   OH237644   2.517   1.362   5.744  0.1144 -0.4146 -0.0942
 5410TIP3    H137645   2.541   1.449   5.711 -0.2400  0.1812  1.1385
 5410TIP3    H237646   2.585   1.341   5.807 -0.2713 -0.6496  0.2484
 5411TIP3   OH237647   0.702   3.170  15.640  0.5916  0.3601  0.1150
 5411TIP3    H137648   0.706   3.125  15.555  0.8389  1.6730 -0.6146
 5411TIP3    H237649   0.686   3.262  15.616  1.1363  0.8256  1.4774
 5412TIP3   OH237650   0.498   1.933   3.325  0.4689 -0.3989 -0.2542
 5412TIP3    H137651   0.432   1.896   3.383 -0.5484 -0.4780 -1.4178
 5412TIP3    H237652   0.450   1.994   3.269  1.2174 -1.0096 -1.6270
 5413TIP3   OH237653   0.617   1.330   1.167  0.0386 -0.2508 -0.2791
 5413TIP3    H137654   0.709   1.356   1.165 -0.0233  0.2781  1.5525
 5413TIP3    H237655   0.599   1.312   1.260 -0.8910 -3.4619 -0.9730
 5414TIP3   OH237656   2.972   4.420   6.524 -0.3290  0.3373  0.2043
 5414TIP3    H137657   2.901   4.356   6.529 -0.6961  0.1804 -3.7680
 5414TIP3    H237658   2.928   4.502   6.499  0.5981  1.0280  0.7753
 5415TIP3   OH237659   0.729   0.596   3.446  0.2848 -0.5272  0.8107
 5415TIP3    H137660   0.746   0.682   3.485  0.6054  0.0198 -0.4531
 5415TIP3    H237661   0.799   0.586   3.381 -0.7195 -0.9834 -0.2380
 5416TIP3   OH237662   2.558   3.486   5.262  0.4620  0.2745  0.2010
 5416TIP3    H137663   2.513   3.503   5.345 -0.5317 -1.7976  0.1536
 5416TIP3    H237664   2.506   3.533   5.196 -0.9992 -1.0820  0.3149
 5417TIP3   OH237665   0.333   5.257   3.885  0.1416  0.3140  0.6541
 5417TIP3    H137666   0.252   5.251   3.935 -0.3283  0.1459 -0.1050
 5417TIP3    H237667   0.379   5.175   3.902 -0.3614 -0.0617  0.2334
 5418TIP3   OH237668   4.573   4.770  16.541 -0.2283  0.1837  0.0430
 5418TIP3    H137669   4.581   4.735  16.630  2.8699 -0.4134 -0.3421
 5418TIP3    H237670   4.557   4.693  16.487 -1.2973  0.4464 -0.0349
 5419TIP3   OH237671   5.058   0.291   1.969 -0.5096  0.2730  0.0268
 5419TIP3    H137672   5.032   0.367   2.021  1.2254 -0.0789  1.5159
 5419TIP3    H237673   4.976   0.241   1.958 -1.5531  2.0230 -0.4845
 5420TIP3   OH237674   0.799   2.801  14.797 -0.3086 -0.2782  0.3263
 5420TIP3    H137675   0.845   2.730  14.752 -1.1020 -0.9177  0.5139
 5420TIP3    H237676   0.709   2.795  14.765  0.1193  2.3089 -1.7218
 5421TIP3   OH237677   0.454   2.309  10.762 -0.4514 -0.2913  0.0335
 5421TIP3    H137678   0.406   2.305  10.845 -0.0756  1.3124  0.3474
 5421TIP3    H237679   0.535   2.262  10.779 -1.3270 -1.9707 -0.1436
 5422TIP3   OH237680   4.288   0.155   2.512 -0.4488 -0.3837 -0.2874
 5422TIP3    H137681   4.235   0.200   2.578 -2.1818 -0.1651 -1.7557
 5422TIP3    H237682   4.337   0.224   2.469 -0.0935 -0.3991  0.0923
 5423TIP3   OH237683   3.081   0.059   0.036 -0.1830 -0.0359  0.0528
 5423TIP3    H137684   3.060   0.050  -0.057  1.4437 -0.8886 -0.2628
 5423TIP3    H237685   3.155   0.121   0.038 -0.1501 -0.0903  0.7630
 5424TIP3   OH237686   4.214   6.462  16.275 -0.5714  0.0555  0.0981
 5424TIP3    H137687   4.268   6.403  16.327 -1.2243 -0.9914 -0.3927
 5424TIP3    H237688   4.256   6.462  16.189 -1.1395 -0.4849 -0.1837
 5425TIP3   OH237689   2.218   4.189  11.729 -0.2834 -0.3185  0.2732
 5425TIP3    H137690   2.296   4.141  11.756 -0.5614 -0.2708  1.2066
 5425TIP3    H237691   2.202   4.162  11.638  0.7962 -0.3433  0.0813
 5426TIP3   OH237692   2.912   6.612  12.820 -0.0094 -0.4091 -0.4491
 5426TIP3    H137693   2.817   6.625  12.821  0.2831  2.2584 -0.2374
 5426TIP3    H237694   2.948   6.698  12.798  2.4377 -0.7596  1.6523
 5427TIP3   OH237695   5.819   6.263  16.852 -0.3666 -0.2375 -0.4192
 5427TIP3    H137696   5.760   6.233  16.783 -0.6776 -0.3733 -0.0991
 5427TIP3    H237697   5.888   6.197  16.855  0.5806  0.6218 -1.7377
 5428TIP3   OH237698   4.782   5.952  13.657  0.1794 -0.2813  0.0035
 5428TIP3    H137699   4.814   5.979  13.744 -1.9502  2.0793  0.1683
 5428TIP3    H237700   4.765   5.858  13.666  1.7165 -0.4703  1.5396
 5429TIP3   OH237701   5.520   2.276  11.506 -0.0090  0.0801 -0.0933
 5429TIP3    H137702   5.455   2.231  11.560 -0.3074  0.2689 -0.2940
 5429TIP3    H237703   5.530   2.221  11.429  0.6046 -0.3199  0.2683
 5430TIP3   OH237704   3.610   2.893   3.831  0.1179  0.1829 -0.4535
 5430TIP3    H137705   3.620   2.822   3.895 -1.0826  0.9868  0.6796
 5430TIP3    H237706   3.636   2.854   3.747 -3.2107 -2.5362 -0.4300
 5431TIP3   OH237707   3.942   1.442   4.442 -0.0337 -0.4985 -0.5422
 5431TIP3    H137708   4.014   1.380   4.453  1.5222  0.9072 -2.0770
 5431TIP3    H237709   3.882   1.398   4.381  0.2379 -1.1348 -0.3604
 5432TIP3   OH237710   6.067   2.982  16.802  0.1784  0.2412 -0.0181
 5432TIP3    H137711   5.973   2.968  16.791 -0.2779  1.7340  1.4996
 5432TIP3    H237712   6.090   3.043  16.732 -0.1627  0.4664  0.0569
 5433TIP3   OH237713   0.188   4.790  13.624 -0.3048  0.1083 -0.2772
 5433TIP3    H137714   0.102   4.767  13.660 -0.3395 -0.8033 -0.9037
 5433TIP3    H237715   0.235   4.707  13.623  1.8120  1.0526  3.1823
 5434TIP3   OH237716   2.501   0.747  12.452 -0.4936  0.3809 -0.0552
 5434TIP3    H137717   2.507   0.779  12.543 -0.0697  2.0515 -0.6378
 5434TIP3    H237718   2.581   0.779  12.411  0.3236 -2.0896 -0.5478
 5435TIP3   OH237719   0.598   1.709  11.957  0.2971 -0.8715  0.0872
 5435TIP3    H137720   0.553   1.637  11.914  0.9680 -2.8288  2.4594
 5435TIP3    H237721   0.676   1.725  11.903  0.0950 -1.8357 -0.5094
 5436TIP3   OH237722   5.255   3.790  11.673 -0.4551  0.0583  0.3513
 5436TIP3    H137723   5.282   3.758  11.759 -2.2596  0.7451  1.2111
 5436TIP3    H237724   5.164   3.762  11.665 -0.9487  1.7922 -0.4328
 5437TIP3   OH237725   4.112   0.770   2.859 -0.2765  0.7261 -0.1922
 5437TIP3    H137726   4.131   0.766   2.765 -0.1442 -2.3063 -0.1404
 5437TIP3    H237727   4.198   0.766   2.900 -0.4103 -0.9223  0.0056
 5438TIP3   OH237728   3.272   0.013  12.911 -0.0410  0.3563  0.2595
 5438TIP3    H137729   3.357   0.050  12.933  0.5157 -0.9345  0.3861
 5438TIP3    H237730   3.290  -0.044  12.836 -0.4067 -1.3308  1.3881
 5439TIP3   OH237731   4.895   4.049   3.465 -0.0365  0.0453  0.3825
 5439TIP3    H137732   4.913   4.082   3.553  2.9974  3.5477 -1.2980
 5439TIP3    H237733   4.825   4.106   3.433 -0.9944 -1.0915  0.3913
 5440TIP3   OH237734   6.543   1.368   0.959 -0.0657 -0.5168 -0.2272
 5440TIP3    H137735   6.514   1.276   0.959 -2.7951  0.2486  0.5292
 5440TIP3    H237736   6.630   1.365   0.999 -0.4371 -2.6846  0.6022
 5441TIP3   OH237737   2.968   3.419   4.377  0.3914  0.6087  0.8461
 5441TIP3    H137738   2.917   3.372   4.444 -0.5797  1.3108  0.6285
 5441TIP3    H237739   2.958   3.512   4.400  1.7174  0.7586  0.8748
 5442TIP3   OH237740   2.600   1.926   4.203  0.0969  0.1694  0.6901
 5442TIP3    H137741   2.695   1.916   4.213  0.1955 -0.4501 -0.6844
 5442TIP3    H237742   2.581   1.891   4.116 -1.2021  1.6691  0.3246
 5443TIP3   OH237743   4.553   5.854  13.841  0.1211 -0.4964  0.9908
 5443TIP3    H137744   4.524   5.902  13.763  1.7271  1.1623  1.3348
 5443TIP3    H237745   4.556   5.921  13.910  1.6731 -1.2565  1.7074
 5444TIP3   OH237746   5.719   3.035   4.394  0.1206 -0.5991  0.5761
 5444TIP3    H137747   5.796   2.979   4.407  1.8578  1.2366 -1.0437
 5444TIP3    H237748   5.731   3.107   4.456 -0.3501 -0.3686  0.4035
 5445TIP3   OH237749   6.162   3.399   2.021 -0.2425  0.5943 -0.5504
 5445TIP3    H137750   6.109   3.389   2.100 -1.2459 -0.1585 -1.2988
 5445TIP3    H237751   6.104   3.374   1.950  1.4844 -1.5294 -1.2992
 5446TIP3   OH237752   3.118   1.829  12.241  0.3311  0.2647  0.5760
 5446TIP3    H137753   3.126   1.922  12.264 -1.4072  0.4773  0.4228
 5446TIP3    H237754   3.030   1.805  12.267  0.1138 -0.8738 -1.0562
 5447TIP3   OH237755   0.123   3.004   4.926  0.0029  0.1971 -0.1434
 5447TIP3    H137756   0.206   2.976   4.964  0.4470  0.8274 -0.6316
 5447TIP3    H237757   0.103   3.088   4.968 -0.9374 -0.4526  0.7558
 5448TIP3   OH237758   4.653   3.995  15.902  0.3003  0.2592  0.0042
 5448TIP3    H137759   4.696   4.001  15.817  1.3180 -0.7347  0.4155
 5448TIP3    H237760   4.689   4.068  15.953 -0.0506  0.6473 -0.2979
 5449TIP3   OH237761   1.999   6.634   5.401  0.0677  0.3377  0.3361
 5449TIP3    H137762   1.975   6.543   5.416 -1.5621  0.7384  0.3464
 5449TIP3    H237763   2.093   6.632   5.383 -0.3003 -1.5956 -1.7848
 5450TIP3   OH237764   3.689   5.421  14.905 -0.5414 -0.2063  0.0589
 5450TIP3    H137765   3.782   5.427  14.883 -0.1776 -0.0991  1.5294
 5450TIP3    H237766   3.653   5.360  14.840  0.5999 -0.4511 -0.3703
 5451TIP3   OH237767   4.456   6.282   4.218  0.1272  0.0717  0.3889
 5451TIP3    H137768   4.413   6.368   4.219  1.1535  0.6068 -0.0320
 5451TIP3    H237769   4.406   6.231   4.154  0.6670  0.9991 -0.8211
 5452TIP3   OH237770   0.453   0.418  11.474  0.0769  0.8573  0.3331
 5452TIP3    H137771   0.482   0.351  11.536 -0.6573  0.3238  0.1022
 5452TIP3    H237772   0.395   0.373  11.414 -2.6613  2.2036  1.7938
 5453TIP3   OH237773   2.137   4.223   2.968  0.1669 -0.0912  0.0780
 5453TIP3    H137774   2.191   4.144   2.969  1.2969  0.6561 -0.0377
 5453TIP3    H237775   2.082   4.213   2.890 -1.1526 -1.6701  1.1299
 5454TIP3   OH237776   6.590   2.448   1.329 -0.0062  0.0612  0.0820
 5454TIP3    H137777   6.577   2.355   1.311 -1.3975  0.4189 -0.9457
 5454TIP3    H237778   6.632   2.482   1.249  1.3294  0.1645  0.8062
 5455TIP3   OH237779   3.475   5.724  15.488 -0.3728  0.3221  0.7353
 5455TIP3    H137780   3.479   5.678  15.404  0.4494 -0.1816  1.0439
 5455TIP3    H237781   3.392   5.773  15.484 -0.6461 -0.1850 -0.1082
 5456TIP3   OH237782   1.630   1.814   3.837 -0.1315  0.0471 -1.0588
 5456TIP3    H137783   1.548   1.832   3.792  0.5743 -0.0301 -2.4443
 5456TIP3    H237784   1.622   1.859   3.921 -0.9341  1.4741 -1.8561
 5457TIP3   OH237785   6.159   4.705  12.580 -0.3562  0.3280  0.2624
 5457TIP3    H137786   6.098   4.764  12.536 -0.3846 -0.1926 -0.4154
 5457TIP3    H237787   6.194   4.650  12.510 -0.9282 -1.0003  0.9743
 5458TIP3   OH237788   6.395   4.066  14.832  0.3558 -0.2125 -0.5764
 5458TIP3    H137789   6.347   4.041  14.753 -2.3019  0.2995  0.7658
 5458TIP3    H237790   6.409   3.983  14.879 -1.5501 -0.1431  0.2000
 5459TIP3   OH237791   0.740   0.965  13.632  0.4001 -0.7501 -0.4332
 5459TIP3    H137792   0.827   0.943  13.599  1.0951  0.9374  0.1757
 5459TIP3    H237793   0.706   1.029  13.569 -0.0158 -0.6999 -0.1638
 5460TIP3   OH237794   0.513   6.447   2.564 -0.2396  0.1315 -0.4026
 5460TIP3    H137795   0.471   6.404   2.490 -0.1431  1.2050 -1.0994
 5460TIP3    H237796   0.444   6.456   2.630 -0.5574 -0.0099 -0.7162
 5461TIP3   OH237797   0.645   1.355  13.182 -0.2161 -0.2113  0.3109
 5461TIP3    H137798   0.628   1.383  13.092  2.3512  0.2867 -0.1137
 5461TIP3    H237799   0.641   1.436  13.233  2.3989  0.2748 -0.1139
 5462TIP3   OH237800   5.678   0.550   4.125  0.3718  0.0561  0.6575
 5462TIP3    H137801   5.588   0.568   4.153  0.7237 -0.7501  2.4782
 5462TIP3    H237802   5.707   0.631   4.084 -0.7405  0.7937  1.2553
 5463TIP3   OH237803   1.110   4.242  11.483 -0.2985 -0.0384  0.7322
 5463TIP3    H137804   1.048   4.180  11.446  0.1956  0.1873 -0.5459
 5463TIP3    H237805   1.120   4.309  11.415 -0.8231  1.4557  2.0631
 5464TIP3   OH237806   0.059   5.040  14.537  0.6481  0.2209 -0.1142
 5464TIP3    H137807   0.022   4.956  14.566  2.9482 -0.8076  0.0708
 5464TIP3    H237808   0.091   5.023  14.448  1.0069  0.9272 -0.1297
 5465TIP3   OH237809   0.155   4.622  16.267 -0.1452 -0.3746  0.1726
 5465TIP3    H137810   0.233   4.675  16.251 -0.2506  0.3199  1.8243
 5465TIP3    H237811   0.118   4.657  16.348 -2.5141 -0.3153 -0.8709
 5466TIP3   OH237812   5.262   3.269  15.530  0.2994  0.2897 -0.5851
 5466TIP3    H137813   5.247   3.197  15.470  1.1805 -0.1175 -0.3367
 5466TIP3    H237814   5.176   3.287  15.568  0.0725 -0.6542 -0.6236
 5467TIP3   OH237815   6.006   3.730   0.096 -0.2299  0.2920 -0.0561
 5467TIP3    H137816   6.075   3.796   0.083  1.8433 -1.7968 -0.2316
 5467TIP3    H237817   6.013   3.707   0.189 -0.0461 -0.6051 -0.2896
 5468TIP3   OH237818   4.333   0.145  13.784 -0.0644  0.4044 -0.0454
 5468TIP3    H137819   4.293   0.067  13.745 -0.3246  0.5340 -0.0457
 5468TIP3    H237820   4.342   0.206  13.710  1.0629  0.0123 -0.2421
 5469TIP3   OH237821   5.823   4.377  16.688 -0.1186 -0.1082 -0.3419
 5469TIP3    H137822   5.833   4.361  16.782  2.4053  0.1737 -0.5031
 5469TIP3    H237823   5.732   4.407  16.679 -0.5846 -0.6232  1.9114
 5470TIP3   OH237824   3.538   2.840  14.938  0.2970  0.4147 -0.3672
 5470TIP3    H137825   3.499   2.753  14.951  1.7375 -0.4645 -1.4929
 5470TIP3    H237826   3.618   2.838  14.991  0.2321  1.1307 -0.2444
 5471TIP3   OH237827   6.355   2.785  14.268 -0.1154 -0.4371  0.1750
 5471TIP3    H137828   6.307   2.868  14.270 -1.2424 -1.0806  0.6655
 5471TIP3    H237829   6.347   2.755  14.178 -0.8292 -0.6467  0.3048
 5472TIP3   OH237830   4.382   6.293  13.033  0.0625  0.2262 -0.6049
 5472TIP3    H137831   4.413   6.364  13.090 -2.3465  0.1726  0.9099
 5472TIP3    H237832   4.291   6.314  13.016 -0.3185 -1.8060 -1.2953
 5473TIP3   OH237833   3.762   0.896  17.282 -0.5100  0.4533  0.4162
 5473TIP3    H137834   3.684   0.895  17.225 -1.1551 -0.2711  1.2801
 5473TIP3    H237835   3.785   0.804  17.291  1.6946  0.7333 -1.4357
 5474TIP3   OH237836   2.778   0.755  12.407  0.1795  0.4252  0.4384
 5474TIP3    H137837   2.823   0.692  12.350  0.7259  1.6553 -0.5395
 5474TIP3    H237838   2.804   0.730  12.495 -2.4397 -2.9204  0.4275
 5475TIP3   OH237839   3.996   0.334  14.368 -0.3090 -0.7387 -0.2049
 5475TIP3    H137840   4.021   0.355  14.458  0.7024  0.1154 -0.6730
 5475TIP3    H237841   4.078   0.307  14.326 -0.7307 -0.9095 -0.9344
 5476TIP3   OH237842   2.794   3.110   5.434 -0.2942  0.0601 -0.0155
 5476TIP3    H137843   2.764   3.180   5.375 -1.5836  1.4375  2.1194
 5476TIP3    H237844   2.886   3.098   5.412 -0.6862  0.6315 -2.1628
 5477TIP3   OH237845   3.265   6.067   6.162  0.2284 -0.2390 -0.5858
 5477TIP3    H137846   3.285   6.097   6.251 -0.1406 -0.8352 -0.2962
 5477TIP3    H237847   3.201   5.997   6.174 -0.2285  0.0283 -1.3536
 5478TIP3   OH237848   5.180   3.294   4.900 -0.0303 -0.7716  0.4960
 5478TIP3    H137849   5.236   3.218   4.881  2.5696  1.4668 -1.5931
 5478TIP3    H237850   5.237   3.353   4.950 -0.9104  1.0465 -0.5548
 5479TIP3   OH237851   0.531   3.299  12.627 -0.2139 -0.0411 -0.5140
 5479TIP3    H137852   0.487   3.217  12.607  0.7737 -0.9520  0.8466
 5479TIP3    H237853   0.511   3.315  12.720 -1.0691  1.7023 -0.9642
 5480TIP3   OH237854   5.216   2.518  12.416 -0.2784  0.5712  0.0052
 5480TIP3    H137855   5.150   2.518  12.486 -1.7626 -3.3285 -1.1426
 5480TIP3    H237856   5.178   2.573  12.347 -0.7724  1.0016  0.6073
 5481TIP3   OH237857   2.776   3.225  16.832 -0.2874 -0.2725 -0.3546
 5481TIP3    H137858   2.687   3.261  16.829 -0.0176  0.3929 -0.3908
 5481TIP3    H237859   2.818   3.256  16.752  0.1923 -0.0353 -0.0143
 5482TIP3   OH237860   4.029   5.639  15.206 -0.0461  0.0797  0.4932
 5482TIP3    H137861   3.990   5.617  15.291  1.2120  1.5388  1.4859
 5482TIP3    H237862   4.114   5.678  15.228 -0.9766  3.4084 -1.2199
 5483TIP3   OH237863   0.598   4.813   6.048  0.7850  0.2454  0.6458
 5483TIP3    H137864   0.539   4.747   6.085  0.8532  0.1122  0.5180
 5483TIP3    H237865   0.679   4.805   6.099  1.2696 -0.6906 -0.2404
 5484TIP3   OH237866   4.303   2.207   3.821 -0.1556  0.4907 -0.2799
 5484TIP3    H137867   4.392   2.211   3.786  0.4739 -0.7606  1.1000
 5484TIP3    H237868   4.287   2.114   3.838 -1.7353  0.6854 -0.4613
 5485TIP3   OH237869   4.222   1.364   1.853  0.0800 -0.2392  0.3163
 5485TIP3    H137870   4.158   1.398   1.916 -0.7524 -0.2319 -0.5073
 5485TIP3    H237871   4.184   1.282   1.823 -0.7785  0.8765 -1.9474
 5486TIP3   OH237872   4.972   2.946   2.056  0.0688 -0.7155  0.0592
 5486TIP3    H137873   4.931   3.031   2.043 -2.1255 -1.7525 -0.3020
 5486TIP3    H237874   4.996   2.917   1.969  2.7834  0.3715  0.3614
 5487TIP3   OH237875   5.606   0.067  15.014  0.0621 -0.1482 -0.4612
 5487TIP3    H137876   5.621   0.112  14.931 -1.1180  1.4718  0.1601
 5487TIP3    H237877   5.545   0.123  15.062  1.8222 -0.2455  2.1258
 5488TIP3   OH237878   2.295   1.897  16.632 -0.0346 -0.1399 -0.3486
 5488TIP3    H137879   2.262   1.900  16.542 -0.6904  1.5070 -0.1064
 5488TIP3    H237880   2.223   1.858  16.682 -0.9580  1.7613 -0.1064
 5489TIP3   OH237881   5.083   4.401  12.099  0.1776  0.3312 -0.0769
 5489TIP3    H137882   5.117   4.402  12.189  0.6134 -0.7162 -0.2065
 5489TIP3    H237883   5.156   4.366  12.047  0.4829  2.3546 -1.0962
 5490TIP3   OH237884   3.898   3.995  10.609 -0.0128  0.0270 -0.0364
 5490TIP3    H137885   3.819   4.046  10.594  0.9563  1.0149 -2.0983
 5490TIP3    H237886   3.867   3.904  10.619 -1.4861  0.5766  0.7019
 5491TIP3   OH237887   2.481   1.869  12.318  0.3393  0.0367 -0.4396
 5491TIP3    H137888   2.402   1.920  12.299  0.2820  0.5825  1.1482
 5491TIP3    H237889   2.448   1.780  12.335  0.0570  0.2668  0.2424
 5492TIP3   OH237890   1.193   2.016   3.610  0.1206  0.0769 -0.1134
 5492TIP3    H137891   1.114   1.963   3.598  0.4978 -0.8161  1.2394
 5492TIP3    H237892   1.225   2.031   3.521 -1.0409 -0.3493 -0.6215
 5493TIP3   OH237893   2.485   6.579   2.778 -0.1611  0.3243  0.6412
 5493TIP3    H137894   2.551   6.555   2.844  1.6401  0.9852 -0.8356
 5493TIP3    H237895   2.454   6.494   2.744  0.1258  0.0042  1.1649
 5494TIP3   OH237896   4.855   3.772   3.346  0.5707  0.0025 -0.2105
 5494TIP3    H137897   4.765   3.740   3.360  0.4917 -0.2746 -1.2014
 5494TIP3    H237898   4.856   3.859   3.384 -0.5720  0.6104 -1.4800
 5495TIP3   OH237899   2.420   4.018  11.792 -0.0414  0.3635 -0.6003
 5495TIP3    H137900   2.514   4.021  11.778 -0.3650  1.9634 -3.0840
 5495TIP3    H237901   2.407   3.949  11.857  2.9208  1.1816  1.0425
 5496TIP3   OH237902   2.403   1.020  14.558 -0.3912 -0.5464  0.9009
 5496TIP3    H137903   2.474   0.962  14.586 -0.2109  0.5197  2.8184
 5496TIP3    H237904   2.325   0.965  14.562  0.2231 -1.6422 -0.9207
 5497TIP3   OH237905   1.552   3.173   3.081  0.2258  0.1300  0.2880
 5497TIP3    H137906   1.514   3.216   3.157 -0.2061  0.1042  0.0911
 5497TIP3    H237907   1.630   3.128   3.115  0.6489  0.9994  0.5071
 5498TIP3   OH237908   2.614   0.681   2.918  0.5418  0.0178  0.4199
 5498TIP3    H137909   2.639   0.685   3.011 -0.5470 -2.3554  0.8985
 5498TIP3    H237910   2.694   0.654   2.873  0.8358  0.2507  0.7949
 5499TIP3   OH237911   6.147   2.663   0.958  0.4200  0.5402  0.0538
 5499TIP3    H137912   6.129   2.742   0.907 -0.6868 -0.5139 -1.2475
 5499TIP3    H237913   6.066   2.613   0.956  1.8846 -2.0480 -1.7870
 5500TIP3   OH237914   4.220   1.934  14.610 -0.0112 -0.3165  0.6018
 5500TIP3    H137915   4.266   1.897  14.535  2.2725  0.4236  1.5415
 5500TIP3    H237916   4.184   2.017  14.578  1.2251  0.1519  0.3729
 5501TIP3   OH237917   6.512   2.548  15.096  0.3819 -0.5211 -0.6867
 5501TIP3    H137918   6.457   2.560  15.019 -0.8262  0.3407  0.2768
 5501TIP3    H237919   6.576   2.619  15.091 -0.0443 -0.1331 -0.5950
 5502TIP3   OH237920   4.531   2.850   3.626  0.2165 -0.2030  0.4694
 5502TIP3    H137921   4.624   2.835   3.642  0.1347 -0.6216  0.5412
 5502TIP3    H237922   4.529   2.929   3.572  0.5098  1.2950  2.5181
 5503TIP3   OH237923   3.732   3.711  14.661  0.6432 -0.5518 -0.4121
 5503TIP3    H137924   3.746   3.710  14.566 -0.9859 -0.1675 -0.6962
 5503TIP3    H237925   3.784   3.638  14.694  0.6922 -1.1222 -1.6967
 5504TIP3   OH237926   3.145   0.870   5.766 -0.1680  0.3917 -0.1159
 5504TIP3    H137927   3.200   0.873   5.844  1.0392  0.6634 -0.9451
 5504TIP3    H237928   3.057   0.891   5.797  0.7299  3.3356  0.7842
 5505TIP3   OH237929   1.835   2.807   3.766  0.2115  0.4390  0.1569
 5505TIP3    H137930   1.899   2.782   3.700 -1.7243 -3.0483 -0.6379
 5505TIP3    H237931   1.883   2.804   3.849  1.4072 -0.6082 -0.5395
 5506TIP3   OH237932   3.432   3.989   1.607 -0.2812  0.2004 -0.1840
 5506TIP3    H137933   3.401   3.983   1.517 -1.0381 -1.9242  0.1407
 5506TIP3    H237934   3.352   3.987   1.660  0.1933 -1.3729  0.5694
 5507TIP3   OH237935   2.691   6.034   0.041 -0.4262  0.6030  0.0986
 5507TIP3    H137936   2.626   5.974   0.077 -0.1203  0.6844  0.7841
 5507TIP3    H237937   2.672   6.118   0.083  0.4457  0.5104  0.6937
 5508TIP3   OH237938   3.438   4.773   0.315  0.2271 -0.3107  0.6008
 5508TIP3    H137939   3.372   4.746   0.378 -1.4966 -2.0162 -1.7708
 5508TIP3    H237940   3.416   4.865   0.296  0.4584  0.0652  2.0342
 5509TIP3   OH237941   5.762   2.655  17.012  0.6779 -0.3136 -0.1440
 5509TIP3    H137942   5.837   2.597  17.022  1.2859  0.3639 -0.7217
 5509TIP3    H237943   5.734   2.674  17.101  1.1159 -0.6608  0.0705
 5510TIP3   OH237944   5.218   3.177  14.036  0.1652 -0.4760 -0.0800
 5510TIP3    H137945   5.165   3.250  14.005  2.2305  1.1695  0.0406
 5510TIP3    H237946   5.218   3.115  13.963 -1.5822 -0.3791 -0.2015
 5511TIP3   OH237947   4.550   3.095  16.324  0.1129  0.2041 -0.8313
 5511TIP3    H137948   4.456   3.114  16.330 -0.2062 -1.6614  2.0933
 5511TIP3    H237949   4.591   3.181  16.313 -1.7005  1.7682  2.8088
 5512TIP3   OH237950   2.218   3.555  15.719  0.2450 -0.2525  0.3947
 5512TIP3    H137951   2.125   3.572  15.705  0.4079  1.0292  0.7448
 5512TIP3    H237952   2.234   3.472  15.675 -0.9197 -0.1655 -0.2413
 5513TIP3   OH237953   1.057   4.427   4.365  0.3222 -0.0639 -0.3494
 5513TIP3    H137954   0.989   4.363   4.344 -0.2473  0.5364 -0.3592
 5513TIP3    H237955   1.032   4.505   4.316  1.1192  0.1060 -0.4944
 5514TIP3   OH237956   4.765   5.761  16.636 -0.0189  0.6097 -0.0808
 5514TIP3    H137957   4.685   5.719  16.605  0.0475  0.4758 -0.0723
 5514TIP3    H237958   4.789   5.713  16.715  1.4440 -1.0234 -1.4226
 5515TIP3   OH237959   3.503   0.402   1.434 -0.2803 -0.3516  0.6222
 5515TIP3    H137960   3.590   0.440   1.430 -0.3051 -0.4515 -2.0605
 5515TIP3    H237961   3.517   0.308   1.429 -0.5585 -0.3108 -2.5745
 5516TIP3   OH237962   4.517   5.228  14.385 -0.2272  0.1717  0.3414
 5516TIP3    H137963   4.435   5.188  14.357 -1.3799  2.2712  0.4671
 5516TIP3    H237964   4.534   5.296  14.319  1.3094 -0.0820  0.4431
 5517TIP3   OH237965   4.779   3.708  12.989  0.1195  0.0522 -0.0057
 5517TIP3    H137966   4.827   3.634  13.026 -0.3187  0.2644  1.0157
 5517TIP3    H237967   4.786   3.777  13.055 -1.8541 -0.0142  0.3178
 5518TIP3   OH237968   4.747   4.252   3.369  0.4099  0.5096 -0.0833
 5518TIP3    H137969   4.692   4.278   3.443  1.0737  0.7592  0.3211
 5518TIP3    H237970   4.699   4.283   3.292 -0.5322 -0.1821  0.1982
 5519TIP3   OH237971   0.652   4.550  13.160  0.4501  0.3207 -0.5006
 5519TIP3    H137972   0.586   4.492  13.197  0.8794  0.1326 -0.0299
 5519TIP3    H237973   0.716   4.562  13.230  0.2578  1.5385 -0.5105
 5520TIP3   OH237974   6.731   3.547  13.712 -0.2279  0.6720 -0.2539
 5520TIP3    H137975   6.708   3.506  13.796  0.5722  0.2593 -0.2294
 5520TIP3    H237976   6.662   3.612  13.698 -0.3070  0.8318  0.7798
 5521TIP3   OH237977   1.230   5.234  15.632  0.0365  0.0493 -0.4753
 5521TIP3    H137978   1.299   5.266  15.574 -0.3325  0.9793 -0.4070
 5521TIP3    H237979   1.181   5.312  15.658 -2.4751 -0.7568 -2.3580
 5522TIP3   OH237980   5.741   6.279   0.927  0.2877 -0.0684 -0.7189
 5522TIP3    H137981   5.653   6.307   0.901  0.2956 -0.1003 -0.7819
 5522TIP3    H237982   5.768   6.219   0.857  0.8320  0.8536 -1.3220
 5523TIP3   OH237983   2.307   4.355   2.533  0.0958 -0.0947  0.0768
 5523TIP3    H137984   2.272   4.282   2.482  1.4225 -0.7023 -0.0251
 5523TIP3    H237985   2.320   4.425   2.470 -2.8445  0.9139  0.4742
 5524TIP3   OH237986   4.263   2.160  16.089  0.3702  0.0138  0.2231
 5524TIP3    H137987   4.208   2.237  16.099 -0.9255 -0.9660  0.8900
 5524TIP3    H237988   4.235   2.120  16.007  3.4078  2.0433 -1.9852
 5525TIP3   OH237989   1.969   1.501   4.204  0.8989 -0.0629  0.6123
 5525TIP3    H137990   2.018   1.535   4.130 -0.1164  1.3783  0.5501
 5525TIP3    H237991   2.005   1.548   4.280 -0.2405  0.9313  0.5767
 5526TIP3   OH237992   1.297   5.484   0.924 -0.0315  0.0330 -0.9139
 5526TIP3    H137993   1.216   5.455   0.883 -0.8666 -0.8780  1.2129
 5526TIP3    H237994   1.269   5.528   1.004  1.5408  0.4758 -0.5704
 5527TIP3   OH237995   0.767   4.555   4.514  0.5963 -0.3338 -0.3344
 5527TIP3    H137996   0.819   4.489   4.467  0.9128  0.6049 -1.3368
 5527TIP3    H237997   0.677   4.533   4.493  0.6593 -0.9049 -0.0320
 5528TIP3   OH237998   3.514   0.138  12.418 -0.6526  0.2322  0.6040
 5528TIP3    H137999   3.561   0.141  12.335 -2.0745  1.4278 -0.2246
 5528TIP3    H238000   3.470   0.053  12.418  0.4189 -0.3426  0.7900
 5529TIP3   OH238001   5.800   3.474  16.158  0.1230  0.1033  0.2636
 5529TIP3    H138002   5.718   3.512  16.129 -0.7232 -1.2229  0.8187
 5529TIP3    H238003   5.822   3.409  16.092  0.1445 -0.3188  0.6801
 5530TIP3   OH238004   0.587   5.744  12.504  0.3184 -0.0088  0.3036
 5530TIP3    H138005   0.551   5.800  12.573 -0.7848 -1.5533  1.0477
 5530TIP3    H238006   0.666   5.790  12.474  0.6624  0.8648  2.3832
 5531TIP3   OH238007   2.325   4.821  14.436  0.7105 -0.1346 -0.0964
 5531TIP3    H138008   2.308   4.796  14.527  2.2422  0.8596  0.5024
 5531TIP3    H238009   2.420   4.814  14.427  0.6737  0.6980 -1.3338
 5532TIP3   OH238010   6.642   4.618   2.475  0.3141 -0.0816  0.1115
 5532TIP3    H138011   6.697   4.558   2.525 -0.2752  0.4832  1.4817
 5532TIP3    H238012   6.700   4.650   2.405  0.7852 -1.8241 -0.3474
 5533TIP3   OH238013   2.337   0.760  16.105  1.2693  0.5318 -0.3400
 5533TIP3    H138014   2.249   0.761  16.068  1.2744  1.5404 -0.3660
 5533TIP3    H238015   2.373   0.675  16.080  0.4497  0.2721 -0.6718
 5534TIP3   OH238016   2.635   0.207   0.289 -0.2498 -1.0123 -0.4887
 5534TIP3    H138017   2.651   0.292   0.329 -0.5399 -0.7945 -0.8334
 5534TIP3    H238018   2.722   0.167   0.281  0.0924 -0.0891 -1.7851
 5535TIP3   OH238019   1.718   5.776  11.087  0.0121  0.0670  0.1215
 5535TIP3    H138020   1.753   5.747  11.003 -1.8472  0.2153 -0.7523
 5535TIP3    H238021   1.785   5.834  11.122  0.8020  0.0491 -1.2990
 5536TIP3   OH238022   0.765   5.567   0.842 -0.1082 -0.2597  0.3578
 5536TIP3    H138023   0.811   5.515   0.775 -1.0536 -0.5180 -0.1137
 5536TIP3    H238024   0.822   5.641   0.858 -0.0207  0.0094 -1.0341
 5537TIP3   OH238025   0.394   0.318  14.692  0.1486  0.3851 -0.0236
 5537TIP3    H138026   0.347   0.376  14.633 -1.9895  0.0510  1.2391
 5537TIP3    H238027   0.354   0.332  14.778  1.7022 -0.6812  0.9442
 5538TIP3   OH238028   3.143   1.367  16.373 -0.2722 -0.2402  0.1062
 5538TIP3    H138029   3.050   1.390  16.372 -0.7095 -1.8955 -0.0647
 5538TIP3    H238030   3.149   1.288  16.319  0.9241 -1.2713  1.6541
 5539TIP3   OH238031   5.520   2.006  14.409 -0.5702 -0.1730 -0.3935
 5539TIP3    H138032   5.456   1.955  14.358 -1.1817  1.7660 -1.6635
 5539TIP3    H238033   5.605   1.976  14.376 -0.9082 -0.4091 -1.0825
 5540TIP3   OH238034   4.206   5.640  15.704  0.2716  0.4825 -0.4862
 5540TIP3    H138035   4.299   5.618  15.701 -0.2545 -2.3902  1.0284
 5540TIP3    H238036   4.204   5.735  15.692  3.3827  0.6660 -0.4215
 5541TIP3   OH238037   4.782   1.933   6.562 -0.4057  0.3403 -0.5138
 5541TIP3    H138038   4.820   2.004   6.614  1.3787  0.0025 -1.2693
 5541TIP3    H238039   4.852   1.867   6.557 -0.8605 -0.0669 -2.4873
 5542TIP3   OH238040   0.627   2.031  13.799  0.5752 -0.3748  0.9247
 5542TIP3    H138041   0.656   2.106  13.746  0.1054 -0.8908 -0.0837
 5542TIP3    H238042   0.686   1.960  13.775  1.6307 -0.1348  2.5735
 5543TIP3   OH238043   3.456   5.599  16.486 -0.2756  0.4254 -0.3132
 5543TIP3    H138044   3.361   5.595  16.485 -0.2630 -0.1656  0.2336
 5543TIP3    H238045   3.479   5.632  16.573  0.0775 -2.8555  0.9857
 5544TIP3   OH238046   2.813   5.218   6.349 -0.0291  0.6466  0.3883
 5544TIP3    H138047   2.809   5.203   6.444  0.6313  0.7067  0.4287
 5544TIP3    H238048   2.868   5.296   6.340  0.6099  0.1482 -0.0889
 5545TIP3   OH238049   1.241   1.036   2.174  0.1587  0.1048  0.0272
 5545TIP3    H138050   1.239   0.996   2.261  1.4873  0.7977  0.4093
 5545TIP3    H238051   1.253   1.130   2.191  0.7679  0.2077 -0.8925
 5546TIP3   OH238052   6.452   0.449   2.280 -0.1993 -0.8523 -0.5963
 5546TIP3    H138053   6.527   0.400   2.247 -0.2559 -0.3069 -1.5689
 5546TIP3    H238054   6.447   0.526   2.224 -0.9623 -0.4423  0.0144
 5547TIP3   OH238055   0.665   0.451  15.993  0.0478 -0.0314  0.8688
 5547TIP3    H138056   0.746   0.413  15.959  0.3376 -1.5446  2.9931
 5547TIP3    H238057   0.690   0.492  16.076 -0.6593  3.2244 -0.4027
 5548TIP3   OH238058   1.813   6.135  14.606  0.0942 -0.4134  0.1001
 5548TIP3    H138059   1.851   6.095  14.684 -2.0753 -2.0369  0.4325
 5548TIP3    H238060   1.749   6.198  14.640  0.7823  0.5892 -0.4160
 5549TIP3   OH238061   1.288   1.689   1.980 -0.0433 -0.5265  0.0758
 5549TIP3    H138062   1.266   1.653   1.894 -2.2395  2.0667 -0.5692
 5549TIP3    H238063   1.205   1.690   2.028  0.5477  0.8041  1.1430
 5550TIP3   OH238064   2.953   5.215  14.447 -0.0913  0.2611 -0.4065
 5550TIP3    H138065   2.965   5.121  14.457  0.6887  0.3163 -0.7604
 5550TIP3    H238066   2.877   5.235  14.501 -0.3212 -0.5831 -0.3952
 5551TIP3   OH238067   3.846   4.117   2.841 -0.2425  0.0358 -0.4809
 5551TIP3    H138068   3.774   4.167   2.803 -1.9390 -2.3415 -0.6525
 5551TIP3    H238069   3.840   4.136   2.935 -0.2969  0.8140 -0.6352
 5552TIP3   OH238070   5.129   4.244   2.597 -0.5905 -0.2862 -0.2520
 5552TIP3    H138071   5.224   4.252   2.588 -0.4006  0.6159  2.0207
 5552TIP3    H238072   5.109   4.159   2.558  0.8265  0.3622 -2.6015
 5553TIP3   OH238073   2.976   0.614  17.175  0.3877 -0.1114 -0.4759
 5553TIP3    H138074   3.007   0.619  17.265 -1.9099  0.4159  0.3589
 5553TIP3    H238075   2.976   0.705  17.145 -1.0001 -0.0027 -0.1924
 5554TIP3   OH238076   6.690   3.358   1.668 -0.2851  0.5591 -0.4007
 5554TIP3    H138077   6.606   3.384   1.705 -0.4553 -0.0044 -0.3696
 5554TIP3    H238078   6.749   3.432   1.684 -0.0164 -0.0867  2.0413
 5555TIP3   OH238079   5.648   5.127   3.676 -0.3171 -0.0150 -0.6235
 5555TIP3    H138080   5.649   5.035   3.705  0.7765 -0.0661 -0.7848
 5555TIP3    H238081   5.601   5.126   3.593 -0.8802 -0.3250 -0.3081
 5556TIP3   OH238082   3.203   3.109  15.588  0.1308 -0.0900 -0.1674
 5556TIP3    H138083   3.245   3.190  15.617 -1.1376  0.8779 -0.9741
 5556TIP3    H238084   3.158   3.132  15.507 -0.4044 -1.5705 -0.3280
 5557TIP3   OH238085   6.427   1.110   3.225  0.4809  0.3246 -0.2688
 5557TIP3    H138086   6.477   1.136   3.302  2.0349  0.1905 -1.1787
 5557TIP3    H238087   6.352   1.170   3.223 -0.1339 -0.2775  1.8385
 5558TIP3   OH238088   0.276   3.639   3.321  0.2877 -0.4981  0.1072
 5558TIP3    H138089   0.325   3.589   3.255  0.3469  0.1946 -0.3869
 5558TIP3    H238090   0.326   3.720   3.332 -0.6647  0.1650 -0.3167
 5559TIP3   OH238091   1.799   4.666  11.738  0.2926 -0.3733 -0.4994
 5559TIP3    H138092   1.878   4.657  11.684  1.3637 -1.2215  1.1475
 5559TIP3    H238093   1.831   4.693  11.824 -1.4093  1.3747 -0.3339
 5560TIP3   OH238094   2.685   0.593  16.289  0.5278 -0.6841 -0.4905
 5560TIP3    H138095   2.776   0.619  16.281  0.7266 -0.0366  2.5923
 5560TIP3    H238096   2.640   0.643  16.221  1.9027  2.5664  0.7390
 5561TIP3   OH238097   4.553   6.540   1.435 -0.4443 -0.2470  0.6331
 5561TIP3    H138098   4.507   6.554   1.518 -0.7794  1.5486  0.1937
 5561TIP3    H238099   4.622   6.606   1.434  0.5220 -1.2397  0.1332
 5562TIP3   OH238100   5.418   3.524   5.397 -0.2628  0.1831 -0.4362
 5562TIP3    H138101   5.491   3.489   5.446 -0.9052  0.8105  1.0360
 5562TIP3    H238102   5.443   3.614   5.377 -0.1572  0.0437 -0.9327
 5563TIP3   OH238103   3.021   6.423  14.975 -0.4249 -0.2974  0.1659
 5563TIP3    H138104   3.047   6.477  15.049 -0.2989  0.1384 -0.1931
 5563TIP3    H238105   3.092   6.359  14.967  0.8401  1.1760 -1.1052
 5564TIP3   OH238106   4.373   2.785   5.090  0.2508 -0.1078 -0.0470
 5564TIP3    H138107   4.328   2.709   5.053 -0.2068  0.0808  0.1143
 5564TIP3    H238108   4.304   2.835   5.134  0.2054  1.2677 -1.5421
 5565TIP3   OH238109   1.810   6.750   0.435  0.2318  0.0033 -0.1963
 5565TIP3    H138110   1.720   6.746   0.402 -0.0099 -1.1046  0.5293
 5565TIP3    H238111   1.855   6.811   0.377 -0.7738 -0.0930 -1.0993
 5566TIP3   OH238112   4.582   4.911  13.821  0.7716  0.0712  0.1573
 5566TIP3    H138113   4.552   4.873  13.904 -0.4916  0.8743  0.0927
 5566TIP3    H238114   4.616   4.836  13.772  0.3439 -0.6213  0.8941
 5567TIP3   OH238115   4.706   4.749  15.968  0.2140  0.2600  0.1237
 5567TIP3    H138116   4.794   4.781  15.944  1.4162 -1.9547  1.2937
 5567TIP3    H238117   4.677   4.702  15.890  0.6098 -0.0591  0.1651
 5568TIP3   OH238118   1.350   0.642  16.767  0.0896  0.5037 -0.2837
 5568TIP3    H138119   1.361   0.551  16.797 -0.7530  0.2218 -0.8144
 5568TIP3    H238120   1.436   0.682  16.782  0.4727 -0.3789 -0.0479
 5569TIP3   OH238121   3.215   1.591   5.977 -0.1349 -0.3752  0.1969
 5569TIP3    H138122   3.292   1.534   5.980  0.6872  0.6138 -1.2015
 5569TIP3    H238123   3.202   1.609   5.884 -0.6975  1.2972  0.5677
 5570TIP3   OH238124   3.527   3.506   6.043 -0.0317  0.1441 -0.5152
 5570TIP3    H138125   3.525   3.601   6.033  2.3982  0.5950  2.0367
 5570TIP3    H238126   3.443   3.484   6.083 -0.3883  1.2851 -0.6102
 5571TIP3   OH238127   0.152   4.619   1.537 -1.0278 -0.5689 -0.4698
 5571TIP3    H138128   0.222   4.622   1.471  1.1615 -3.0981  1.5012
 5571TIP3    H238129   0.152   4.707   1.575 -0.0383 -0.0443 -1.6023
 5572TIP3   OH238130   4.451   6.319   3.368 -0.2908 -0.3765  0.4001
 5572TIP3    H138131   4.446   6.265   3.447 -0.4307 -0.8346  0.0814
 5572TIP3    H238132   4.376   6.291   3.315 -0.6792  0.5037  0.4587
 5573TIP3   OH238133   1.045   2.264   1.457 -0.4314  0.8203  0.6620
 5573TIP3    H138134   1.072   2.196   1.395  0.5994  2.7020 -1.0679
 5573TIP3    H238135   1.011   2.335   1.403 -0.1867  2.2618  2.2957
 5574TIP3   OH238136   4.282   3.084  14.730  0.6102 -0.6614 -0.1948
 5574TIP3    H138137   4.365   3.076  14.777 -0.3358 -1.3440  1.4217
 5574TIP3    H238138   4.215   3.088  14.798 -0.6685  0.4561 -1.4490
 5575TIP3   OH238139   5.173   4.527   0.000  0.3015  0.4103  0.4696
 5575TIP3    H138140   5.106   4.566  -0.056 -0.1654  1.2681  1.5929
 5575TIP3    H238141   5.129   4.455   0.044  0.7153 -0.3724 -0.3697
 5576TIP3   OH238142   2.470   5.451   5.132  0.1700  0.2578  0.3449
 5576TIP3    H138143   2.544   5.491   5.087  0.9375 -0.2101  1.1531
 5576TIP3    H238144   2.488   5.357   5.127 -0.0646  0.1738  1.0587
 5577TIP3   OH238145   3.377   0.866  13.529  0.1883 -0.3347 -0.1891
 5577TIP3    H138146   3.409   0.828  13.611  0.2900 -3.0545 -1.3552
 5577TIP3    H238147   3.282   0.859  13.535  0.0411  1.8197  0.6702
 5578TIP3   OH238148   4.476   4.647  11.848 -0.3947 -0.0240 -0.3419
 5578TIP3    H138149   4.479   4.587  11.922 -0.3779  0.2007 -0.1602
 5578TIP3    H238150   4.505   4.595  11.773  0.8308  0.0854  0.0363
 5579TIP3   OH238151   4.343   1.845   5.509  0.1696  0.1448  0.8579
 5579TIP3    H138152   4.292   1.839   5.428  1.8299 -2.6849 -0.1021
 5579TIP3    H238153   4.281   1.821   5.578 -0.0601 -2.5624 -0.2016
 5580TIP3   OH238154   1.652   2.106   1.044 -0.5658  0.1779  0.0963
 5580TIP3    H138155   1.742   2.091   1.075 -0.5859 -1.5730 -0.5376
 5580TIP3    H238156   1.620   2.018   1.024 -2.5898  0.7328  0.7106
 5581TIP3   OH238157   6.627   3.128   5.502 -0.2259  0.3635 -0.1036
 5581TIP3    H138158   6.546   3.077   5.498 -0.8019  1.3425 -2.1425
 5581TIP3    H238159   6.598   3.218   5.518  0.0206  1.4036 -4.4282
 5582TIP3   OH238160   0.556   3.992   2.418 -0.1070 -0.2386  0.1882
 5582TIP3    H138161   0.512   4.065   2.374  1.2313  0.9878  0.8031
 5582TIP3    H238162   0.575   4.025   2.506  1.4322 -0.9567  0.1542
 5583TIP3   OH238163   0.896   5.561  12.687  0.2615  0.2133 -0.1081
 5583TIP3    H138164   0.948   5.600  12.756  0.7795 -2.2933  1.0194
 5583TIP3    H238165   0.805   5.584  12.709  0.5237  0.4934  0.6922
 5584TIP3   OH238166   4.267   4.277   2.240 -0.0488 -0.1665  0.7468
 5584TIP3    H138167   4.266   4.332   2.319 -0.7679 -0.9841  1.3196
 5584TIP3    H238168   4.217   4.328   2.176 -0.0162  0.2192  1.0212
 5585TIP3   OH238169   1.807   5.219  14.909  0.0121 -0.3900  0.1422
 5585TIP3    H138170   1.761   5.146  14.866 -1.2244 -0.3657  1.3399
 5585TIP3    H238171   1.823   5.282  14.839 -1.3169 -0.6552 -0.4445
 5586TIP3   OH238172   0.219   1.709  12.743 -0.4772  0.3698 -0.1739
 5586TIP3    H138173   0.242   1.672  12.829  0.4263 -0.3442 -0.7072
 5586TIP3    H238174   0.271   1.789  12.737 -0.6956  0.5296  0.0193
 5587TIP3   OH238175   4.281   1.950   1.404  0.3048 -0.2031  0.2759
 5587TIP3    H138176   4.358   1.893   1.404  0.6536  0.2769 -0.1720
 5587TIP3    H238177   4.238   1.932   1.321  0.1868 -0.1108  0.3173
 5588TIP3   OH238178   0.255   6.658   4.629 -0.0065 -0.1195 -0.0824
 5588TIP3    H138179   0.279   6.707   4.708 -1.7598 -0.5076  0.7271
 5588TIP3    H238180   0.177   6.608   4.654 -0.2800 -0.6733 -1.9063
 5589TIP3   OH238181   2.136   4.715   2.572 -0.2204  0.1339  0.2833
 5589TIP3    H138182   2.052   4.706   2.618  0.7098 -0.5600  1.9318
 5589TIP3    H238183   2.202   4.699   2.640  1.2351 -0.0664 -1.1331
 5590TIP3   OH238184   5.646   0.326   0.238 -0.0381 -0.3995  0.2705
 5590TIP3    H138185   5.565   0.325   0.289  0.2267  1.3345  0.7991
 5590TIP3    H238186   5.709   0.279   0.292 -0.1251  0.2085  0.9219
 5591TIP3   OH238187   3.838   2.893   1.865 -0.1530 -0.1861 -0.2470
 5591TIP3    H138188   3.811   2.984   1.865 -2.0195 -0.6645  1.5399
 5591TIP3    H238189   3.882   2.880   1.949 -0.1539 -0.9821 -0.3543
 5592TIP3   OH238190   0.204   2.108   4.523  0.0743  0.3145 -0.7229
 5592TIP3    H138191   0.142   2.181   4.519  1.8719  1.9239 -0.6526
 5592TIP3    H238192   0.249   2.111   4.438  2.2028  1.2267  0.3697
 5593TIP3   OH238193   5.026   6.557   6.287  0.1309 -0.3967  0.7212
 5593TIP3    H138194   4.988   6.640   6.315  0.5115  0.1137 -0.2557
 5593TIP3    H238195   5.068   6.523   6.366  1.1147  0.9882  0.8250
 5594TIP3   OH238196   5.382   6.140   5.834 -0.1392 -0.0737 -0.6748
 5594TIP3    H138197   5.296   6.144   5.876 -0.3194 -0.7456 -0.9672
 5594TIP3    H238198   5.363   6.118   5.742  0.1910  2.1667 -1.3337
 5595TIP3   OH238199   5.932   3.322   3.819  0.4617 -0.2465  0.4444
 5595TIP3    H138200   5.934   3.354   3.910  0.2644  0.0136  0.3596
 5595TIP3    H238201   5.986   3.243   3.820 -0.7330 -1.0709  1.1034
 5596TIP3   OH238202   4.118   0.136  12.873  0.2004  0.2162  0.3311
 5596TIP3    H138203   4.196   0.132  12.818  0.8248  1.7381  1.0662
 5596TIP3    H238204   4.150   0.127  12.963 -0.5188  0.3340  0.6127
 5597TIP3   OH238205   5.759   4.008  15.653 -0.1369 -0.0608  0.1165
 5597TIP3    H138206   5.832   3.947  15.657 -0.6621 -0.7806 -0.8059
 5597TIP3    H238207   5.742   4.032  15.744 -0.6116 -2.1549  0.6233
 5598TIP3   OH238208   6.346   1.131   0.951 -0.4027 -0.0716 -0.3617
 5598TIP3    H138209   6.393   1.050   0.969  1.5883  1.1661  0.4523
 5598TIP3    H238210   6.369   1.152   0.860 -0.1353  0.0309 -0.2738
 5599TIP3   OH238211   1.486   6.243  11.827 -0.1369 -0.6375  0.0721
 5599TIP3    H138212   1.464   6.150  11.826  0.7772 -0.8536 -0.7266
 5599TIP3    H238213   1.543   6.253  11.903 -0.7058 -0.6046  0.5043
 5600TIP3   OH238214   3.069   5.489  11.347 -0.4133 -0.1141  0.2971
 5600TIP3    H138215   3.096   5.456  11.261 -0.6950 -1.3258  0.6626
 5600TIP3    H238216   3.101   5.580  11.348 -0.0463 -0.2074 -0.9193
 5601TIP3   OH238217   1.486   1.492   6.227  0.4248  0.0921 -0.5178
 5601TIP3    H138218   1.434   1.507   6.148 -0.1449 -1.6577 -0.5173
 5601TIP3    H238219   1.422   1.483   6.297  0.9130  1.2851  0.1174
 5602TIP3   OH238220   6.688   4.997  13.955 -0.1523 -0.4517 -0.5331
 5602TIP3    H138221   6.631   4.927  13.921 -0.7767  0.5844 -1.7099
 5602TIP3    H238222   6.762   4.951  13.994 -1.2573 -1.8128  0.0313
 5603TIP3   OH238223   1.577   6.724   1.665 -0.4531 -0.0401 -0.1512
 5603TIP3    H138224   1.633   6.792   1.626 -1.1297  1.9536  2.1035
 5603TIP3    H238225   1.501   6.719   1.607 -0.0173  0.5422 -0.7920
 5604TIP3   OH238226   3.298   2.209  15.474  0.5147  0.0363  0.7131
 5604TIP3    H138227   3.387   2.206  15.438  0.5431  1.6114  0.5888
 5604TIP3    H238228   3.272   2.117  15.480  1.1822 -0.3864 -1.6918
 5605TIP3   OH238229   6.272   0.179   4.959 -0.0332 -0.8872 -0.6973
 5605TIP3    H138230   6.189   0.207   4.922 -0.6281 -3.3412 -1.3867
 5605TIP3    H238231   6.262   0.192   5.053 -0.3003  0.9376 -0.9460
 5606TIP3   OH238232   0.631   5.540  11.938 -0.4149 -0.0154 -1.0973
 5606TIP3    H138233   0.699   5.489  11.896  0.0177  0.2275 -0.7032
 5606TIP3    H238234   0.678   5.606  11.989 -0.9302 -0.0381 -0.5741
 5607TIP3   OH238235   3.479   6.551  13.871 -0.4977  0.0827 -0.5886
 5607TIP3    H138236   3.481   6.458  13.848  1.3018 -0.2887  0.7946
 5607TIP3    H238237   3.568   6.582  13.852 -0.3515  0.8777  1.1880
 5608TIP3   OH238238   6.049   2.815  15.323 -0.0706 -0.2772 -0.3603
 5608TIP3    H138239   6.043   2.869  15.402 -3.7865 -0.6482 -0.2052
 5608TIP3    H238240   6.091   2.872  15.258  0.4798  1.0329  1.0819
 5609TIP3   OH238241   6.017   4.022   0.213  0.0595 -0.1455 -0.0825
 5609TIP3    H138242   6.008   3.999   0.120 -0.2603 -1.3274  0.2225
 5609TIP3    H238243   6.099   3.981   0.240 -0.0473 -0.1343  0.2598
 5610TIP3   OH238244   0.217   3.625  15.890 -0.0105  0.0828 -0.3745
 5610TIP3    H138245   0.181   3.693  15.833  2.5448  0.2184 -1.9707
 5610TIP3    H238246   0.306   3.655  15.910  0.2483 -1.5152  1.1402
 5611TIP3   OH238247   4.860   0.136  15.821  0.5213  0.2575 -0.3732
 5611TIP3    H138248   4.906   0.064  15.863  0.1793  1.0971  1.5639
 5611TIP3    H238249   4.792   0.094  15.768 -0.3008 -0.8637  1.4779
 5612TIP3   OH238250   4.697   4.551   4.861  0.0793  0.6995  0.4868
 5612TIP3    H138251   4.692   4.456   4.873 -2.4797  0.8342  1.2013
 5612TIP3    H238252   4.629   4.570   4.796  0.2883  2.0846  0.6430
 5613TIP3   OH238253   1.117   1.494  17.293 -0.2192 -0.5086  0.2011
 5613TIP3    H138254   1.126   1.463  17.383 -0.4789  0.2342  0.4879
 5613TIP3    H238255   1.073   1.579  17.301 -1.6208 -1.1004 -0.7211
 5614TIP3   OH238256   5.815   5.500   1.509  0.2701  0.0240  1.1296
 5614TIP3    H138257   5.866   5.420   1.514 -0.1241 -0.3515 -0.4595
 5614TIP3    H238258   5.738   5.483   1.564 -0.1395 -0.9500  0.2753
 5615TIP3   OH238259   2.776   4.952  13.097 -0.3104 -0.2379  0.2161
 5615TIP3    H138260   2.695   4.946  13.047 -0.6321  1.6171  0.4546
 5615TIP3    H238261   2.808   4.862  13.101 -1.4407 -0.7547 -1.3741
 5616TIP3   OH238262   3.026   6.086  13.269 -0.2250  0.4436 -0.7649
 5616TIP3    H138263   3.002   6.000  13.234  0.5411 -0.0724 -0.0527
 5616TIP3    H238264   3.088   6.121  13.204  0.0530  0.1280 -0.6702
 5617TIP3   OH238265   0.855   0.980   1.200 -0.1055 -0.1035  0.3295
 5617TIP3    H138266   0.944   0.974   1.234  1.0919  0.8260 -2.3472
 5617TIP3    H238267   0.858   1.052   1.137 -2.6852 -0.2473 -0.0744
 5618TIP3   OH238268   0.156   3.473   2.997  0.3170  0.4893 -0.0701
 5618TIP3    H138269   0.083   3.427   2.956  1.1254 -0.1103 -0.8871
 5618TIP3    H238270   0.119   3.556   3.026 -0.2164  1.1267 -2.3876
 5619TIP3   OH238271   1.542   4.822  12.225  0.0511  0.1322 -0.7744
 5619TIP3    H138272   1.631   4.855  12.220 -0.1344  0.9758  0.7474
 5619TIP3    H238273   1.506   4.835  12.138  0.3271  3.0642 -0.5455
 5620TIP3   OH238274   3.706   6.393   5.834  0.2277  0.1355  0.3179
 5620TIP3    H138275   3.733   6.439   5.913  0.5278 -2.0055  1.5602
 5620TIP3    H238276   3.612   6.409   5.827 -0.2007 -1.0850  2.2329
 5621TIP3   OH238277   3.653   6.443   3.761 -0.7094  0.3540  0.3762
 5621TIP3    H138278   3.704   6.516   3.725  1.8061 -2.2649 -1.8660
 5621TIP3    H238279   3.567   6.451   3.720 -0.1716  1.5203 -0.5769
 5622TIP3   OH238280   6.592   0.577  14.386 -0.1119 -0.0333 -0.3929
 5622TIP3    H138281   6.556   0.560  14.300 -0.6594  0.1885 -0.2123
 5622TIP3    H238282   6.564   0.667  14.407  1.5308  0.5968 -0.7420
 5623TIP3   OH238283   2.034   1.948  14.728 -0.0876 -0.3097  0.1238
 5623TIP3    H138284   2.046   2.016  14.795 -1.0359  0.7025 -0.6949
 5623TIP3    H238285   1.951   1.907  14.750 -0.8116  0.5849 -0.8874
 5624TIP3   OH238286   6.042   1.699   2.582 -0.1087 -0.0172  0.1449
 5624TIP3    H138287   6.118   1.737   2.538 -1.3204  1.8215 -0.4918
 5624TIP3    H238288   6.002   1.773   2.628 -1.4960 -0.9537  0.4998
 5625TIP3   OH238289   3.467   2.453  10.529  0.1579  0.2106  0.4284
 5625TIP3    H138290   3.519   2.534  10.526 -0.4576  0.7213  2.4649
 5625TIP3    H238291   3.521   2.389  10.481  1.7095  1.2362  0.7217
 5626TIP3   OH238292   1.524   4.640  16.901  0.0102 -0.7127 -0.1399
 5626TIP3    H138293   1.597   4.579  16.899 -0.1659 -1.0381  1.5418
 5626TIP3    H238294   1.561   4.721  16.936 -0.0327 -0.2571 -1.1304
 5627TIP3   OH238295   4.173   1.669   2.869 -0.0301  0.0835 -0.0329
 5627TIP3    H138296   4.237   1.600   2.888  1.9666  1.8276 -0.1351
 5627TIP3    H238297   4.188   1.690   2.777 -0.1819  1.0746  0.1588
 5628TIP3   OH238298   1.963   3.538  12.676  0.1167  0.8947 -0.3494
 5628TIP3    H138299   2.030   3.535  12.743  1.2395 -1.1977 -1.4485
 5628TIP3    H238300   1.895   3.478  12.707  0.8471 -0.4311 -1.2219
 5629TIP3   OH238301   6.044   6.600  11.237  0.0048 -0.3134  0.3606
 5629TIP3    H138302   5.967   6.569  11.285 -0.2137  0.7490  0.7483
 5629TIP3    H238303   6.117   6.551  11.274 -0.1355  0.5753  1.9330
 5630TIP3   OH238304   2.535   6.527   5.796 -0.5277  0.3210 -0.1594
 5630TIP3    H138305   2.447   6.492   5.780  0.2014 -1.4208 -0.5636
 5630TIP3    H238306   2.593   6.451   5.787  1.2364  1.7791 -1.7850
 5631TIP3   OH238307   1.830   3.456  12.045  0.3346  0.1343  0.4466
 5631TIP3    H138308   1.836   3.410  12.128 -0.1976 -0.4530  0.1646
 5631TIP3    H238309   1.739   3.445  12.017  0.4811  0.4062 -0.1684
 5632TIP3   OH238310   2.594   6.072  14.151  0.0175 -0.4319 -0.3698
 5632TIP3    H138311   2.681   6.034  14.164  0.5042  0.5133 -0.7492
 5632TIP3    H238312   2.564   6.036  14.068  0.4057 -0.1304 -0.6466
 5633TIP3   OH238313   2.801   3.173  14.278 -0.0611 -1.1794 -0.7649
 5633TIP3    H138314   2.786   3.112  14.350 -0.7455 -0.5329 -0.3377
 5633TIP3    H238315   2.721   3.170  14.226 -1.3060  1.3502  0.8016
 5634TIP3   OH238316   3.792   2.638  16.396  0.0157 -0.7215 -0.4557
 5634TIP3    H138317   3.733   2.708  16.370  1.0532  0.2435 -0.3089
 5634TIP3    H238318   3.758   2.607  16.480 -0.4238 -0.3645 -0.5011
 5635TIP3   OH238319   0.089   1.466   5.606  0.2196  0.1359  0.4278
 5635TIP3    H138320   0.001   1.470   5.644  0.5410  0.4169  1.1555
 5635TIP3    H238321   0.088   1.532   5.537 -0.3358 -0.2985  0.0068
 5636TIP3   OH238322   0.285   4.407  14.426  0.1269  0.0130  0.4241
 5636TIP3    H138323   0.335   4.419  14.507  0.7768  0.9851 -0.1013
 5636TIP3    H238324   0.197   4.439  14.448  0.8150  2.2284  0.2029
 5637TIP3   OH238325   6.594   1.027   4.144 -0.4195 -0.0836 -0.1433
 5637TIP3    H138326   6.658   0.964   4.111 -2.9196 -1.6136 -2.4752
 5637TIP3    H238327   6.526   0.973   4.185 -1.1512  1.3446  0.6055
 5638TIP3   OH238328   4.356   1.150   0.999 -0.0280 -0.9028  0.0641
 5638TIP3    H138329   4.419   1.113   0.937  1.0120 -0.6389  0.9302
 5638TIP3    H238330   4.390   1.237   1.019 -1.6236 -0.0375 -0.7691
 5639TIP3   OH238331   0.291   3.126  16.957 -0.1049 -0.3226  0.6916
 5639TIP3    H138332   0.294   3.192  17.027 -1.1893  0.0270  0.4189
 5639TIP3    H238333   0.217   3.070  16.980  0.3958 -1.0520  0.5573
 5640TIP3   OH238334   1.098   4.733  11.089  0.9338 -0.0470  0.2573
 5640TIP3    H138335   1.023   4.760  11.036  0.3299 -0.0062  1.1149
 5640TIP3    H238336   1.129   4.652  11.047  1.2138  0.6112 -0.8515
 5641TIP3   OH238337   0.433   3.745   2.659 -0.3934  0.2967 -0.0285
 5641TIP3    H138338   0.338   3.751   2.660 -0.4136  0.5647 -1.5273
 5641TIP3    H238339   0.464   3.833   2.679 -0.4387  0.0655  1.1110
 5642TIP3   OH238340   1.700   2.377  13.521 -0.7256 -0.1896 -0.0193
 5642TIP3    H138341   1.736   2.410  13.603  1.2637 -0.1897 -0.8347
 5642TIP3    H238342   1.762   2.309  13.493 -2.0055 -1.0291 -0.9384
 5643TIP3   OH238343   4.955   1.890  11.218  0.6774  0.7130  0.0975
 5643TIP3    H138344   4.880   1.856  11.169  2.4285 -1.4960 -1.2490
 5643TIP3    H238345   4.920   1.913  11.304 -1.6482  0.3832 -0.6979
 5644TIP3   OH238346   2.841   5.775   0.104 -0.1214  0.5856  0.2644
 5644TIP3    H138347   2.782   5.796   0.032 -0.0428 -0.0329  0.0064
 5644TIP3    H238348   2.786   5.775   0.182 -0.5168 -0.2202 -0.0071
 5645TIP3   OH238349   4.616   2.421  12.703  0.0345 -0.5017  0.2043
 5645TIP3    H138350   4.536   2.474  12.697  1.0801  0.9846 -1.1129
 5645TIP3    H238351   4.633   2.393  12.613  1.0418 -0.7727  0.4707
 5646TIP3   OH238352   1.989   6.282   4.363 -0.1751 -0.1827  1.0689
 5646TIP3    H138353   2.073   6.248   4.393  0.6713  0.4105 -0.5309
 5646TIP3    H238354   1.927   6.254   4.431  1.1947 -1.1126  2.0033
 5647TIP3   OH238355   1.976   1.111  13.631 -0.1022  0.0788  0.0352
 5647TIP3    H138356   1.885   1.143  13.630 -0.6878 -1.5198  0.1034
 5647TIP3    H238357   2.029   1.190  13.619 -1.5218  0.9464 -0.8030
 5648TIP3   OH238358   4.287   2.033  10.847 -0.0969 -0.4565  0.1543
 5648TIP3    H138359   4.375   2.070  10.852  0.2227 -1.2435  0.6170
 5648TIP3    H238360   4.288   1.980  10.768  0.3157 -1.5931  0.8951
 5649TIP3   OH238361   5.500   1.062  13.034 -0.1010 -0.0415  0.1257
 5649TIP3    H138362   5.469   1.126  12.970  0.3888 -0.5239 -0.6074
 5649TIP3    H238363   5.527   0.986  12.982  1.1954 -0.0872  0.8227
 5650TIP3   OH238364   0.675   0.198  13.410 -0.2394 -0.3355  0.4117
 5650TIP3    H138365   0.737   0.148  13.463 -0.0065 -1.2824 -0.7130
 5650TIP3    H238366   0.727   0.268  13.370 -0.0997 -0.5358  0.2427
 5651TIP3   OH238367   0.501   1.403   2.111 -0.2286 -0.2926  0.6084
 5651TIP3    H138368   0.572   1.410   2.046 -0.4567  1.6165  0.5071
 5651TIP3    H238369   0.546   1.385   2.193  0.5118  1.5504  0.6700
 5652TIP3   OH238370   5.129   6.358   2.909 -0.1873 -0.0709  0.4838
 5652TIP3    H138371   5.144   6.376   2.816  0.9168 -0.8470  0.4992
 5652TIP3    H238372   5.196   6.408   2.954 -1.5127  1.3392  0.9809
 5653TIP3   OH238373   1.537   0.412  12.000 -0.8652 -0.0789 -0.0954
 5653TIP3    H138374   1.496   0.496  12.021 -0.0811  0.3979 -0.3841
 5653TIP3    H238375   1.564   0.377  12.085 -0.6670  0.2482 -0.0207
 5654TIP3   OH238376   0.756   4.895  10.567  0.1340  0.2073 -0.1933
 5654TIP3    H138377   0.848   4.870  10.562  0.3671  0.9007  0.4181
 5654TIP3    H238378   0.710   4.830  10.513  1.1420  0.7413 -1.7546
 5655TIP3   OH238379   4.414   4.474   0.999  0.0126  0.0284  0.1604
 5655TIP3    H138380   4.320   4.483   1.015 -0.1664 -1.7711  0.2863
 5655TIP3    H238381   4.426   4.509   0.911 -0.4515  1.8760  0.7785
 5656TIP3   OH238382   2.016   1.930   2.482  0.4674 -0.6960 -0.5370
 5656TIP3    H138383   2.086   1.931   2.546 -0.8548  3.0815  1.1484
 5656TIP3    H238384   2.046   1.988   2.412 -0.7702  0.7962  0.1020
 5657TIP3   OH238385   0.390   0.714   4.812 -0.2549  0.2701 -0.3943
 5657TIP3    H138386   0.472   0.759   4.835 -0.6366  1.5982 -1.5129
 5657TIP3    H238387   0.351   0.691   4.897  0.0446  1.9114  0.2287
 5658TIP3   OH238388   5.343   2.647  11.982 -0.3006  0.5398  0.1859
 5658TIP3    H138389   5.331   2.719  11.921  0.4990  0.3620 -0.1981
 5658TIP3    H238390   5.398   2.683  12.052 -1.6373  0.8925  1.0952
 5659TIP3   OH238391   2.236   3.779   5.806  0.3524 -0.0925  0.1668
 5659TIP3    H138392   2.291   3.748   5.877 -1.2405 -0.5169  1.2758
 5659TIP3    H238393   2.295   3.788   5.731  2.0500  0.2505  1.4940
 5660TIP3   OH238394   3.990   1.942   3.963  0.2406  0.1425  0.1029
 5660TIP3    H138395   3.962   2.033   3.976  0.7008  0.5518 -1.5139
 5660TIP3    H238396   3.982   1.928   3.869  1.0143 -1.2226  0.2162
 5661TIP3   OH238397   1.392   4.406   3.174  0.2679 -0.5576  0.5337
 5661TIP3    H138398   1.425   4.409   3.264  2.2024 -1.9950 -0.0683
 5661TIP3    H238399   1.361   4.316   3.163  0.0543 -0.3928 -0.2518
 5662TIP3   OH238400   1.045   3.939   6.068 -0.7475  0.3244 -0.0461
 5662TIP3    H138401   1.041   3.844   6.081  0.8654 -0.1055 -2.1169
 5662TIP3    H238402   1.013   3.976   6.150 -1.3855 -1.9951  0.8296
 5663TIP3   OH238403   4.775   0.214  10.705  0.0247  0.2235 -0.5312
 5663TIP3    H138404   4.837   0.235  10.774  0.9432 -0.8522 -1.0114
 5663TIP3    H238405   4.746   0.125  10.724 -0.0814  0.0944 -1.2644
 5664TIP3   OH238406   2.092   2.756   0.071 -0.6354  0.3327  0.1142
 5664TIP3    H138407   2.095   2.682   0.130 -3.2618 -0.5575 -0.7284
 5664TIP3    H238408   2.025   2.733   0.006 -0.9363  3.0571 -0.6900
 5665TIP3   OH238409   4.453   5.519  15.019 -0.0382  0.2577  0.0627
 5665TIP3    H138410   4.393   5.574  14.967 -2.6514 -1.8673  0.6075
 5665TIP3    H238411   4.424   5.531  15.109  1.3721  0.2563  0.5463
 5666TIP3   OH238412   6.404   4.132  14.331 -0.1252  0.2042  0.7837
 5666TIP3    H138413   6.329   4.078  14.357 -0.0037 -0.7268 -0.6799
 5666TIP3    H238414   6.477   4.099  14.385 -0.5389  0.4404  1.4989
 5667TIP3   OH238415   6.714   4.302   0.708  0.2403  0.2419 -0.4510
 5667TIP3    H138416   6.806   4.310   0.736 -0.4436  3.3901  1.3446
 5667TIP3    H238417   6.678   4.234   0.765  0.8303  1.0117  0.9068
 5668TIP3   OH238418   1.577   1.582  12.238 -0.6036  0.1239 -0.6944
 5668TIP3    H138419   1.532   1.664  12.216 -2.8395 -0.8205  0.0640
 5668TIP3    H238420   1.524   1.544  12.308 -0.0532 -2.3367 -1.5234
 5669TIP3   OH238421   2.723   6.750   4.207  0.1058 -0.0323  0.2533
 5669TIP3    H138422   2.651   6.702   4.166 -0.0098 -0.8044  1.3151
 5669TIP3    H238423   2.800   6.694   4.193  0.0468 -0.3471  1.1448
 5670TIP3   OH238424   6.040   1.517   2.819 -0.2756  0.3306 -0.0780
 5670TIP3    H138425   6.114   1.459   2.835 -0.8562 -0.2529  0.5364
 5670TIP3    H238426   6.060   1.559   2.735  0.4531 -0.2833 -0.2186
 5671TIP3   OH238427   5.467   5.139   4.378  0.3889 -0.2361  0.1656
 5671TIP3    H138428   5.413   5.111   4.303  2.8514  0.9545 -2.2093
 5671TIP3    H238429   5.465   5.234   4.375 -0.3562 -0.1248  2.4025
 5672TIP3   OH238430   4.663   2.817   4.917  0.4539 -0.6935  0.1055
 5672TIP3    H138431   4.605   2.868   4.972  2.4512  1.3233  0.4743
 5672TIP3    H238432   4.665   2.864   4.834 -1.5153 -2.9934 -1.3729
 5673TIP3   OH238433   4.137   3.063  14.955  0.5681  0.1791 -0.1422
 5673TIP3    H138434   4.148   3.117  15.034 -1.6995  0.4436  0.0836
 5673TIP3    H238435   4.106   2.979  14.988  2.5027 -0.7582 -0.6042
 5674TIP3   OH238436   6.625   6.699  15.836  0.7999 -0.4645 -0.0024
 5674TIP3    H138437   6.574   6.660  15.764 -1.0799  2.2798 -0.3437
 5674TIP3    H238438   6.685   6.759  15.792 -0.7633  1.6768  0.6020
 5675TIP3   OH238439   5.100   3.130  12.498  0.0549 -0.1829 -0.1395
 5675TIP3    H138440   5.081   3.223  12.488  0.8493 -0.0773 -0.7464
 5675TIP3    H238441   5.022   3.094  12.539 -0.1467  0.8010  0.3666
 5676TIP3   OH238442   3.634   1.896  11.660 -0.3978  0.1557 -0.3344
 5676TIP3    H138443   3.613   1.981  11.621  0.5093  0.7109  0.3368
 5676TIP3    H238444   3.671   1.845  11.588  0.1705  0.7530 -0.4720
 5677TIP3   OH238445   2.152   5.438   1.275  0.0298 -0.4219 -0.3074
 5677TIP3    H138446   2.223   5.490   1.313 -0.0024 -1.4662  1.3039
 5677TIP3    H238447   2.151   5.462   1.182  2.0551  0.0979 -0.2428
 5678TIP3   OH238448   3.864   5.293   4.678  0.1785  0.3135  0.2951
 5678TIP3    H138449   3.901   5.230   4.616  1.5486  1.0318  0.3528
 5678TIP3    H238450   3.922   5.288   4.754  0.5538  1.9311  0.1415
 5679TIP3   OH238451   3.081   5.862  15.858  0.0294 -0.4966 -0.3080
 5679TIP3    H138452   3.120   5.948  15.841  2.5782 -1.3708  0.5442
 5679TIP3    H238453   2.994   5.880  15.892 -0.5670  1.6265 -2.7033
 5680TIP3   OH238454   2.336   2.586   1.667  0.1018  0.6458  1.2811
 5680TIP3    H138455   2.399   2.579   1.739  0.9378  0.9231  0.6014
 5680TIP3    H238456   2.349   2.674   1.632  0.6473  0.0819 -0.0260
 5681TIP3   OH238457   5.083   5.938   4.908 -0.1953 -0.2630 -0.3207
 5681TIP3    H138458   5.002   5.945   4.958  0.4964  0.1515  0.7708
 5681TIP3    H238459   5.091   5.844   4.890 -1.5266 -0.1792 -1.5087
 5682TIP3   OH238460   3.984   6.641   1.197 -0.8968 -0.1218 -0.3142
 5682TIP3    H138461   3.931   6.718   1.218  2.2167  1.9822  0.6083
 5682TIP3    H238462   4.000   6.648   1.103 -0.5031  0.4662 -0.2095
 5683TIP3   OH238463   2.797   3.812   2.045 -0.1908  0.0579  0.2709
 5683TIP3    H138464   2.783   3.857   2.128  1.1533  0.6755  0.1814
 5683TIP3    H238465   2.802   3.719   2.068  1.2692  0.3012  1.0512
 5684TIP3   OH238466   2.922   3.808   3.967  0.2625  0.0936  0.1588
 5684TIP3    H138467   2.873   3.750   3.907  1.0539  0.8142 -1.2446
 5684TIP3    H238468   2.886   3.895   3.950  1.8253  0.6054 -0.7508
 5685TIP3   OH238469   0.161   5.707   2.105 -0.3013  0.2663 -0.0476
 5685TIP3    H138470   0.129   5.716   2.195  2.3403 -0.5161  1.0850
 5685TIP3    H238471   0.090   5.664   2.058 -2.1097  1.5255  1.4122
 5686TIP3   OH238472   3.164   4.054  12.980  0.1219 -0.1179 -0.5580
 5686TIP3    H138473   3.247   4.082  12.941  1.1566 -3.0541 -0.6927
 5686TIP3    H238474   3.190   4.001  13.055 -1.7510  1.1649  1.1097
 5687TIP3   OH238475   0.442   5.824  15.752 -0.4639 -0.2753 -1.0041
 5687TIP3    H138476   0.355   5.854  15.725 -0.2309  0.5330 -0.8967
 5687TIP3    H238477   0.454   5.741  15.706 -1.3802 -0.5097 -0.8523
 5688TIP3   OH238478   1.965   4.307  13.697  0.7867 -0.2551  0.1085
 5688TIP3    H138479   2.047   4.302  13.746  0.3844  0.0693  0.8350
 5688TIP3    H238480   1.934   4.397  13.711  1.1862  0.1823 -1.6181
 5689TIP3   OH238481   4.231   1.048   4.262 -0.3722 -0.7208 -0.1240
 5689TIP3    H138482   4.204   0.994   4.187  0.3936  0.2707 -1.1476
 5689TIP3    H238483   4.326   1.056   4.252 -0.5816  1.8655 -0.7706
 5690TIP3   OH238484   4.685   3.022  13.154 -0.1958  0.8560  0.0507
 5690TIP3    H138485   4.723   3.032  13.242 -0.4039 -0.5409  0.3263
 5690TIP3    H238486   4.594   2.997  13.170 -0.0656 -0.0304 -0.5502
 5691TIP3   OH238487   0.101   2.263  16.917 -0.0029 -0.5542  0.0612
 5691TIP3    H138488   0.006   2.273  16.925  0.1175 -0.1980  1.2802
 5691TIP3    H238489   0.128   2.227  17.002  0.9125 -0.9323 -0.3863
 5692TIP3   OH238490   6.014   5.422   4.173 -0.1833  0.4694 -0.1199
 5692TIP3    H138491   6.007   5.439   4.079  1.5997  0.6140 -0.2581
 5692TIP3    H238492   5.982   5.333   4.184 -0.5553  0.5091 -0.8279
 5693TIP3   OH238493   5.402   3.630   0.109 -0.4986 -0.1891 -0.3605
 5693TIP3    H138494   5.498   3.632   0.108 -0.3543 -2.9138  0.5863
 5693TIP3    H238495   5.376   3.721   0.092  2.1999  0.3336 -2.3012
 5694TIP3   OH238496   0.831   4.604  15.055 -0.1088  0.3230 -0.1490
 5694TIP3    H138497   0.791   4.518  15.067 -0.8051  0.5993 -0.4538
 5694TIP3    H238498   0.797   4.657  15.127  1.6249 -0.0881  1.0572
 5695TIP3   OH238499   4.580   6.509  11.328  0.0480  0.3420  0.2422
 5695TIP3    H138500   4.587   6.493  11.234  0.3687 -0.0841  0.3361
 5695TIP3    H238501   4.652   6.570  11.346 -1.4788  2.4152 -0.2067
 5696TIP3   OH238502   2.612   0.096  13.160  0.2288  0.1469  0.4141
 5696TIP3    H138503   2.599   0.040  13.083  1.5587  0.0505  0.2335
 5696TIP3    H238504   2.591   0.039  13.234 -1.3560  0.3297  0.1363
 5697TIP3   OH238505   4.409   2.896   0.429 -0.3581  0.1625 -0.6247
 5697TIP3    H138506   4.483   2.884   0.489 -0.7696  0.4364 -0.0604
 5697TIP3    H238507   4.450   2.910   0.344  0.2495  0.4320 -0.2970
 5698TIP3   OH238508   1.742   6.644   4.766  0.5006 -0.3972  0.5664
 5698TIP3    H138509   1.835   6.645   4.747  0.3733  1.0026 -0.0947
 5698TIP3    H238510   1.705   6.584   4.700  0.4463  2.1715 -1.9364
 5699TIP3   OH238511   1.453   6.761  11.650 -0.3774 -0.0765 -0.0267
 5699TIP3    H138512   1.516   6.810  11.598 -1.0848  0.7186 -0.1594
 5699TIP3    H238513   1.429   6.821  11.721 -1.0164 -0.3464 -0.0090
 5700TIP3   OH238514   1.742   1.837   4.803  0.7047  0.0498 -0.3283
 5700TIP3    H138515   1.749   1.893   4.880  1.5976 -0.0400 -0.3392
 5700TIP3    H238516   1.675   1.879   4.749 -0.2300 -0.1068  0.6671
 5701TIP3   OH238517   6.481   6.359   4.827 -0.1406 -0.0392  0.6566
 5701TIP3    H138518   6.544   6.289   4.844 -0.0861 -0.0920  0.2467
 5701TIP3    H238519   6.397   6.313   4.816 -0.2939  0.0506  1.4350
 5702TIP3   OH238520   6.558   2.467   2.410  0.0321 -0.0348 -0.2432
 5702TIP3    H138521   6.581   2.441   2.321 -1.0517  0.2171 -0.6189
 5702TIP3    H238522   6.476   2.420   2.429 -0.3406  0.7522  0.1917
 5703TIP3   OH238523   5.361   2.144  16.958 -0.3465  0.4067 -0.0615
 5703TIP3    H138524   5.347   2.114  16.868 -1.6690  0.3887  0.1234
 5703TIP3    H238525   5.423   2.216  16.949 -0.6118  0.5411 -1.0242
 5704TIP3   OH238526   3.838   2.559  12.337 -0.4374  0.1887  0.1151
 5704TIP3    H138527   3.839   2.523  12.248  0.7499 -0.9101  0.5520
 5704TIP3    H238528   3.824   2.483  12.394 -1.0660  0.8605  0.8960
 5705TIP3   OH238529   4.240   1.181   6.170 -0.8841 -0.0290  0.6658
 5705TIP3    H138530   4.192   1.212   6.093 -1.4520 -0.4601  0.8341
 5705TIP3    H238531   4.283   1.259   6.205 -0.2089  0.0688 -0.3736
 5706TIP3   OH238532   5.207   0.596  15.575  0.5153  0.1650 -0.6441
 5706TIP3    H138533   5.122   0.552  15.583  1.2107 -1.1025  0.2410
 5706TIP3    H238534   5.251   0.577  15.658  2.7472 -1.6052 -2.1168
 5707TIP3   OH238535   3.892   4.044  11.346  0.5204  0.3446 -0.2176
 5707TIP3    H138536   3.939   4.127  11.333  0.8993  0.0227 -0.9606
 5707TIP3    H238537   3.941   3.999  11.414 -0.7879  1.5325  1.6159
 5708TIP3   OH238538   0.950   5.733  13.127 -0.5741 -0.7868  0.3108
 5708TIP3    H138539   0.894   5.662  13.096 -0.1661 -2.5601  3.2006
 5708TIP3    H238540   0.891   5.790  13.178 -0.5614 -0.0111 -0.5156
 5709TIP3   OH238541   0.816   5.132   3.891  0.0328 -0.3526 -0.1682
 5709TIP3    H138542   0.740   5.188   3.910  1.3169  1.6164 -0.5364
 5709TIP3    H238543   0.805   5.109   3.798 -2.0409 -3.3061  0.6729
 5710TIP3   OH238544   2.815   4.367   3.697 -0.0973  0.2758 -0.2070
 5710TIP3    H138545   2.752   4.386   3.767  1.0227  0.6224  0.7483
 5710TIP3    H238546   2.869   4.446   3.692  0.3337 -0.0545 -0.9218
 5711TIP3   OH238547   3.336   2.647  15.702 -0.6125 -0.3511  0.6354
 5711TIP3    H138548   3.412   2.589  15.699  0.0080  0.4891 -0.6302
 5711TIP3    H238549   3.267   2.598  15.659 -0.2775 -0.4281  0.1748
 5712TIP3   OH238550   5.939   2.694   0.429  0.2138  0.2594  0.4021
 5712TIP3    H138551   6.008   2.751   0.463 -0.6900  1.1115  0.8408
 5712TIP3    H238552   5.874   2.691   0.498 -0.0911 -0.7408  0.0934
 5713TIP3   OH238553   4.041   1.839  15.806  0.0271 -0.0318  0.4258
 5713TIP3    H138554   3.981   1.797  15.868  0.3783 -0.1426  0.6904
 5713TIP3    H238555   4.011   1.809  15.720  0.4568 -1.0686  0.6274
 5714TIP3   OH238556   3.379   5.309  14.593 -0.1863 -0.5365  0.1500
 5714TIP3    H138557   3.395   5.328  14.686  1.5375 -0.6717 -0.0851
 5714TIP3    H238558   3.294   5.350  14.575  0.3851  1.2825  1.2855
 5715TIP3   OH238559   4.065   3.522  10.688  0.1403  0.1312  0.2156
 5715TIP3    H138560   3.990   3.518  10.628  0.0294  1.5791  0.2100
 5715TIP3    H238561   4.031   3.570  10.764  0.0495 -2.3548  1.8261
 5716TIP3   OH238562   5.261   5.756  15.575  0.3564  0.5142 -0.1163
 5716TIP3    H138563   5.185   5.703  15.550  0.6643  0.3216 -0.6840
 5716TIP3    H238564   5.269   5.820  15.504 -0.2358  1.5695  0.7504
 5717TIP3   OH238565   3.792   0.002   4.225 -0.5207  0.5972 -0.3776
 5717TIP3    H138566   3.838   0.081   4.197 -0.0398  0.2944 -0.4526
 5717TIP3    H238567   3.791   0.008   4.321 -0.1359  0.4993 -0.3673
 5718TIP3   OH238568   4.961   4.446   5.460 -0.0612  0.2652 -0.0475
 5718TIP3    H138569   4.955   4.478   5.370 -1.5094 -0.0479 -0.0901
 5718TIP3    H238570   5.054   4.427   5.473  0.0563 -0.5452 -1.7858
 5719TIP3   OH238571   6.563   4.712   4.368 -0.1921 -0.0575  0.5662
 5719TIP3    H138572   6.574   4.617   4.362 -0.3258 -0.0603  0.3481
 5719TIP3    H238573   6.468   4.725   4.367 -0.2410  0.2627 -2.6745
 5720TIP3   OH238574   5.675   4.735  12.639  0.3929  0.0970  0.1270
 5720TIP3    H138575   5.620   4.733  12.717 -0.8207 -2.6193 -0.6645
 5720TIP3    H238576   5.753   4.685  12.663  0.7071  0.5318  0.0321
 5721TIP3   OH238577   1.141   6.536  12.479 -0.1951  0.2091 -0.0241
 5721TIP3    H138578   1.090   6.480  12.538 -1.7198  1.5893  0.0366
 5721TIP3    H238579   1.160   6.615  12.530 -2.6131  1.9774 -1.6357
 5722TIP3   OH238580   4.131   2.877   5.241  0.0262  0.5739 -0.1262
 5722TIP3    H138581   4.055   2.919   5.282 -0.5758  1.8554 -2.3842
 5722TIP3    H238582   4.139   2.920   5.156  1.6339 -1.4292 -1.0710
 5723TIP3   OH238583   1.821   0.201  13.420  0.5782 -0.0447 -0.3145
 5723TIP3    H138584   1.821   0.283  13.372 -1.9009 -0.0218 -0.3983
 5723TIP3    H238585   1.823   0.133  13.352 -3.6897 -0.0286 -0.7700
 5724TIP3   OH238586   0.565   4.589  11.255  0.8001  0.1370  0.1759
 5724TIP3    H138587   0.577   4.626  11.168  2.0018 -0.4238  0.0776
 5724TIP3    H238588   0.595   4.657  11.315 -0.1503  0.5739  0.1801
 5725TIP3   OH238589   2.147   1.854  12.862 -0.2521  0.0846  0.8486
 5725TIP3    H138590   2.095   1.871  12.940 -1.2519 -0.1168  0.2391
 5725TIP3    H238591   2.153   1.758  12.857  0.6030  0.1155  1.1866
 5726TIP3   OH238592   0.427   5.307  16.815  0.6899  0.3122 -0.2173
 5726TIP3    H138593   0.432   5.303  16.910  1.5362  1.7335 -0.1666
 5726TIP3    H238594   0.345   5.353  16.797  0.1142 -0.7068 -0.2057
 5727TIP3   OH238595   2.939   3.445   6.205 -0.1989 -0.0066 -0.4109
 5727TIP3    H138596   2.975   3.490   6.281 -0.7369 -1.3082  0.6532
 5727TIP3    H238597   2.846   3.435   6.226  0.2627 -3.5542  0.4560
 5728TIP3   OH238598   6.257   6.078   5.539 -0.3371 -0.4716 -0.1550
 5728TIP3    H138599   6.253   6.073   5.634  0.3274 -0.4103 -0.1256
 5728TIP3    H238600   6.248   6.172   5.520 -1.8122 -0.5969 -0.2249
 5729TIP3   OH238601   3.401   5.391   6.478 -0.0695  0.1356  0.2200
 5729TIP3    H138602   3.388   5.360   6.568 -0.9323  0.3468  0.1772
 5729TIP3    H238603   3.323   5.361   6.431  0.5753 -0.3422 -0.5632
 5730TIP3   OH238604   1.366   6.330   4.187 -0.9815 -0.0486  0.2697
 5730TIP3    H138605   1.301   6.280   4.236 -1.2547  0.8655  0.8753
 5730TIP3    H238606   1.382   6.408   4.241  1.2874 -0.6668  0.5681
 5731TIP3   OH238607   2.893   4.521  16.113  0.0077 -0.4229 -0.2053
 5731TIP3    H138608   2.874   4.478  16.197  0.0192  0.3137  0.1803
 5731TIP3    H238609   2.844   4.603  16.117 -0.5677 -0.7050 -1.2231
 5732TIP3   OH238610   0.237   4.853   1.651  0.3515  0.0789 -0.1422
 5732TIP3    H138611   0.288   4.903   1.714  0.0741 -0.0645  0.1965
 5732TIP3    H238612   0.302   4.820   1.589  0.3615  2.4226 -1.4902
 5733TIP3   OH238613   3.743   0.090   5.006 -0.0333 -0.3290 -0.3452
 5733TIP3    H138614   3.691   0.045   4.939  0.0098  0.3350 -0.8296
 5733TIP3    H238615   3.785   0.162   4.959 -1.0865  0.9981  0.6763
 5734TIP3   OH238616   0.300   0.118  14.414  0.2576 -0.4937  0.6928
 5734TIP3    H138617   0.323   0.143  14.324 -1.4251  0.9749  0.6072
 5734TIP3    H238618   0.336   0.187  14.468 -1.4711  0.3963  0.7935
 5735TIP3   OH238619   6.661   2.747   5.499 -1.3291 -0.2958  0.4275
 5735TIP3    H138620   6.621   2.811   5.440 -0.5899 -0.1217  0.1011
 5735TIP3    H238621   6.655   2.664   5.452 -0.7743 -0.1636  0.1171
 5736TIP3   OH238622   3.386   4.555   2.202 -0.5911  0.2352  0.9347
 5736TIP3    H138623   3.341   4.555   2.117  0.2241  0.1347  0.4930
 5736TIP3    H238624   3.319   4.584   2.264 -0.6127  2.4059 -0.0363
 5737TIP3   OH238625   3.878   3.720   1.294  0.5830  0.2325 -0.8206
 5737TIP3    H138626   3.796   3.706   1.340  0.4637 -2.2403 -1.6583
 5737TIP3    H238627   3.942   3.739   1.363 -0.5882  2.1021 -0.1552
 5738TIP3   OH238628   1.872   3.534   1.712  0.8269 -0.6419 -0.1707
 5738TIP3    H138629   1.855   3.530   1.618  0.2926 -2.4704 -0.0337
 5738TIP3    H238630   1.890   3.626   1.729 -2.6068  0.4225 -1.4762
 5739TIP3   OH238631   1.767   1.906  14.824 -0.5236 -0.1512  0.3170
 5739TIP3    H138632   1.679   1.874  14.805 -1.0323  0.4253  1.5795
 5739TIP3    H238633   1.758   2.001  14.825  0.5483  0.0108 -1.4191
 5740TIP3   OH238634   3.773   4.273  13.112  0.2244  0.4946 -0.1861
 5740TIP3    H138635   3.844   4.239  13.058  0.6868 -0.5684  1.0340
 5740TIP3    H238636   3.717   4.197  13.130 -0.1265  0.8962  0.4833
 5741TIP3   OH238637   4.704   5.296   5.827  0.0951  0.1246 -0.3089
 5741TIP3    H138638   4.719   5.272   5.918  1.0288  2.5828  0.2573
 5741TIP3    H238639   4.611   5.315   5.821 -0.1688 -1.0265 -0.1715
 5742TIP3   OH238640   5.784   2.187   4.044  0.7212 -0.4814  0.2371
 5742TIP3    H138641   5.825   2.101   4.035  1.8000  0.1619 -1.4646
 5742TIP3    H238642   5.724   2.178   4.119  1.3497 -2.4773  0.5452
 5743TIP3   OH238643   1.822   1.223   4.342 -0.0908  0.1560 -0.1806
 5743TIP3    H138644   1.731   1.194   4.333 -0.1115  0.2541 -0.2981
 5743TIP3    H238645   1.834   1.236   4.436 -0.0683 -0.2703 -0.1186
 5744TIP3   OH238646   2.853   3.374  15.529  0.0526 -0.0427 -0.2902
 5744TIP3    H138647   2.773   3.422  15.506  0.4222  0.4064 -0.6585
 5744TIP3    H238648   2.885   3.341  15.445  0.3757 -0.0314 -0.1693
 5745TIP3   OH238649   5.934   2.567  12.866  0.0087  0.1333 -0.3417
 5745TIP3    H138650   5.911   2.476  12.886 -0.4869  0.4601  0.6404
 5745TIP3    H238651   5.850   2.613  12.862  0.2901  0.6719 -0.1579
 5746TIP3   OH238652   2.940   5.937  15.080  0.2131 -0.6956  0.0538
 5746TIP3    H138653   2.924   5.900  15.167 -0.7488 -0.7929 -0.1578
 5746TIP3    H238654   2.853   5.951  15.043  0.6116 -0.6720 -0.9068
 5747TIP3   OH238655   0.315   2.770  16.548  0.6049  0.2037 -0.0402
 5747TIP3    H138656   0.317   2.821  16.467  0.1422  1.5075  0.7410
 5747TIP3    H238657   0.254   2.699  16.530 -0.2601  1.0421 -0.5327
 5748TIP3   OH238658   3.213   3.300  12.308  0.1677 -0.6706  0.2135
 5748TIP3    H138659   3.245   3.365  12.371  2.6466 -1.2228 -0.3443
 5748TIP3    H238660   3.196   3.222  12.361 -1.3534 -0.0684  0.6655
 5749TIP3   OH238661   6.173   5.527   3.902 -0.2776  0.2857  0.2923
 5749TIP3    H138662   6.169   5.583   3.824  0.3074  0.6494  0.5205
 5749TIP3    H238663   6.160   5.587   3.975  2.6671  0.5580  0.7035
 5750TIP3   OH238664   1.586   4.177  14.472 -0.0457  0.1452 -0.4615
 5750TIP3    H138665   1.579   4.114  14.544  1.0983 -1.7508 -1.9058
 5750TIP3    H238666   1.662   4.147  14.422 -1.1235  1.0544 -2.7779
 5751TIP3   OH238667   0.460   5.729   4.532  0.2440  0.3348  0.2752
 5751TIP3    H138668   0.551   5.701   4.541  0.2415  0.5353  0.9788
 5751TIP3    H238669   0.447   5.791   4.604 -0.8833 -0.8186  1.1185
 5752TIP3   OH238670   5.165   2.640  16.463  0.2483  0.1061  0.2940
 5752TIP3    H138671   5.209   2.643  16.549  0.3280 -1.4172  0.3257
 5752TIP3    H238672   5.193   2.557  16.425 -0.1547  0.5626 -1.0257
 5753TIP3   OH238673   1.208   4.355  15.991 -0.1323  0.1706  0.0263
 5753TIP3    H138674   1.221   4.425  15.927 -0.3042 -1.4878 -1.9243
 5753TIP3    H238675   1.290   4.352  16.040  0.5709  0.5770 -1.0808
 5754TIP3   OH238676   3.933   4.480  16.672 -0.0897  0.6262  0.1770
 5754TIP3    H138677   3.864   4.456  16.734  1.0835  3.0443  2.5981
 5754TIP3    H238678   3.916   4.572  16.651  2.5672  1.4889  1.3006
 5755TIP3   OH238679   0.283   1.008   2.895  0.1052  0.0649 -0.1776
 5755TIP3    H138680   0.247   1.097   2.898 -1.1249 -0.3790 -1.0032
 5755TIP3    H238681   0.271   0.981   2.804 -0.9384 -1.4873  0.3769
 5756TIP3   OH238682   0.360   5.611  10.923  0.0522 -0.5817 -0.2167
 5756TIP3    H138683   0.443   5.599  10.878 -0.3073  0.5393 -1.2017
 5756TIP3    H238684   0.308   5.666  10.865 -0.8708 -0.1004  1.0188
 5757TIP3   OH238685   6.494   4.051   3.496  0.6648 -0.2293  0.8065
 5757TIP3    H138686   6.505   3.994   3.419 -3.2671 -1.2071  0.7126
 5757TIP3    H238687   6.444   4.126   3.463 -0.1430 -0.1341  2.1725
 5758TIP3   OH238688   1.890   4.988  12.997  0.5114  0.8655 -0.3046
 5758TIP3    H138689   1.940   5.054  12.948  1.1457  1.0206  0.5207
 5758TIP3    H238690   1.940   4.907  12.986  2.2699  1.4554  2.3193
 5759TIP3   OH238691   0.844   4.290   4.906 -0.0992  0.1327 -0.7190
 5759TIP3    H138692   0.755   4.320   4.924  0.4794  0.9672  0.8694
 5759TIP3    H238693   0.846   4.278   4.811 -1.5722  1.1846 -0.9145
 5760TIP3   OH238694   5.107   1.709  11.529 -0.0989  0.5642  0.7048
 5760TIP3    H138695   5.152   1.793  11.531  0.5144  0.2627  0.0590
 5760TIP3    H238696   5.175   1.645  11.552 -0.2924  0.1498  0.1561
 5761TIP3   OH238697   0.262   4.658   0.513 -0.3220  0.3821  0.3606
 5761TIP3    H138698   0.257   4.690   0.423  0.3373  1.3457  0.6536
 5761TIP3    H238699   0.243   4.735   0.566 -0.9493 -0.2347  1.0552
 5762TIP3   OH238700   0.354   3.265  13.572 -0.8230  0.4293  0.4809
 5762TIP3    H138701   0.437   3.259  13.524 -1.3105  0.6176 -0.3873
 5762TIP3    H238702   0.308   3.339  13.532 -1.0596  0.8689  1.5228
 5763TIP3   OH238703   6.152   1.322  11.210  0.1147 -0.2578  0.0593
 5763TIP3    H138704   6.187   1.320  11.121  2.1232 -0.5478  0.8028
 5763TIP3    H238705   6.068   1.277  11.204  1.2567 -2.4069 -1.2925
 5764TIP3   OH238706   1.576   6.650  12.095 -0.2157  0.1038 -0.3239
 5764TIP3    H138707   1.644   6.701  12.051 -1.6868  1.3262 -1.2816
 5764TIP3    H238708   1.514   6.627  12.025  0.6387 -3.5777 -0.0706
 5765TIP3   OH238709   0.819   3.015   2.530  0.6941 -0.2747  0.3350
 5765TIP3    H138710   0.808   3.028   2.435  1.2317 -0.9779  0.1657
 5765TIP3    H238711   0.842   2.922   2.539  2.6375  0.2138  0.9675
 5766TIP3   OH238712   2.885   2.908  17.175  0.3742 -0.6600  0.0148
 5766TIP3    H138713   2.908   2.817  17.192  1.4520 -0.4498 -0.2326
 5766TIP3    H238714   2.838   2.906  17.091 -0.0903 -1.0452  0.2826
 5767TIP3   OH238715   3.158   6.470  16.310 -0.0977  0.2286 -0.7181
 5767TIP3    H138716   3.237   6.489  16.260  0.2802  1.8348  0.4186
 5767TIP3    H238717   3.129   6.555  16.343 -2.4115 -0.2937 -1.2440
 5768TIP3   OH238718   4.622   5.703  14.680  0.5700  0.1416  0.6154
 5768TIP3    H138719   4.630   5.621  14.728  2.3665  0.4144  0.8373
 5768TIP3    H238720   4.602   5.676  14.590 -0.5605 -0.4441  1.0174
 5769TIP3   OH238721   3.471   4.924   0.075  0.2744  0.0237  0.3853
 5769TIP3    H138722   3.410   4.985   0.117  0.8729 -0.4433  1.9964
 5769TIP3    H238723   3.553   4.972   0.070 -0.1638  0.6528 -1.7870
 5770TIP3   OH238724   0.525   0.235  16.411  0.0116  0.3062  0.0049
 5770TIP3    H138725   0.477   0.155  16.431  0.7286 -0.2625 -0.5048
 5770TIP3    H238726   0.577   0.252  16.490  1.0871 -0.6494 -0.4654
 5771TIP3   OH238727   2.654   3.850  11.735 -0.6168 -0.9053 -0.2066
 5771TIP3    H138728   2.670   3.769  11.784  0.3989 -1.1421 -0.8838
 5771TIP3    H238729   2.624   3.819  11.649  1.8046 -0.6958 -1.2136
 5772TIP3   OH238730   1.207   6.118  11.677 -0.6829 -0.6754  0.1272
 5772TIP3    H138731   1.272   6.089  11.741  2.0859 -1.7703 -2.9066
 5772TIP3    H238732   1.162   6.038  11.651  0.1954 -0.7305 -1.2835
 5773TIP3   OH238733   2.153   5.848   3.207 -0.0567 -0.6931  0.0648
 5773TIP3    H138734   2.245   5.834   3.229  0.1131  1.3207  0.8818
 5773TIP3    H238735   2.127   5.923   3.261 -1.6667 -0.0670 -1.4727
 5774TIP3   OH238736   3.279   4.142   3.185 -0.1539  0.2835  0.1770
 5774TIP3    H138737   3.275   4.126   3.090  1.8331 -0.5215  0.1718
 5774TIP3    H238738   3.306   4.058   3.222 -0.3877  0.7312  1.4015
 5775TIP3   OH238739   3.477   6.600   6.162  0.4627 -0.6755  0.0694
 5775TIP3    H138740   3.425   6.645   6.096  2.3151  0.9606 -0.3847
 5775TIP3    H238741   3.413   6.553   6.216 -1.2902 -0.1145 -1.4245
 5776TIP3   OH238742   5.917   4.448   0.105 -0.1045 -0.4966 -0.0674
 5776TIP3    H138743   5.875   4.527   0.138  1.2422 -0.0400  0.6248
 5776TIP3    H238744   5.952   4.473   0.020  1.7020  0.1669  0.8296
 5777TIP3   OH238745   0.518   2.359   3.595  0.5866 -0.3912 -0.0908
 5777TIP3    H138746   0.554   2.317   3.674  1.7289  0.9968  0.1882
 5777TIP3    H238747   0.503   2.449   3.622 -0.2391 -0.2132 -1.1206
 5778TIP3   OH238748   0.839   1.225  17.026  0.1757  0.1224 -0.7624
 5778TIP3    H138749   0.919   1.173  17.031 -0.9944 -1.6242  1.8326
 5778TIP3    H238750   0.768   1.161  17.023 -1.2706  1.5389  0.8599
 5779TIP3   OH238751   5.570   1.690  12.868 -0.3571 -0.2376 -0.3166
 5779TIP3    H138752   5.596   1.656  12.954  0.3841  3.2430  0.9775
 5779TIP3    H238753   5.642   1.746  12.841 -1.5663  0.5193 -2.1613
 5780TIP3   OH238754   4.800   3.641  12.341  0.0590 -0.2002 -0.6703
 5780TIP3    H138755   4.705   3.655  12.333 -0.0597 -0.7634 -0.3217
 5780TIP3    H238756   4.838   3.729  12.341 -0.6585  0.1721  1.7049
 5781TIP3   OH238757   1.877   3.007   4.981  0.5205 -0.3135  0.1393
 5781TIP3    H138758   1.972   2.992   4.974  1.0026  0.3629  3.5604
 5781TIP3    H238759   1.847   2.939   5.041 -0.7100  0.9150  0.9458
 5782TIP3   OH238760   6.518   2.240  13.976  0.1457 -0.1817 -0.0415
 5782TIP3    H138761   6.520   2.162  13.921  0.2833 -0.6283  0.5904
 5782TIP3    H238762   6.590   2.229  14.037 -0.2746  0.0910  0.5197
 5783TIP3   OH238763   1.602   5.047  16.692 -0.5638  0.4742 -0.6414
 5783TIP3    H138764   1.591   4.969  16.639  2.9734 -0.1354 -0.7157
 5783TIP3    H238765   1.586   5.120  16.632  0.1794 -0.2127 -1.6922
 5784TIP3   OH238766   3.395   0.576   1.635  0.1668  0.3264  0.4440
 5784TIP3    H138767   3.431   0.655   1.595 -0.2555  0.1357 -0.3542
 5784TIP3    H238768   3.438   0.504   1.589  0.5657  0.0831  1.1827
 5785TIP3   OH238769   2.885   4.578   0.022  0.1600 -0.5968  0.3145
 5785TIP3    H138770   2.805   4.592  -0.029 -0.2532 -0.4307  0.9986
 5785TIP3    H238771   2.869   4.623   0.105  1.1447 -0.1776  0.2896
 5786TIP3   OH238772   3.543   3.397  14.791 -0.0912 -0.0424  0.5829
 5786TIP3    H138773   3.505   3.483  14.771  0.3334  0.1904  0.7377
 5786TIP3    H238774   3.569   3.362  14.705  0.9037  0.5579  0.6144
 5787TIP3   OH238775   0.361   5.702   0.378 -0.0662 -0.3158 -0.9466
 5787TIP3    H138776   0.417   5.759   0.430  0.2950 -0.6030 -1.0131
 5787TIP3    H238777   0.272   5.727   0.402  0.0940 -0.6051 -0.0137
 5788TIP3   OH238778   0.597   2.796  14.335  0.5080  0.3865 -0.2382
 5788TIP3    H138779   0.561   2.755  14.413 -0.8095 -0.7233 -1.3561
 5788TIP3    H238780   0.588   2.890  14.349 -3.0186  0.2096 -0.4397
 5789TIP3   OH238781   0.138   0.627  13.238 -0.2782  0.7890  0.4442
 5789TIP3    H138782   0.169   0.685  13.307  1.0872 -1.2674  1.6592
 5789TIP3    H238783   0.043   0.626  13.249 -0.1253  0.8274  2.0752
 5790TIP3   OH238784   4.012   5.004   1.797  0.2380  0.5929 -0.1757
 5790TIP3    H138785   4.022   4.961   1.712 -0.3170 -0.8851  0.4720
 5790TIP3    H238786   4.068   4.954   1.856 -1.7463 -0.4228  0.9696
 5791TIP3   OH238787   4.409   6.348  14.847  0.9276 -1.0906 -0.4679
 5791TIP3    H138788   4.483   6.352  14.786  2.3705 -1.2608  1.2141
 5791TIP3    H238789   4.338   6.394  14.801  2.3304 -0.1184 -1.7710
 5792TIP3   OH238790   0.260   0.501   0.953 -0.3618  0.0600 -0.2624
 5792TIP3    H138791   0.300   0.517   1.038 -0.8781 -1.3007  0.2649
 5792TIP3    H238792   0.220   0.414   0.961  0.6737 -0.6600 -2.3024
 5793TIP3   OH238793   3.330   2.125   4.894 -0.1817  0.1536 -0.1790
 5793TIP3    H138794   3.355   2.189   4.961  0.3782  0.5459 -0.7525
 5793TIP3    H238795   3.402   2.061   4.894 -0.7396 -0.4920  0.3957
 5794TIP3   OH238796   5.312   3.919   5.819 -0.8655  0.2251  0.6850
 5794TIP3    H138797   5.224   3.892   5.792 -0.3395  0.6012 -1.6610
 5794TIP3    H238798   5.298   3.971   5.898 -2.6497 -0.4219  0.8435
 5795TIP3   OH238799   3.620   3.265   5.964 -0.3819 -0.0566  0.5668
 5795TIP3    H138800   3.590   3.353   5.986 -0.3716 -0.3420  1.8294
 5795TIP3    H238801   3.697   3.252   6.020  1.0637  0.0085 -1.3156
 5796TIP3   OH238802   2.870   0.056  13.336 -0.2859 -0.4033  0.4375
 5796TIP3    H138803   2.928  -0.012  13.371  0.2105 -0.7357 -0.9804
 5796TIP3    H238804   2.819   0.011  13.269  0.3314  0.6944 -0.8014
 5797TIP3   OH238805   2.749   1.485  12.463 -0.0996  0.8925  0.0227
 5797TIP3    H138806   2.708   1.479  12.377 -1.1076  2.3589  0.3655
 5797TIP3    H238807   2.676   1.484  12.525  0.3776  2.8660  0.6865
 5798TIP3   OH238808   1.669   4.495   2.059 -0.0376 -0.5648 -0.2159
 5798TIP3    H138809   1.585   4.524   2.022 -0.5436 -0.6568  0.8134
 5798TIP3    H238810   1.701   4.572   2.107 -0.7343 -1.2300  1.4084
 5799TIP3   OH238811   1.285   2.770   0.718  0.1303 -0.5598  0.8492
 5799TIP3    H138812   1.258   2.698   0.775 -1.0023  0.1073  1.1889
 5799TIP3    H238813   1.213   2.781   0.656 -0.9196  1.8481  2.3410
 5800TIP3   OH238814   0.380   5.205  14.243 -0.1988  0.6990 -0.1844
 5800TIP3    H138815   0.305   5.247  14.286  0.7734  0.4084  1.9448
 5800TIP3    H238816   0.452   5.267  14.256  0.6239 -0.3725  0.6045
 5801TIP3   OH238817   3.618   1.094   4.771  0.3721 -0.1212  0.1045
 5801TIP3    H138818   3.526   1.067   4.771  0.5409 -0.7253 -0.7521
 5801TIP3    H238819   3.629   1.141   4.688  1.0731 -0.9295 -0.2790
 5802TIP3   OH238820   2.152   2.897   0.983 -0.0300 -0.1630  0.0054
 5802TIP3    H138821   2.173   2.847   1.062 -3.2850  0.2728  1.2852
 5802TIP3    H238822   2.138   2.986   1.014 -3.4407 -0.3662 -0.5421
 5803TIP3   OH238823   6.012   2.776  13.287 -0.3728 -0.5357  0.0256
 5803TIP3    H138824   5.996   2.803  13.196  0.6155  0.2309  0.0626
 5803TIP3    H238825   5.935   2.724  13.310 -0.5427 -0.9239 -1.3167
 5804TIP3   OH238826   2.785   0.237   1.732  0.2165 -0.0994  0.0696
 5804TIP3    H138827   2.800   0.310   1.792 -0.7122  0.0607  0.1215
 5804TIP3    H238828   2.690   0.227   1.730  0.2042  0.1572 -1.6966
 5805TIP3   OH238829   0.350   6.449  15.348 -0.3215  0.3120  0.0068
 5805TIP3    H138830   0.355   6.464  15.253 -2.3566 -0.9372 -0.3645
 5805TIP3    H238831   0.420   6.504  15.384 -0.1972  1.6977 -2.1060
 5806TIP3   OH238832   3.596   5.226  13.772 -0.0175 -0.3000 -0.1526
 5806TIP3    H138833   3.555   5.186  13.848  0.5190 -1.2312 -0.3444
 5806TIP3    H238834   3.680   5.258  13.805 -0.5451  0.9194  0.0595
 5807TIP3   OH238835   5.243   2.690   2.252 -0.0726  0.2825  0.1205
 5807TIP3    H138836   5.300   2.694   2.176  0.8155  1.7597  0.8354
 5807TIP3    H238837   5.232   2.780   2.280  0.3809 -0.2800  2.3007
 5808TIP3   OH238838   2.831   0.243   2.886 -0.3814 -0.1322  0.6634
 5808TIP3    H138839   2.876   0.287   2.813 -1.6168  0.3048  0.1525
 5808TIP3    H238840   2.899   0.235   2.953  0.6007  0.0888 -0.2542
 5809TIP3   OH238841   2.059   4.081  15.369  0.2477  0.3369  0.4494
 5809TIP3    H138842   2.051   4.059  15.276  1.6893  1.5394  0.0086
 5809TIP3    H238843   2.081   3.998  15.411 -0.3447 -0.2061 -0.2717
 5810TIP3   OH238844   1.941   4.127   3.694 -0.7479  0.5766 -0.4997
 5810TIP3    H138845   1.920   4.066   3.765  1.3016  0.4948  0.0755
 5810TIP3    H238846   1.974   4.071   3.624  0.4623  0.9385 -0.2348
 5811TIP3   OH238847   6.343   2.102   1.684 -0.0387 -0.2459 -0.0516
 5811TIP3    H138848   6.284   2.161   1.638  0.2757 -0.0178 -0.1686
 5811TIP3    H238849   6.369   2.149   1.763  0.1208 -0.2699 -0.0876
 5812TIP3   OH238850   6.080   3.798  15.145  0.2063 -0.3808 -0.0722
 5812TIP3    H138851   6.119   3.794  15.058 -1.1696 -1.1392 -0.6904
 5812TIP3    H238852   6.097   3.712  15.183 -0.4261 -0.5470 -0.1587
 5813TIP3   OH238853   2.338   5.546  13.068  0.0490 -0.3808  0.2319
 5813TIP3    H138854   2.295   5.612  13.014  0.3210  0.6513  1.2350
 5813TIP3    H238855   2.300   5.463  13.040  0.9885 -0.0483 -2.3473
 5814TIP3   OH238856   6.640   0.299   4.098  0.0181  0.1649 -0.0278
 5814TIP3    H138857   6.604   0.238   4.163 -0.1874  0.2785 -0.0329
 5814TIP3    H238858   6.720   0.257   4.067  0.8477  0.7044  1.2720
 5815TIP3   OH238859   3.625   3.929  16.072  0.8131 -0.0102  0.3553
 5815TIP3    H138860   3.545   3.977  16.051  0.6641  0.8247  2.4983
 5815TIP3    H238861   3.595   3.855  16.126  1.4600  0.3855  1.2891
 5816TIP3   OH238862   0.150   5.395   6.290  0.2144 -0.4058  0.2689
 5816TIP3    H138863   0.110   5.327   6.236 -1.6062  0.1148  0.8880
 5816TIP3    H238864   0.098   5.473   6.272  1.7711  0.6382  0.1774
 5817TIP3   OH238865   2.321   1.938   4.061 -0.0667  0.3823 -0.3318
 5817TIP3    H138866   2.370   1.997   4.004  2.7119 -1.3904 -0.0305
 5817TIP3    H238867   2.285   1.872   4.002  1.7555 -0.7558 -0.2547
 5818TIP3   OH238868   4.161   4.130   5.498 -0.4983 -0.1003 -0.1803
 5818TIP3    H138869   4.193   4.040   5.499 -1.5967 -0.5104 -0.8208
 5818TIP3    H238870   4.205   4.172   5.572  1.4324 -0.6480 -0.9424
 5819TIP3   OH238871   5.789   2.091  17.179 -0.3406  0.7180  0.1017
 5819TIP3    H138872   5.784   2.187  17.179 -1.0396  0.7057  1.3852
 5819TIP3    H238873   5.838   2.070  17.258  1.7509  0.0486 -1.2907
 5820TIP3   OH238874   4.760   5.953  14.930 -0.1493  0.3537  0.4550
 5820TIP3    H138875   4.683   5.947  14.987 -0.1108 -1.4605  0.3834
 5820TIP3    H238876   4.725   5.975  14.844 -0.9741 -2.7340 -0.1417
 5821TIP3   OH238877   2.588   0.030  13.669  0.1667 -0.2677 -0.1342
 5821TIP3    H138878   2.517  -0.016  13.713  0.0341  1.1361  1.2173
 5821TIP3    H238879   2.668  -0.005  13.708  0.1637 -0.7957 -0.5926
 5822TIP3   OH238880   5.569   4.731   0.807 -0.2387  0.0841  0.2447
 5822TIP3    H138881   5.647   4.772   0.770  0.5968 -0.0490  1.7509
 5822TIP3    H238882   5.569   4.642   0.770  0.4757  0.0076  0.4097
 5823TIP3   OH238883   6.099   2.872   5.241  0.7248  0.6036 -0.3292
 5823TIP3    H138884   6.032   2.807   5.261  0.1963  0.7478 -1.5463
 5823TIP3    H238885   6.169   2.823   5.198  1.2768  0.5063  0.6544
 5824TIP3   OH238886   5.472   2.496   3.464  0.0709  0.7490 -0.3615
 5824TIP3    H138887   5.542   2.560   3.451 -0.6853  1.2952 -2.2030
 5824TIP3    H238888   5.401   2.527   3.406 -1.6493  0.1483  1.3323
 5825TIP3   OH238889   6.142   3.864   1.808 -0.3610 -0.3727  0.0282
 5825TIP3    H138890   6.183   3.922   1.872 -0.6043 -0.8261  0.5946
 5825TIP3    H238891   6.049   3.869   1.827 -0.3319 -1.4292  0.4826
 5826TIP3   OH238892   3.411   3.207  15.197 -0.2458  0.1695 -0.5279
 5826TIP3    H138893   3.353   3.279  15.225 -0.8548 -1.1423  1.9551
 5826TIP3    H238894   3.434   3.228  15.107 -0.1321  3.6265  0.1760
 5827TIP3   OH238895   3.956   5.727   3.872  0.3130  0.1739 -0.2682
 5827TIP3    H138896   3.971   5.818   3.898  0.7400 -0.4890  2.0908
 5827TIP3    H238897   3.936   5.682   3.954 -0.6563 -1.7350 -1.4746
 5828TIP3   OH238898   4.515   2.816  10.981  0.2869  0.6285 -0.0161
 5828TIP3    H138899   4.574   2.829  10.907  1.7330 -0.1027  0.9555
 5828TIP3    H238900   4.448   2.883  10.970  0.4389  0.5202 -1.9900
 5829TIP3   OH238901   5.886   0.333  13.136  0.2933 -0.0842  0.7201
 5829TIP3    H138902   5.822   0.263  13.126  1.4272 -1.2599  1.4292
 5829TIP3    H238903   5.951   0.317  13.068  0.9395 -0.1551  1.3461
 5830TIP3   OH238904   5.832   5.318   3.505  0.1750  0.0863 -0.4575
 5830TIP3    H138905   5.877   5.266   3.573 -0.7530  0.5266  0.5319
 5830TIP3    H238906   5.765   5.258   3.471 -0.5380  0.4331  0.3005
 5831TIP3   OH238907   1.792   3.671   0.562  0.1807  0.3003 -0.3220
 5831TIP3    H138908   1.737   3.616   0.618  0.3758 -1.5683 -1.8306
 5831TIP3    H238909   1.872   3.683   0.612 -0.1789 -0.1277  0.3774
 5832TIP3   OH238910   2.192   4.858  10.697  0.3366  0.2516 -0.1520
 5832TIP3    H138911   2.258   4.869  10.628 -0.8940  0.4922 -1.3465
 5832TIP3    H238912   2.220   4.918  10.766  1.7197 -0.1358 -0.3312
 5833TIP3   OH238913   6.560   0.030   4.263 -0.3523  0.3364 -0.3590
 5833TIP3    H138914   6.635   0.035   4.323 -1.4394 -0.5598  1.1385
 5833TIP3    H238915   6.501   0.099   4.292 -0.6447  0.2727 -0.7902
 5834TIP3   OH238916   6.366   0.618  16.491  0.0853 -0.9517 -0.4678
 5834TIP3    H138917   6.442   0.675  16.482 -1.2038  1.1373  0.9004
 5834TIP3    H238918   6.358   0.603  16.585 -0.1499 -2.6729 -0.7359
 5835TIP3   OH238919   3.547   5.211  12.604 -0.3905  0.3874  0.0771
 5835TIP3    H138920   3.613   5.161  12.556 -2.8006 -1.1490 -1.9131
 5835TIP3    H238921   3.585   5.298  12.614  2.5334 -0.8009  0.4727
 5836TIP3   OH238922   1.762   4.840  13.912  0.0995 -0.8299 -0.1182
 5836TIP3    H138923   1.726   4.833  13.824  0.2876 -1.7257 -0.1306
 5836TIP3    H238924   1.704   4.788  13.967  0.1912 -0.5721  0.2325
 5837TIP3   OH238925   5.844   1.317   0.157  0.2857 -0.0055 -0.0927
 5837TIP3    H138926   5.837   1.383   0.088  1.5471  1.7884  1.4009
 5837TIP3    H238927   5.880   1.364   0.232 -1.9524 -1.6041  2.1589
 5838TIP3   OH238928   4.036   2.035  14.814  0.3481  0.0978  0.0635
 5838TIP3    H138929   4.122   2.016  14.776 -0.7351 -0.5930 -2.1875
 5838TIP3    H238930   3.980   2.053  14.738 -1.4831  0.6606  1.4854
 5839TIP3   OH238931   2.694   4.070  15.308 -0.4253 -0.2061 -1.0562
 5839TIP3    H138932   2.703   4.030  15.394  4.3780  1.1385 -0.6514
 5839TIP3    H238933   2.650   4.154  15.326  1.3911  0.5211  0.4078
 5840TIP3   OH238934   0.277   1.085   0.771  0.1133 -0.1004 -0.3704
 5840TIP3    H138935   0.242   1.129   0.848 -1.2387 -3.0518  0.8561
 5840TIP3    H238936   0.353   1.036   0.803 -0.8503 -1.8818 -0.7082
 5841TIP3   OH238937   6.081   0.996  13.650 -0.1490 -0.1960  0.5613
 5841TIP3    H138938   6.004   0.980  13.706  0.1207 -0.5319  0.8381
 5841TIP3    H238939   6.106   1.086  13.670  0.1341 -0.4156  1.2211
 5842TIP3   OH238940   3.437   1.446  13.824  0.4905 -0.2089 -0.3081
 5842TIP3    H138941   3.344   1.444  13.804  0.6108 -2.6150 -0.9971
 5842TIP3    H238942   3.461   1.539  13.823 -1.9145  0.4590  0.0937
 5843TIP3   OH238943   6.089   0.951   1.032  0.0981  0.4342  0.3170
 5843TIP3    H138944   6.055   0.885   0.973 -2.5047  0.6412  1.4536
 5843TIP3    H238945   6.179   0.966   1.002 -0.3432 -1.1240 -2.0604
 5844TIP3   OH238946   4.294   5.533  16.635  1.3825 -0.1544 -0.9938
 5844TIP3    H138947   4.250   5.452  16.662 -1.4207  1.2166 -1.1342
 5844TIP3    H238948   4.301   5.585  16.715  2.6800 -0.2673 -1.0075
 5845TIP3   OH238949   5.284   4.705  14.056  0.1824 -0.1480 -0.0677
 5845TIP3    H138950   5.299   4.799  14.057 -1.0191  0.0613  0.1948
 5845TIP3    H238951   5.257   4.685  14.146 -1.1080 -0.4628 -0.5093
 5846TIP3   OH238952   5.714   0.622   6.525 -0.4004 -0.3895 -0.0999
 5846TIP3    H138953   5.736   0.530   6.539  1.3796 -0.4018 -2.4262
 5846TIP3    H238954   5.622   0.621   6.498 -0.6084 -1.3776  0.5804
 5847TIP3   OH238955   4.369   4.158  16.781 -0.0902 -0.1229  0.3276
 5847TIP3    H138956   4.293   4.190  16.733  0.0906 -0.0421  0.0928
 5847TIP3    H238957   4.398   4.233  16.833 -0.1333 -0.1336  0.3657
 5848TIP3   OH238958   5.344   0.973  16.765 -0.2174 -1.0865 -0.3487
 5848TIP3    H138959   5.308   0.949  16.679  0.8569 -0.0601 -1.1084
 5848TIP3    H238960   5.381   1.060  16.752  0.8626 -1.3342  0.8936
 5849TIP3   OH238961   2.433   1.661  14.021 -0.1316 -0.5145  0.1829
 5849TIP3    H138962   2.351   1.622  13.993 -0.7977  1.4156 -0.6476
 5849TIP3    H238963   2.408   1.744  14.063  1.4754  1.5161 -2.5609
 5850TIP3   OH238964   0.083   2.426  12.414 -0.2893  0.0626  0.3611
 5850TIP3    H138965  -0.004   2.442  12.450  0.2600 -0.3085  1.9029
 5850TIP3    H238966   0.075   2.452  12.322 -1.8822  0.5081  0.5868
 5851TIP3   OH238967   1.740   1.115  16.197  0.3146 -0.5988  0.1291
 5851TIP3    H138968   1.769   1.195  16.240 -0.2875  0.0008 -0.5581
 5851TIP3    H238969   1.726   1.053  16.269  2.5550 -0.6983  0.5508
 5852TIP3   OH238970   2.050   1.658  13.244 -0.2768 -0.0112 -0.3923
 5852TIP3    H138971   2.060   1.734  13.187 -1.8920  0.3846 -0.1832
 5852TIP3    H238972   2.035   1.694  13.331 -0.0301 -0.5875 -0.1016
 5853TIP3   OH238973   2.997   0.990   3.407  0.5825  0.1180  0.6419
 5853TIP3    H138974   3.077   0.962   3.363  0.5781 -0.2626  0.8720
 5853TIP3    H238975   2.928   0.941   3.363  0.4106  0.8173  0.1045
 5854TIP3   OH238976   6.605   1.847  12.403 -0.4496  0.3818  0.1221
 5854TIP3    H138977   6.669   1.835  12.474  0.8286 -0.7598 -1.1424
 5854TIP3    H238978   6.577   1.938  12.410  1.3268  0.9160  0.7573
 5855TIP3   OH238979   0.952   5.813  15.753  0.0172  0.2590 -0.5158
 5855TIP3    H138980   0.947   5.738  15.811  0.3754  0.4733 -0.2005
 5855TIP3    H238981   1.028   5.796  15.697 -1.4574 -0.8890 -2.2899
 5856TIP3   OH238982   6.277   2.093   2.952 -0.3754 -0.0779 -0.7874
 5856TIP3    H138983   6.263   2.117   2.860 -0.9772  0.4213 -0.5673
 5856TIP3    H238984   6.199   2.123   2.997  1.0397  2.1719  0.3515
 5857TIP3   OH238985   2.619   4.642   3.535 -0.2335  0.1751  0.0414
 5857TIP3    H138986   2.588   4.580   3.468 -0.1587  0.3153 -0.1228
 5857TIP3    H238987   2.631   4.724   3.488  0.0411  0.2163  0.1809
 5858TIP3   OH238988   3.205   0.761  14.916 -0.1780  0.0029 -0.5277
 5858TIP3    H138989   3.110   0.766  14.910 -0.4014 -1.4913  1.0025
 5858TIP3    H238990   3.233   0.853  14.921 -1.8070  0.4805  1.9155
 5859TIP3   OH238991   5.572   0.293  15.884 -0.1088 -0.5582 -0.4311
 5859TIP3    H138992   5.613   0.214  15.921 -0.9771 -2.3571 -3.0321
 5859TIP3    H238993   5.479   0.284  15.906 -0.2940 -0.5432 -1.1901
 5860TIP3   OH238994   3.271   5.658   5.031 -0.0926  0.0510  0.3218
 5860TIP3    H138995   3.351   5.654   4.979 -0.3741  0.6626 -0.1771
 5860TIP3    H238996   3.252   5.751   5.037  0.5791  0.0916  2.5483
 5861TIP3   OH238997   2.314   2.120  15.075 -0.0357  0.3815  0.5235
 5861TIP3    H138998   2.313   2.176  15.153  1.4989  1.7067 -0.3419
 5861TIP3    H238999   2.406   2.094  15.066 -0.3590 -0.4671 -0.3551
 5862TIP3   OH239000   5.256   2.508  10.807  0.4845 -0.0405  0.5285
 5862TIP3    H139001   5.166   2.518  10.839  0.2509  1.1792 -0.4264
 5862TIP3    H239002   5.294   2.595  10.816  0.9823 -0.1029 -0.7858
 5863TIP3   OH239003   4.755   5.399  15.257 -0.1560 -0.3190  0.0290
 5863TIP3    H139004   4.723   5.358  15.176  0.6180 -1.4879  0.2913
 5863TIP3    H239005   4.781   5.487  15.230  0.2936 -0.7563 -1.0669
 5864TIP3   OH239006   4.638   4.733  15.415  0.1625  0.6312  0.2363
 5864TIP3    H139007   4.692   4.754  15.491 -0.4294 -0.8075  1.0985
 5864TIP3    H239008   4.582   4.662  15.445  0.5992 -0.6632 -1.8126
 5865TIP3   OH239009   6.580   3.620  11.894 -0.1536  0.4118 -0.2014
 5865TIP3    H139010   6.625   3.572  11.964 -0.6911  1.8940  1.2221
 5865TIP3    H239011   6.531   3.553  11.847 -0.8656 -0.4908  1.7008
 5866TIP3   OH239012   2.638   1.256   1.434 -0.5741  0.6073 -0.2780
 5866TIP3    H139013   2.733   1.263   1.430 -0.5113 -0.4714 -2.4895
 5866TIP3    H239014   2.606   1.328   1.380 -1.1568  2.0332  1.8354
 5867TIP3   OH239015   0.827   6.159   3.162  0.3670 -0.0815  0.1038
 5867TIP3    H139016   0.883   6.112   3.099 -0.6120 -1.0610 -0.0757
 5867TIP3    H239017   0.837   6.251   3.139  1.4181 -0.2770 -0.3126
 5868TIP3   OH239018   3.151   0.443  15.487 -0.2148  0.4428  0.2843
 5868TIP3    H139019   3.205   0.364  15.494 -0.3381  0.5036  3.0432
 5868TIP3    H239020   3.062   0.411  15.474 -0.3601  0.0155  2.0294
 5869TIP3   OH239021   6.695   2.062   5.840  0.1977 -0.3586  0.3242
 5869TIP3    H139022   6.747   1.996   5.793  0.8453 -0.9160  1.7720
 5869TIP3    H239023   6.747   2.142   5.833 -0.1900 -0.1862 -0.7342
 5870TIP3   OH239024   2.016   6.734  16.729 -0.1863 -0.5339 -0.0287
 5870TIP3    H139025   2.074   6.801  16.765  1.2240 -1.3411 -0.7043
 5870TIP3    H239026   1.931   6.777  16.723  0.1610  0.4830  1.6120
 5871TIP3   OH239027   2.503   6.303   0.577 -0.1375  0.1333  0.8044
 5871TIP3    H139028   2.461   6.230   0.532 -1.0798  0.5781  0.9393
 5871TIP3    H239029   2.453   6.380   0.550 -1.2351  0.3305  3.1586
 5872TIP3   OH239030   1.575   1.824  16.715  0.0864  0.3579  0.0402
 5872TIP3    H139031   1.590   1.914  16.744  1.2074 -0.3182  1.7689
 5872TIP3    H239032   1.602   1.823  16.623 -1.1041  2.0340 -0.3687
 5873TIP3   OH239033   3.027   6.724  17.052 -0.3616 -0.0980  0.5479
 5873TIP3    H139034   3.104   6.675  17.078 -0.5304 -1.0459 -0.6391
 5873TIP3    H239035   2.957   6.659  17.046 -1.8597  0.9962  3.5901
 5874TIP3   OH239036   5.561   2.637  15.816  0.0122 -0.0176 -0.9833
 5874TIP3    H139037   5.623   2.569  15.789  0.2648  0.7611 -2.4563
 5874TIP3    H239038   5.616   2.706  15.853 -0.1606 -0.1693 -0.4331
 5875TIP3   OH239039   2.395   2.474  16.900 -0.3956 -0.0079 -0.2830
 5875TIP3    H139040   2.440   2.522  16.830 -1.5716  2.5364  0.5861
 5875TIP3    H239041   2.449   2.397  16.915  1.3440  0.7656 -2.1426
 5876TIP3   OH239042   1.217   6.294   3.906  0.7790  0.0099 -0.5675
 5876TIP3    H139043   1.183   6.382   3.888  2.6806  1.0349  0.3943
 5876TIP3    H239044   1.268   6.305   3.987  0.3550 -2.1976  0.0639
 5877TIP3   OH239045   4.812   3.331  12.689  0.2623  0.0031  0.0409
 5877TIP3    H139046   4.766   3.412  12.709 -0.3184 -0.2623 -0.1847
 5877TIP3    H239047   4.804   3.321  12.594  2.3128  0.8404 -0.2564
 5878TIP3   OH239048   5.193   1.517  11.266 -0.4401  0.6544 -0.3497
 5878TIP3    H139049   5.255   1.564  11.210 -0.0272  0.0036 -0.4482
 5878TIP3    H239050   5.123   1.490  11.207  1.0469 -1.9439 -1.0498
 5879TIP3   OH239051   2.257   0.403   2.905 -0.0820 -0.3745  0.1843
 5879TIP3    H139052   2.345   0.389   2.940 -0.4712 -1.4940  0.7634
 5879TIP3    H239053   2.238   0.322   2.857 -1.6003 -1.0372  1.8256
 5880TIP3   OH239054   0.430   1.854  11.463 -0.2900 -0.1721 -0.1157
 5880TIP3    H139055   0.450   1.913  11.391 -2.0278  0.5379 -0.0600
 5880TIP3    H239056   0.502   1.866  11.525 -0.1970  1.2933 -0.4798
 5881TIP3   OH239057   3.126   4.526  15.655 -0.2811  0.2136  0.3182
 5881TIP3    H139058   3.040   4.562  15.631 -0.0555  0.7027  0.2322
 5881TIP3    H239059   3.152   4.576  15.733  0.1155  0.3661  0.0926
 5882TIP3   OH239060   4.116   5.567  12.552  0.0496 -0.2019  0.2521
 5882TIP3    H139061   4.045   5.605  12.501  0.1334  0.4850  0.6424
 5882TIP3    H239062   4.086   5.478  12.573 -0.4728 -0.0888 -0.0170
 5883TIP3   OH239063   2.090   5.172   0.397 -0.2946 -0.0748 -0.3642
 5883TIP3    H139064   2.052   5.186   0.484 -0.4150  1.7717 -0.6865
 5883TIP3    H239065   2.139   5.252   0.379 -0.4384 -0.3427 -2.1006
 5884TIP3   OH239066   6.449   0.224  13.271  0.4927  1.0421 -0.7849
 5884TIP3    H139067   6.463   0.300  13.327 -1.4791  1.1967 -0.4564
 5884TIP3    H239068   6.522   0.165  13.292 -0.7079  0.5950  2.7831
 5885TIP3   OH239069   6.012   2.804  15.735 -0.4051  0.3419  0.3711
 5885TIP3    H139070   6.073   2.875  15.757  0.4134  0.1666 -1.1223
 5885TIP3    H239071   6.010   2.749  15.813 -0.0170  1.2999  1.0818
 5886TIP3   OH239072   1.891   5.657  14.711 -0.6039  0.3702  0.2251
 5886TIP3    H139073   1.833   5.581  14.698  0.0587 -0.1731  0.3776
 5886TIP3    H239074   1.929   5.673  14.624  0.7007 -0.6868  0.5601
 5887TIP3   OH239075   5.954   3.800   2.342  0.2478 -0.6503  0.2055
 5887TIP3    H139076   6.026   3.848   2.385  2.5487 -5.4174  2.4131
 5887TIP3    H239077   5.986   3.785   2.253  0.7978 -0.5143  0.3752
 5888TIP3   OH239078   4.517   5.280   1.330 -0.0083  0.0982  0.0540
 5888TIP3    H139079   4.440   5.228   1.308 -0.2142  0.4114  0.0276
 5888TIP3    H239080   4.591   5.221   1.316 -0.2033 -0.0235 -0.4823
 5889TIP3   OH239081   1.171   6.381  11.567 -0.4356  0.3167 -0.4430
 5889TIP3    H139082   1.202   6.357  11.480 -3.7954 -3.9044 -0.8094
 5889TIP3    H239083   1.204   6.312  11.625  0.9969  2.5560  1.6284
 5890TIP3   OH239084   1.496   5.109   0.639  0.8068  0.7455 -0.6618
 5890TIP3    H139085   1.417   5.160   0.618  1.5199  1.6824 -1.1558
 5890TIP3    H239086   1.484   5.083   0.730  0.0832  1.1776 -0.6216
 5891TIP3   OH239087   0.552   3.290  13.384 -0.3894 -0.3033  0.5895
 5891TIP3    H139088   0.614   3.353  13.420  1.7857 -0.0604 -3.0252
 5891TIP3    H239089   0.598   3.206  13.389 -0.0027 -0.2649 -1.3390
 5892TIP3   OH239090   1.451   6.288  16.782  0.0072  0.3247 -0.0362
 5892TIP3    H139091   1.436   6.195  16.797  0.0242  0.5528  1.5240
 5892TIP3    H239092   1.485   6.321  16.865  0.7359  1.5749 -0.7990
 5893TIP3   OH239093   4.409   6.412   0.648 -0.3080  0.4099 -0.1727
 5893TIP3    H139094   4.461   6.488   0.624  0.2698 -0.2971 -1.2420
 5893TIP3    H239095   4.332   6.448   0.692  1.0414  1.4850  1.4108
 5894TIP3   OH239096   4.062   5.565   3.063 -0.1473 -0.2693  0.4315
 5894TIP3    H139097   4.079   5.474   3.039 -0.6301 -0.1748 -0.2697
 5894TIP3    H239098   4.013   5.601   2.990 -2.0676 -0.1134  1.7298
 5895TIP3   OH239099   4.582   3.113   4.560 -0.2583  0.2847 -0.1723
 5895TIP3    H139100   4.584   3.161   4.643 -0.5886  1.2200 -0.7003
 5895TIP3    H239101   4.670   3.124   4.524 -0.3268  0.4781 -0.2820
 5896TIP3   OH239102   0.575   2.491   1.864  0.3509  0.4483  0.3829
 5896TIP3    H139103   0.583   2.586   1.865 -0.5822  0.5308  1.1184
 5896TIP3    H239104   0.566   2.466   1.956 -1.1532 -0.1762  0.0969
 5897TIP3   OH239105   5.261   4.428  16.268 -0.3203 -0.1296 -0.3787
 5897TIP3    H139106   5.201   4.464  16.333  0.0973  0.4865 -0.3215
 5897TIP3    H239107   5.256   4.490  16.194 -1.4928 -1.3119 -1.3305
 5898TIP3   OH239108   5.598   2.288  15.836 -0.0032  0.4171  0.2527
 5898TIP3    H139109   5.636   2.287  15.748 -0.6111  3.0342 -0.1283
 5898TIP3    H239110   5.659   2.341  15.888 -1.1725  1.4685  0.5951
 5899TIP3   OH239111   0.077   2.941  17.287 -0.1885  0.7233 -0.3456
 5899TIP3    H139112  -0.007   2.975  17.317 -0.1142  0.0183  0.7238
 5899TIP3    H239113   0.141   2.974  17.350  0.4901  1.9752 -1.6377
 5900TIP3   OH239114   1.477   1.777   5.780 -0.4430  0.0965 -0.3378
 5900TIP3    H139115   1.534   1.730   5.719  0.5498  0.8292 -0.0056
 5900TIP3    H239116   1.462   1.715   5.852  1.4431  0.4967  0.4454
 5901TIP3   OH239117   2.195   0.604   2.396  0.8391 -0.1261 -0.3564
 5901TIP3    H139118   2.239   0.534   2.348  0.0601 -2.9272  2.6544
 5901TIP3    H239119   2.266   0.649   2.443  1.0343 -1.4579  0.6816
 5902TIP3   OH239120   6.098   0.137  16.787  0.2283 -0.1883  0.0943
 5902TIP3    H139121   6.040   0.199  16.743  1.8060  0.5482 -1.0513
 5902TIP3    H239122   6.127   0.078  16.717 -1.8487 -2.8146  1.2857
 5903TIP3   OH239123   0.463   1.079  14.972  0.2829 -0.0086  0.1017
 5903TIP3    H139124   0.541   1.079  15.028  0.5619  1.7651 -0.2143
 5903TIP3    H239125   0.391   1.060  15.032  0.7151  0.6127  0.8509
 5904TIP3   OH239126   2.309   2.942  13.633  0.1411  0.5032  0.1510
 5904TIP3    H139127   2.371   2.869  13.640  1.6460  1.3177 -2.8650
 5904TIP3    H239128   2.364   3.020  13.625 -1.2758  1.4500 -0.9765
 5905TIP3   OH239129   2.253   5.763   4.063 -0.0771  0.2686  0.2499
 5905TIP3    H139130   2.208   5.833   4.016 -1.2212 -0.5563  0.0677
 5905TIP3    H239131   2.224   5.683   4.020 -0.0459 -0.4204  1.4660
 5906TIP3   OH239132   2.787   4.927  10.901  0.0973  0.0246  0.1382
 5906TIP3    H139133   2.813   5.000  10.844 -0.6161 -1.4819 -2.2757
 5906TIP3    H239134   2.702   4.953  10.936  1.2049  1.6229  1.8558
 5907TIP3   OH239135   0.709   1.511   6.408  0.5219  0.6693  0.1665
 5907TIP3    H139136   0.725   1.473   6.494  0.3280  0.1372 -0.0293
 5907TIP3    H239137   0.683   1.602   6.426 -1.2899  0.0759  0.7976
 5908TIP3   OH239138   0.380   0.984  16.055 -0.4574 -0.2511 -0.3198
 5908TIP3    H139139   0.288   0.969  16.034 -0.8554  1.7031 -0.1418
 5908TIP3    H239140   0.399   0.925  16.128 -1.2434 -1.4366 -1.0401
 5909TIP3   OH239141   4.107   4.025  15.194 -0.2267 -0.0704  0.5835
 5909TIP3    H139142   4.134   3.991  15.279 -1.3429  0.1798  1.0530
 5909TIP3    H239143   4.177   4.086  15.169  0.2703 -0.4007  1.1655
 5910TIP3   OH239144   0.233   4.003  12.031 -0.4791  0.3076  0.0276
 5910TIP3    H139145   0.311   3.953  12.009 -1.0521 -0.7953  0.4384
 5910TIP3    H239146   0.241   4.084  11.982  1.5081  0.7300  0.9599
 5911TIP3   OH239147   2.531   6.307  16.535 -0.1219  0.5051  0.2665
 5911TIP3    H139148   2.558   6.384  16.584  1.4533 -0.6836  1.3354
 5911TIP3    H239149   2.562   6.323  16.446 -0.9427  1.6386  0.1642
 5912TIP3   OH239150   1.251   2.592  14.670 -0.1226 -0.1942  0.0479
 5912TIP3    H139151   1.307   2.516  14.653  0.2462  0.0433  0.2036
 5912TIP3    H239152   1.262   2.609  14.764  1.3647  1.2929 -0.3659
 5913TIP3   OH239153   5.653   2.940  12.099  0.4355 -0.3456 -0.3608
 5913TIP3    H139154   5.583   2.878  12.119  1.6771 -1.2580  1.5108
 5913TIP3    H239155   5.722   2.888  12.060  0.8427  0.1610 -0.3358
 5914TIP3   OH239156   5.610   2.842  11.607 -0.0463 -0.0108 -0.5571
 5914TIP3    H139157   5.561   2.922  11.588  1.5717  1.4810  1.1177
 5914TIP3    H239158   5.565   2.774  11.557 -2.2502  1.6888 -1.0566
 5915TIP3   OH239159   4.529   5.549  11.922 -0.2886 -0.2076 -0.2106
 5915TIP3    H139160   4.486   5.537  12.006  0.1805  1.5096  0.3061
 5915TIP3    H239161   4.557   5.640  11.921  3.2614 -1.1478 -0.5401
 5916TIP3   OH239162   3.099   4.950   5.532 -0.3897  0.3279  0.3602
 5916TIP3    H139163   3.133   5.039   5.529 -1.9885  0.9473 -0.5617
 5916TIP3    H239164   3.012   4.956   5.494 -0.9158 -1.4683  1.1631
 5917TIP3   OH239165   1.615   3.763   4.005 -0.4319 -0.6800  0.5409
 5917TIP3    H139166   1.599   3.710   3.927  0.1552 -2.5975  1.6452
 5917TIP3    H239167   1.704   3.740   4.032 -0.7536 -0.3723  1.9685
 5918TIP3   OH239168   0.948   1.599  14.980  0.5890  0.1203  0.0891
 5918TIP3    H139169   0.958   1.654  15.057  0.8464  0.0427  0.1127
 5918TIP3    H239170   1.035   1.564  14.963  0.5179  0.0689 -0.1880
 5919TIP3   OH239171   0.479   2.185   2.957  0.1401  0.3866  0.4543
 5919TIP3    H139172   0.489   2.126   2.882  1.4362  1.2580 -0.1139
 5919TIP3    H239173   0.433   2.134   3.023 -0.7903 -0.4986 -0.8412
 5920TIP3   OH239174   1.906   5.931   3.445  0.3173 -0.2261  0.1313
 5920TIP3    H139175   1.928   5.992   3.375 -2.7788  1.0245  0.0981
 5920TIP3    H239176   1.944   5.971   3.524 -0.5241  1.0797 -0.0977
 5921TIP3   OH239177   2.568   5.762   2.081 -0.3995  0.2571  0.4950
 5921TIP3    H139178   2.543   5.786   2.170  1.0308  0.0471  0.9710
 5921TIP3    H239179   2.540   5.671   2.071  1.3953 -0.4566  1.5331
 5922TIP3   OH239180   1.512   3.020  13.576 -0.6300  0.1007 -0.4318
 5922TIP3    H139181   1.518   3.101  13.525 -1.9510  1.0289  0.8019
 5922TIP3    H239182   1.596   3.013  13.620  0.4280 -0.5636 -2.4405
 5923TIP3   OH239183   1.295   0.343  11.569 -0.1649  0.2600 -0.1307
 5923TIP3    H139184   1.339   0.306  11.645  0.3610  0.6636 -0.2352
 5923TIP3    H239185   1.365   0.359  11.506 -0.6987 -1.0342 -1.1215
 5924TIP3   OH239186   0.831   3.557   3.729  0.2626 -0.1995 -0.0783
 5924TIP3    H139187   0.865   3.646   3.727  0.8620 -0.4383 -0.5024
 5924TIP3    H239188   0.781   3.553   3.811  0.9931  0.2470  0.3982
 5925TIP3   OH239189   5.288   1.930   0.235  0.2188  0.2071  0.0369
 5925TIP3    H139190   5.235   1.982   0.175 -0.8142 -0.7189  0.1055
 5925TIP3    H239191   5.297   1.845   0.192  0.4238 -0.1022  0.6787
 5926TIP3   OH239192   4.217   4.484  15.078 -0.1884 -0.1649  0.4801
 5926TIP3    H139193   4.150   4.544  15.110 -0.5300  0.3602 -1.1250
 5926TIP3    H239194   4.235   4.427  15.152 -1.0275  0.8980  1.5398
 5927TIP3   OH239195   3.051   0.366   1.202  0.0219  0.2211 -0.5578
 5927TIP3    H139196   3.121   0.411   1.248  0.4366 -0.8811 -0.0757
 5927TIP3    H239197   2.971   0.388   1.251  0.2294  0.3673 -0.2852
 5928TIP3   OH239198   5.405   5.612  13.659  0.2132 -0.3679  0.0564
 5928TIP3    H139199   5.366   5.597  13.572  1.4492 -1.5624 -0.3325
 5928TIP3    H239200   5.440   5.526  13.684 -0.2782 -0.0833  1.8450
 5929TIP3   OH239201   6.710   1.957   0.455 -0.0617  0.4395  0.5537
 5929TIP3    H139202   6.681   1.936   0.543  0.6661 -0.3753  0.6140
 5929TIP3    H239203   6.636   2.002   0.415 -1.0345 -0.6800  1.0337
 5930TIP3   OH239204   4.712   1.265  12.504 -0.1595  0.8347 -0.4580
 5930TIP3    H139205   4.640   1.323  12.478 -0.4334  0.1246 -1.3442
 5930TIP3    H239206   4.788   1.296  12.455  0.0896  1.4103  0.2673
 5931TIP3   OH239207   0.863   5.477   2.164 -0.2988  0.0702  0.2234
 5931TIP3    H139208   0.891   5.510   2.079  0.0698  0.8847  0.6606
 5931TIP3    H239209   0.942   5.442   2.204 -0.3059  0.4746  0.5921
 5932TIP3   OH239210   5.346   0.860  14.875 -0.0813 -0.2928 -0.7242
 5932TIP3    H139211   5.399   0.939  14.885  1.5173 -1.5248  1.2442
 5932TIP3    H239212   5.381   0.817  14.797  0.0719  0.1769 -0.9159
 5933TIP3   OH239213   0.845   4.029  15.810 -0.1133 -0.4230  0.0646
 5933TIP3    H139214   0.754   4.013  15.835 -0.0636 -0.3460  0.2946
 5933TIP3    H239215   0.871   4.107  15.860  0.1953 -0.6666  0.2890
 5934TIP3   OH239216   4.496   5.092   0.009  0.3124  0.1164  0.2432
 5934TIP3    H139217   4.461   5.172  -0.031  0.6386  0.2534  0.2297
 5934TIP3    H239218   4.443   5.081   0.088  0.5605  0.6001  0.4843
 5935TIP3   OH239219   2.566   2.805  14.456  0.3899 -0.2952 -0.3206
 5935TIP3    H139220   2.647   2.854  14.471  0.1489  0.5106 -1.5177
 5935TIP3    H239221   2.565   2.738  14.525  2.0962 -0.3585 -0.3211
 5936TIP3   OH239222   6.197   6.229  12.458  0.0497  0.3202 -0.7016
 5936TIP3    H139223   6.102   6.236  12.460  0.0229  0.5607 -1.9888
 5936TIP3    H239224   6.222   6.205  12.547 -0.9857  2.9897  0.3794
 5937TIP3   OH239225   1.684   5.412   3.517 -0.6495 -0.0550  0.2262
 5937TIP3    H139226   1.708   5.495   3.558  1.3875 -0.2065 -0.5661
 5937TIP3    H239227   1.608   5.434   3.463 -0.5793  1.1295  0.5695
 5938TIP3   OH239228   1.906   1.485   1.665 -0.1342  0.2886  0.3932
 5938TIP3    H139229   1.846   1.544   1.619  0.7171  0.3471 -0.6811
 5938TIP3    H239230   1.976   1.543   1.697 -1.1806  0.4033  2.6554
 5939TIP3   OH239231   6.127   5.100  15.862  0.3566  0.0440  0.6235
 5939TIP3    H139232   6.216   5.092  15.894  0.4505  0.5477  0.4999
 5939TIP3    H239233   6.122   5.189  15.827  0.6459 -0.8232 -1.8747
 5940TIP3   OH239234   2.097   6.368  15.828  0.4542  0.1589 -0.2984
 5940TIP3    H139235   2.065   6.373  15.738  3.4758  2.1877 -1.3977
 5940TIP3    H239236   2.059   6.444  15.872 -0.0767 -0.1777 -0.1615
 5941TIP3   OH239237   6.176   5.442   3.570 -0.4784  0.2170  0.2650
 5941TIP3    H139238   6.155   5.520   3.621 -1.4086 -0.6067  1.1956
 5941TIP3    H239239   6.124   5.372   3.610  0.8439 -1.0360 -0.0950
 5942TIP3   OH239240   2.832   2.818  16.557  0.1533 -0.5075 -0.0995
 5942TIP3    H139241   2.739   2.834  16.569  0.0775 -1.7362  1.0960
 5942TIP3    H239242   2.848   2.734  16.600  1.9305 -0.0103  0.2812
 5943TIP3   OH239243   5.132   2.380  14.827 -0.6670 -1.0828 -0.4254
 5943TIP3    H139244   5.121   2.405  14.918  1.3026 -0.3730 -0.3402
 5943TIP3    H239245   5.125   2.284  14.827 -0.5375 -1.0946  0.4780
 5944TIP3   OH239246   0.986   1.113  14.783  0.2952 -0.0269 -0.1393
 5944TIP3    H139247   0.982   1.207  14.764  2.2362 -0.0457 -0.9213
 5944TIP3    H239248   1.004   1.108  14.877  0.8331  0.4257 -0.2108
 5945TIP3   OH239249   2.648   1.465   1.205  0.1545 -0.1936  0.0637
 5945TIP3    H139250   2.613   1.450   1.117  0.2592 -0.5718  0.0850
 5945TIP3    H239251   2.735   1.502   1.189  0.7822 -1.6393 -0.0136
 5946TIP3   OH239252   0.748   1.477  16.918  0.3261 -0.4448  0.4030
 5946TIP3    H139253   0.747   1.532  16.996 -1.4429 -0.2164  0.2534
 5946TIP3    H239254   0.733   1.388  16.951 -0.3962 -0.3515  0.3551
 5947TIP3   OH239255   6.368   5.015  13.486 -0.1376  0.3004  0.2022
 5947TIP3    H139256   6.291   4.973  13.447 -0.3310  0.5139  0.3533
 5947TIP3    H239257   6.441   4.958  13.462 -0.3422  0.1004  0.0523
 5948TIP3   OH239258   6.292   5.774   2.397 -0.3776 -0.2696 -0.1936
 5948TIP3    H139259   6.237   5.697   2.413 -0.7304 -0.3187 -1.4930
 5948TIP3    H239260   6.267   5.802   2.309  1.6677 -0.2563 -0.8005
 5949TIP3   OH239261   5.026   6.275  15.712  0.3285 -0.0376  0.0439
 5949TIP3    H139262   5.096   6.333  15.742  1.1861  0.0238 -1.8886
 5949TIP3    H239263   5.072   6.201  15.673 -0.6491  0.1077 -1.4496
 5950TIP3   OH239264   3.716   4.337   0.036 -0.0602  0.1554  0.1643
 5950TIP3    H139265   3.651   4.316   0.103 -0.9098  0.8284 -0.4344
 5950TIP3    H239266   3.771   4.259   0.030 -0.9911 -0.5323  0.4741
 5951TIP3   OH239267   4.808   1.076   4.808 -0.2199 -0.2233  0.0661
 5951TIP3    H139268   4.887   1.105   4.852 -0.2477 -0.5711  0.3468
 5951TIP3    H239269   4.740   1.138   4.836  0.0385  0.3183 -0.4955
 5952TIP3   OH239270   4.454   0.003   0.987 -0.0647  0.1875 -0.9451
 5952TIP3    H139271   4.362   0.027   0.990 -0.0568  0.1072  0.1451
 5952TIP3    H239272   4.497   0.078   0.945 -0.2378  1.5528  1.1638
 5953TIP3   OH239273   0.347   5.796   3.529 -0.3761 -0.0207 -0.3340
 5953TIP3    H139274   0.389   5.870   3.572  0.1978 -0.8010  0.4893
 5953TIP3    H239275   0.266   5.832   3.492 -0.6475  0.7788  0.9705
 5954TIP3   OH239276   2.452   1.811   4.470  0.6745  0.1406 -0.5754
 5954TIP3    H139277   2.449   1.883   4.407  0.3780  0.7083  0.0721
 5954TIP3    H239278   2.429   1.734   4.419  0.6373  0.5542 -1.2056
 5955TIP3   OH239279   3.944   0.595  15.763 -0.1801 -0.0724 -0.1564
 5955TIP3    H139280   3.929   0.564  15.852  0.8820 -2.1743 -0.6501
 5955TIP3    H239281   4.033   0.567  15.742 -0.9990 -1.2127 -2.4870
 5956TIP3   OH239282   1.970   5.356  15.487 -0.6510 -0.0983  0.3690
 5956TIP3    H139283   2.035   5.360  15.557  0.5308 -0.4125 -0.6708
 5956TIP3    H239284   1.983   5.269  15.447 -1.8818 -0.2634  0.2906
 5957TIP3   OH239285   4.986   5.940   1.426 -0.1139 -0.3641  0.2622
 5957TIP3    H139286   4.899   5.976   1.444 -0.7450 -0.9109 -1.4394
 5957TIP3    H239287   5.025   5.925   1.512 -0.6528  2.3121  1.0589
 5958TIP3   OH239288   3.296   6.346   2.248 -0.1684  0.3020 -0.7316
 5958TIP3    H139289   3.295   6.433   2.207 -0.3366  0.2629 -0.8114
 5958TIP3    H239290   3.325   6.362   2.337 -0.2575  0.4486 -0.7283
 5959TIP3   OH239291   5.528   2.486   2.309  0.1058 -0.6829 -0.5180
 5959TIP3    H139292   5.560   2.404   2.346 -0.0534 -1.1196 -1.3225
 5959TIP3    H239293   5.465   2.518   2.374 -0.0081 -1.3213 -0.3013
 5960TIP3   OH239294   1.105   6.034  10.832 -0.2122 -0.4132 -0.1915
 5960TIP3    H139295   1.176   5.996  10.780 -1.2387  0.1022 -2.0779
 5960TIP3    H239296   1.025   6.004  10.788 -1.0855  2.4463 -0.7351
 5961TIP3   OH239297   5.910   0.196  11.300  0.7448  0.8098  0.0025
 5961TIP3    H139298   5.898   0.248  11.379 -0.0486  0.3691  0.1851
 5961TIP3    H239299   6.003   0.170  11.302  0.5809  0.2305  1.1577
 5962TIP3   OH239300   0.280   4.456   1.029 -0.8031  0.4610  0.6566
 5962TIP3    H139301   0.215   4.496   1.087 -0.0707  2.7720 -0.0043
 5962TIP3    H239302   0.364   4.468   1.075 -0.6240 -0.9034  0.7117
 5963TIP3   OH239303   1.544   4.974   4.208  0.0646  0.0080 -0.6504
 5963TIP3    H139304   1.493   5.004   4.133  0.9073  0.1337 -1.1858
 5963TIP3    H239305   1.634   4.972   4.176  0.7051  1.8376  0.8970
 5964TIP3   OH239306   1.328   3.068  15.140 -1.1305 -0.1149  0.3490
 5964TIP3    H139307   1.334   2.977  15.168 -1.7399  0.0292  0.9465
 5964TIP3    H239308   1.315   3.063  15.045  0.9789 -0.6008  0.0213
 5965TIP3   OH239309   5.002   1.384  14.792  0.3911 -0.6655  0.0116
 5965TIP3    H139310   4.955   1.388  14.875  1.3776  0.8232  0.5378
 5965TIP3    H239311   5.091   1.408  14.814  0.3768  1.1444 -1.6864
 5966TIP3   OH239312   2.654   6.564  13.844  0.5034 -0.5430  0.1345
 5966TIP3    H139313   2.624   6.477  13.868  0.9494 -0.3268  1.5089
 5966TIP3    H239314   2.654   6.614  13.925  0.0817  0.8093 -0.6499
 5967TIP3   OH239315   0.118   5.029  14.263  0.4210 -0.0371 -0.6332
 5967TIP3    H139316   0.113   5.105  14.205  0.9937 -0.7136 -1.6031
 5967TIP3    H239317   0.136   4.955  14.204  0.2507 -0.8666  0.3268
 5968TIP3   OH239318   5.981   2.700  11.220  0.2364  0.4508  0.5660
 5968TIP3    H139319   5.964   2.762  11.291 -2.5845  0.4928 -0.0138
 5968TIP3    H239320   5.973   2.614  11.261  0.2870  0.4791  0.6342
 5969TIP3   OH239321   3.831   5.129  14.426 -0.1465 -0.3275 -0.2310
 5969TIP3    H139322   3.772   5.055  14.436 -1.1417  0.4306 -0.2999
 5969TIP3    H239323   3.805   5.170  14.343  2.0596 -1.3358 -1.5223
 5970TIP3   OH239324   3.639   3.568  15.978 -0.4657 -0.0274 -0.1476
 5970TIP3    H139325   3.655   3.621  15.900  1.4465  1.3748  1.1288
 5970TIP3    H239326   3.574   3.617  16.028 -0.1638  0.1135  0.1070
 5971TIP3   OH239327   4.365   6.517   1.637  0.2497 -0.1023  0.1680
 5971TIP3    H139328   4.284   6.497   1.684 -0.2910 -1.6904 -1.3149
 5971TIP3    H239329   4.432   6.522   1.705 -0.9559  0.4567  1.3539
 5972TIP3   OH239330   5.362   4.052   5.578 -0.2721 -0.3022  0.0216
 5972TIP3    H139331   5.395   4.141   5.593  2.2918 -0.6490 -2.6658
 5972TIP3    H239332   5.340   4.019   5.666  0.8551  2.1812  1.3294
 5973TIP3   OH239333   5.240   3.973   2.329  0.0440 -0.2420  0.5166
 5973TIP3    H139334   5.182   3.897   2.325 -0.0916 -0.0847 -0.7803
 5973TIP3    H239335   5.203   4.035   2.267  0.9578  0.3218  0.5219
 5974TIP3   OH239336   0.440   0.376   4.607 -0.0694 -0.5934 -0.4982
 5974TIP3    H139337   0.476   0.450   4.558  2.8569 -0.0467  2.1260
 5974TIP3    H239338   0.443   0.303   4.545  0.7600  0.6260 -1.9684
 5975TIP3   OH239339   2.579   2.941  15.122  0.2985  0.0917 -0.0563
 5975TIP3    H139340   2.576   3.024  15.075  1.4950 -0.4392 -1.1210
 5975TIP3    H239341   2.498   2.939  15.172 -0.2102  1.4512 -0.7753
 5976TIP3   OH239342   1.779   4.980   2.124  0.3412  0.2521 -0.0912
 5976TIP3    H139343   1.727   4.915   2.076 -1.8475  1.5164  0.4375
 5976TIP3    H239344   1.869   4.966   2.094 -0.6537 -0.2276 -3.1876
 5977TIP3   OH239345   3.572   4.098  12.035 -0.0414 -0.6838 -0.0283
 5977TIP3    H139346   3.539   4.008  12.040 -0.3668 -0.7416 -2.1277
 5977TIP3    H239347   3.667   4.088  12.026  0.1048 -0.7198  1.3723
 5978TIP3   OH239348   4.802   1.532  17.312  0.2605 -0.3502  0.0373
 5978TIP3    H139349   4.708   1.533  17.328  0.7225 -0.5950  3.6170
 5978TIP3    H239350   4.823   1.621  17.285 -0.6371  0.6722  2.4504
 5979TIP3   OH239351   0.259   5.051  13.052 -0.1681 -0.2848 -0.6068
 5979TIP3    H139352   0.214   4.967  13.055 -0.9278  0.1153 -0.5282
 5979TIP3    H239353   0.196   5.113  13.087  0.9889  0.0710  0.9537
 5980TIP3   OH239354   4.308   4.136   1.717 -0.5586 -0.4176 -0.6117
 5980TIP3    H139355   4.219   4.101   1.717  0.4481 -3.2866  0.1954
 5980TIP3    H239356   4.341   4.118   1.805  0.8711  0.4022 -0.9543
 5981TIP3   OH239357   3.956   0.313   0.178 -0.1360  0.7909  0.2618
 5981TIP3    H139358   3.868   0.349   0.164 -0.1917  0.2319 -0.9281
 5981TIP3    H239359   3.959   0.236   0.122  1.3726  1.2194 -0.2767
 5982TIP3   OH239360   6.328   4.586  14.186 -0.7037 -0.0093  0.1742
 5982TIP3    H139361   6.329   4.555  14.276  1.0984 -0.4378  0.0388
 5982TIP3    H239362   6.328   4.506  14.133 -0.0171  0.2255 -0.1908
 5983TIP3   OH239363   1.246   4.399  11.961 -0.4022  0.0078  0.2756
 5983TIP3    H139364   1.309   4.466  11.991  1.1625 -2.1812  2.2623
 5983TIP3    H239365   1.247   4.406  11.866  1.5670  1.2273  0.3316
 5984TIP3   OH239366   1.828   1.858   4.444  1.1465  0.2122 -0.3474
 5984TIP3    H139367   1.734   1.853   4.459  1.2668 -0.9328  0.1067
 5984TIP3    H239368   1.843   1.949   4.419  0.1272  0.7924  0.9948
 5985TIP3   OH239369   0.960   2.723  13.573  0.4904  0.3990 -0.0229
 5985TIP3    H139370   0.996   2.717  13.662 -1.7464  1.5098  1.0666
 5985TIP3    H239371   0.883   2.666  13.574  0.1836  0.7648 -1.1207
 5986TIP3   OH239372   3.833   6.336   5.529  0.3232 -0.5003  0.1087
 5986TIP3    H139373   3.803   6.391   5.601 -4.5523 -0.6045 -1.5041
 5986TIP3    H239374   3.842   6.249   5.567 -0.8591 -0.2869  0.9354
 5987TIP3   OH239375   6.215   1.182   2.591 -0.4663 -0.3129  0.3372
 5987TIP3    H139376   6.198   1.242   2.519  0.9613 -0.4224 -0.1273
 5987TIP3    H239377   6.195   1.095   2.555  0.0252 -0.3451  0.1238
 5988TIP3   OH239378   6.096   4.100   4.609 -0.4742  0.0520 -0.0085
 5988TIP3    H139379   6.072   4.188   4.637 -1.9949  0.1038 -1.3509
 5988TIP3    H239380   6.092   4.048   4.689 -1.6106  0.7944  0.4398
 5989TIP3   OH239381   6.617   5.917  13.482 -0.6508  0.5847 -0.1142
 5989TIP3    H139382   6.657   5.830  13.488 -0.5511  0.6373  4.9859
 5989TIP3    H239383   6.689   5.976  13.460 -0.3146 -0.3917 -1.7169
 5990TIP3   OH239384   1.019   0.903  14.347  0.1344 -0.0597 -0.6280
 5990TIP3    H139385   0.992   0.811  14.345  0.1966 -0.1610  1.3123
 5990TIP3    H239386   0.969   0.944  14.277  0.6450 -1.6868 -2.0151
 5991TIP3   OH239387   4.861   3.743   4.524  0.1279 -0.1718 -0.0082
 5991TIP3    H139388   4.765   3.737   4.520  0.0173 -1.6509  2.6477
 5991TIP3    H239389   4.891   3.693   4.448 -1.2548 -3.2306  1.2802
 5992TIP3   OH239390   1.825   0.584   2.316 -0.4629  0.1468 -0.1762
 5992TIP3    H139391   1.766   0.560   2.244  0.8146 -0.7696 -0.9514
 5992TIP3    H239392   1.883   0.651   2.278 -0.8460  0.8978  0.5224
 5993TIP3   OH239393   1.678   5.697   0.217 -0.2779  0.3558 -0.1157
 5993TIP3    H139394   1.756   5.720   0.267 -0.7494  1.5144  0.1204
 5993TIP3    H239395   1.699   5.722   0.127  0.2116 -0.8365 -0.3465
 5994TIP3   OH239396   1.330   4.204   1.341  0.4470 -0.0666 -0.4875
 5994TIP3    H139397   1.380   4.135   1.298  0.6568 -0.4056  0.2964
 5994TIP3    H239398   1.365   4.285   1.303  0.9784 -0.3366 -0.5856
 5995TIP3   OH239399   1.237   5.349  12.919 -0.4025  0.0264 -0.5071
 5995TIP3    H139400   1.207   5.319  13.005 -0.7803 -1.0810 -1.0011
 5995TIP3    H239401   1.215   5.442  12.917 -0.5280  0.0298  0.5310
 5996TIP3   OH239402   5.176   3.229   5.968 -0.4331  0.4901 -0.4203
 5996TIP3    H139403   5.267   3.232   5.998 -1.0356 -1.2706  1.9240
 5996TIP3    H239404   5.142   3.317   5.985  0.1006  0.3782  1.4577
 5997TIP3   OH239405   5.586   0.884  12.831  0.1255 -0.1582  0.7823
 5997TIP3    H139406   5.655   0.824  12.801 -2.0754 -1.8285 -1.3679
 5997TIP3    H239407   5.523   0.828  12.875  0.3226  1.4259  3.2462
 5998TIP3   OH239408   3.890   5.273  15.185 -0.5083  0.2765  0.2998
 5998TIP3    H139409   3.982   5.291  15.202  0.1178 -2.7082  0.4570
 5998TIP3    H239410   3.843   5.345  15.228  1.7210  2.9114 -1.3440
 5999TIP3   OH239411   1.981   2.452   3.875 -0.3245 -0.5936 -0.3057
 5999TIP3    H139412   2.006   2.443   3.783  0.9562  2.2531 -0.3399
 5999TIP3    H239413   2.062   2.435   3.923 -0.9043 -1.6996  0.3345
 6000TIP3   OH239414   0.585   5.657   3.485  0.7269 -0.1582  1.0004
 6000TIP3    H139415   0.566   5.563   3.488  0.4693 -0.0837  2.0055
 6000TIP3    H239416   0.499   5.699   3.488  0.7721  0.1114 -0.6554
 6001TIP3   OH239417   3.777   0.788  12.620 -0.0629  0.2490  0.3737
 6001TIP3    H139418   3.717   0.744  12.682 -1.5756  0.9505 -0.5375
 6001TIP3    H239419   3.863   0.780  12.661 -0.4324 -2.4900  0.8455
 6002TIP3   OH239420   0.087   5.184  13.957 -0.3321 -0.2053  0.0546
 6002TIP3    H139421   0.002   5.142  13.947 -1.0036  1.3728 -1.3386
 6002TIP3    H239422   0.150   5.121  13.920 -0.9212 -1.2269  0.7650
 6003TIP3   OH239423   3.675   4.336   2.810  0.0047 -0.1698  0.3377
 6003TIP3    H139424   3.748   4.351   2.871  0.1533 -2.9562  0.9653
 6003TIP3    H239425   3.597   4.344   2.863  0.1072 -1.9193  0.8062
 6004TIP3   OH239426   4.897   4.083  15.315 -0.1220  0.1362  0.3431
 6004TIP3    H139427   4.859   4.117  15.234  0.5511  1.4300  0.5483
 6004TIP3    H239428   4.890   4.155  15.377 -0.3957 -0.7556  1.3768
 6005TIP3   OH239429   1.368   2.659  13.822 -0.0750 -0.2793 -0.1630
 6005TIP3    H139430   1.304   2.602  13.865  0.2324  0.1574  0.8967
 6005TIP3    H239431   1.368   2.739  13.874 -0.5644  0.7634 -1.6735
 6006TIP3   OH239432   0.366   6.706   1.812  0.2849  0.5798  0.1937
 6006TIP3    H139433   0.333   6.676   1.897 -0.6460  0.1769 -0.2906
 6006TIP3    H239434   0.427   6.638   1.785 -1.0664 -0.4243 -0.4404
 6007TIP3   OH239435   2.263   2.400  12.793  0.7819  0.0379  0.0900
 6007TIP3    H139436   2.201   2.332  12.822  1.6365 -0.7737  0.0502
 6007TIP3    H239437   2.348   2.357  12.795  1.2854  0.9922 -0.3610
 6008TIP3   OH239438   1.605   2.172   4.354  0.0351  0.0685 -0.0383
 6008TIP3    H139439   1.676   2.199   4.413 -1.2048 -0.3115  1.7166
 6008TIP3    H239440   1.610   2.234   4.281  2.3447 -0.1474 -0.1372
 6009TIP3   OH239441   5.051   2.452   1.364  0.5530  0.6487 -0.5909
 6009TIP3    H139442   5.004   2.407   1.294 -0.6179  0.3619  0.3399
 6009TIP3    H239443   5.080   2.534   1.324 -2.1484  1.5912 -0.8432
 6010TIP3   OH239444   6.217   2.417   5.105  0.1049 -0.1663 -0.1360
 6010TIP3    H139445   6.166   2.367   5.169  0.0623 -0.7131 -0.5917
 6010TIP3    H239446   6.306   2.417   5.139 -0.3487  1.6500  1.1933
 6011TIP3   OH239447   4.256   2.082  17.298 -0.4658  0.0845 -0.4713
 6011TIP3    H139448   4.167   2.104  17.270 -0.4940 -0.2016 -0.6048
 6011TIP3    H239449   4.303   2.165  17.292 -1.3014  0.8386  1.9500
 6012TIP3   OH239450   1.979   4.246   2.734 -0.3109  0.4055  0.0799
 6012TIP3    H139451   2.051   4.189   2.709  0.3206  1.0611  0.3724
 6012TIP3    H239452   1.933   4.265   2.652  0.0129  0.2092 -0.1477
 6013TIP3   OH239453   3.816   0.410   5.884 -0.4180  0.7599 -0.1918
 6013TIP3    H139454   3.812   0.454   5.969  0.2924 -0.9439  0.7652
 6013TIP3    H239455   3.885   0.456   5.836  0.8057  0.2700  1.0487
 6014TIP3   OH239456   4.851   3.280  11.659 -0.2635 -0.5950  0.2531
 6014TIP3    H139457   4.846   3.328  11.741 -0.4241 -1.5058  0.7948
 6014TIP3    H239458   4.881   3.192  11.684 -1.2940 -1.1960 -0.5128
 6015TIP3   OH239459   6.085   1.523   5.214  0.2960  0.3426 -0.0707
 6015TIP3    H139460   6.090   1.428   5.222  2.3188  0.4756  0.9205
 6015TIP3    H239461   6.063   1.554   5.302  1.6649  0.8493  0.1271
 6016TIP3   OH239462   6.636   5.396   1.777  0.4956  0.0792 -0.5577
 6016TIP3    H139463   6.548   5.380   1.744  0.8234  1.1773 -2.0886
 6016TIP3    H239464   6.623   5.452   1.854 -0.1424  0.7021 -1.1020
 6017TIP3   OH239465   2.771   3.696   4.857 -0.2945 -0.6106 -0.2231
 6017TIP3    H139466   2.819   3.685   4.776  0.8594  0.6881  0.2605
 6017TIP3    H239467   2.728   3.781   4.849 -0.1503 -0.4583  0.5270
 6018TIP3   OH239468   2.985   0.820  15.157 -0.6266  0.1554  0.2598
 6018TIP3    H139469   3.006   0.846  15.068 -1.1212  0.8808  0.3495
 6018TIP3    H239470   3.013   0.893  15.211 -0.9496  0.0033  0.6364
 6019TIP3   OH239471   1.576   4.539   4.453 -0.2046 -0.0431  0.1675
 6019TIP3    H139472   1.519   4.585   4.392 -0.5342  0.1301  0.5992
 6019TIP3    H239473   1.521   4.521   4.529 -0.0160 -0.9383  0.1074
 6020TIP3   OH239474   2.286   5.559  17.304  0.3478 -0.1445 -0.3165
 6020TIP3    H139475   2.215   5.495  17.294 -0.1940  0.6440 -1.7017
 6020TIP3    H239476   2.241   5.640  17.329  0.7997  0.2627 -0.8198
 6021TIP3   OH239477   3.800   3.501  12.130  0.1899 -0.3222  0.0969
 6021TIP3    H139478   3.759   3.587  12.127  0.7728  0.0046  1.1962
 6021TIP3    H239479   3.843   3.492  12.045  0.2661  0.5374  0.0399
 6022TIP3   OH239480   3.399   2.885  11.939  0.6306 -0.3613 -0.3786
 6022TIP3    H139481   3.351   2.942  11.999  1.1823  0.5863 -0.8245
 6022TIP3    H239482   3.466   2.941  11.900  0.4586 -1.0308 -1.6864
 6023TIP3   OH239483   2.321   5.950   2.235  0.3780 -0.1722  0.3935
 6023TIP3    H139484   2.411   5.931   2.261  0.5315 -1.8063 -1.1242
 6023TIP3    H239485   2.322   6.042   2.207  1.6577 -0.2945  0.0178
 6024TIP3   OH239486   4.312   6.325  12.081  0.4240 -0.8222 -0.0241
 6024TIP3    H139487   4.298   6.409  12.037  1.9165 -0.8043 -0.5053
 6024TIP3    H239488   4.238   6.317  12.141  0.1123  0.6996 -0.1652
 6025TIP3   OH239489   0.098   0.225   4.735 -0.0720 -0.4208  0.1644
 6025TIP3    H139490   0.026   0.163   4.746 -1.2784  0.8097 -0.5284
 6025TIP3    H239491   0.081   0.293   4.800  0.5023 -0.1473  0.0353
 6026TIP3   OH239492   1.918   5.290  14.057  0.0143  0.0276 -0.1326
 6026TIP3    H139493   1.899   5.197  14.070 -0.3523  0.1034 -0.1113
 6026TIP3    H239494   2.013   5.295  14.052  0.1423 -0.1423  1.5494
 6027TIP3   OH239495   0.750   1.271   4.961  0.4414  0.3899 -0.0724
 6027TIP3    H139496   0.765   1.177   4.965 -0.8038  0.2090  3.3955
 6027TIP3    H239497   0.666   1.281   4.916  0.2562 -0.2064  0.1401
 6028TIP3   OH239498   5.340   3.057   2.129 -0.0233  0.1152  0.0815
 6028TIP3    H139499   5.407   3.117   2.161 -2.3253  2.2171  1.4237
 6028TIP3    H239500   5.292   3.109   2.063 -1.5515 -0.5218  0.6496
 6029TIP3   OH239501   2.592   3.610  10.407  0.1964 -1.0301 -0.2236
 6029TIP3    H139502   2.587   3.704  10.388  0.3321 -0.7713  0.9745
 6029TIP3    H239503   2.531   3.570  10.344 -0.1148 -0.1150 -0.5218
 6030TIP3   OH239504   1.538   3.635   3.497 -0.7981 -0.5162 -0.0862
 6030TIP3    H139505   1.584   3.718   3.506 -0.5096 -0.6715 -0.1219
 6030TIP3    H239506   1.446   3.656   3.516 -0.4962 -0.4997  1.4990
 6031TIP3   OH239507   4.675   4.500   0.439 -0.1937 -0.2249 -0.4964
 6031TIP3    H139508   4.740   4.465   0.378 -1.2134 -1.1802 -1.0590
 6031TIP3    H239509   4.671   4.594   0.419  3.4543  0.6419  1.8332
 6032TIP3   OH239510   0.967   5.640   4.158 -0.0320  0.5213  0.2958
 6032TIP3    H139511   0.875   5.665   4.152 -0.2259 -0.4999 -3.7212
 6032TIP3    H239512   1.014   5.710   4.112  0.9119 -0.1689  0.1824
 6033TIP3   OH239513   1.534   3.274   1.695 -0.3898 -0.3611 -0.6425
 6033TIP3    H139514   1.480   3.277   1.774  1.0017 -0.7597  0.3857
 6033TIP3    H239515   1.488   3.215   1.636 -1.4431 -0.0886 -0.1127
 6034TIP3   OH239516   1.640   1.787   0.761  0.0663 -0.0545 -0.3206
 6034TIP3    H139517   1.625   1.812   0.853 -0.4048 -1.2663 -0.0582
 6034TIP3    H239518   1.724   1.742   0.763 -0.5313 -1.2028 -0.2476
 6035TIP3   OH239519   3.090   3.233   2.223 -0.2128 -0.2152  0.2220
 6035TIP3    H139520   3.008   3.236   2.175  0.8703 -0.2380 -1.7055
 6035TIP3    H239521   3.102   3.141   2.246 -0.7634 -0.1908  0.6238
 6036TIP3   OH239522   3.197   6.308   6.599 -0.4718 -0.1145  0.2517
 6036TIP3    H139523   3.150   6.249   6.658  1.0365  1.1407  2.8697
 6036TIP3    H239524   3.131   6.372   6.573 -1.3054 -1.0080  0.0882
 6037TIP3   OH239525   3.594   3.777  15.317 -0.1022  0.4513  0.1232
 6037TIP3    H139526   3.592   3.708  15.384 -2.1698  0.3997  0.0823
 6037TIP3    H239527   3.680   3.819  15.328  1.1843 -2.0280  0.2098
 6038TIP3   OH239528   2.964   6.422   1.956 -0.2424  0.1462 -0.3971
 6038TIP3    H139529   3.032   6.362   1.987 -0.9681  0.1765  1.3291
 6038TIP3    H239530   2.908   6.437   2.032 -2.4361 -0.1994 -1.8385
 6039TIP3   OH239531   0.441   6.582  11.434 -0.0199  0.3213  0.3987
 6039TIP3    H139532   0.415   6.513  11.373 -1.9777  1.2381  0.1379
 6039TIP3    H239533   0.529   6.607  11.406 -0.1497 -0.5551 -0.8782
 6040TIP3   OH239534   3.065   5.103   2.943  0.5830 -0.2853 -0.3245
 6040TIP3    H139535   3.094   5.146   3.023  1.5693 -2.0312  0.3095
 6040TIP3    H239536   3.145   5.089   2.892 -0.1067  1.4200 -1.9916
 6041TIP3   OH239537   2.433   1.633   5.591 -0.3509  0.2139  0.4381
 6041TIP3    H139538   2.474   1.633   5.677  1.1042  0.1394 -0.2299
 6041TIP3    H239539   2.491   1.685   5.536 -0.0205 -1.6031 -1.0421
 6042TIP3   OH239540   2.307   3.107   4.795  0.0654  0.0116  0.6173
 6042TIP3    H139541   2.331   3.027   4.749  1.4486  0.2768  0.8469
 6042TIP3    H239542   2.235   3.143   4.743  0.3552 -0.6559 -0.2860
 6043TIP3   OH239543   1.771   3.975  13.086  0.1306 -0.5292  0.5352
 6043TIP3    H139544   1.784   3.885  13.115 -1.7325 -0.4477  1.7933
 6043TIP3    H239545   1.711   4.013  13.149 -1.0147  0.8881 -1.2814
 6044TIP3   OH239546   4.109   6.121  12.805 -0.2078  0.5434 -0.0633
 6044TIP3    H139547   4.171   6.147  12.737  0.4422  1.7681  0.9501
 6044TIP3    H239548   4.146   6.042  12.843 -0.3796  0.0653 -0.8676
 6045TIP3   OH239549   3.293   5.426   5.619 -0.1034  0.7384 -0.1613
 6045TIP3    H139550   3.320   5.415   5.527 -0.0320  0.8195 -0.1504
 6045TIP3    H239551   3.336   5.507   5.647  0.2791  0.4502  0.0946
 6046TIP3   OH239552   1.738   0.849  11.929  0.3486  0.0168 -0.1112
 6046TIP3    H139553   1.784   0.877  11.851 -1.7622  1.4960 -0.9337
 6046TIP3    H239554   1.764   0.912  11.997 -0.4589  0.8854 -0.5877
 6047TIP3   OH239555   6.136   4.442  13.149 -0.0749 -0.5042  0.0538
 6047TIP3    H139556   6.100   4.470  13.233  0.3551 -3.1767  1.2196
 6047TIP3    H239557   6.066   4.392  13.108 -0.0723  0.2737 -0.9295
 6048TIP3   OH239558   1.238   1.821   2.644 -0.1134 -0.4927  0.0989
 6048TIP3    H139559   1.181   1.782   2.710  0.7344 -1.8890  0.0437
 6048TIP3    H239560   1.301   1.753   2.622 -0.3590 -0.0913 -2.1689
 6049TIP3   OH239561   2.282   5.193   4.960 -0.3956  0.9005  0.6262
 6049TIP3    H139562   2.246   5.175   4.873  1.0021  4.6247 -0.9269
 6049TIP3    H239563   2.230   5.266   4.993 -0.3019  0.1499  2.5677
 6050TIP3   OH239564   2.013   0.716   2.169  0.1028  0.5598 -0.4033
 6050TIP3    H139565   2.079   0.666   2.218 -1.7333  0.2103  1.9524
 6050TIP3    H239566   2.041   0.807   2.177  0.6543  0.3615  0.0231
 6051TIP3   OH239567   3.108   2.451   5.779 -0.1627 -0.6324  0.0409
 6051TIP3    H139568   3.067   2.535   5.797  0.1993 -1.0667  3.3952
 6051TIP3    H239569   3.183   2.447   5.838 -0.5672 -3.5662  0.5068
 6052TIP3   OH239570   5.620   2.195  13.495 -0.3949 -0.0048  0.2183
 6052TIP3    H139571   5.599   2.286  13.514 -0.8062  0.0955 -0.6872
 6052TIP3    H239572   5.535   2.151  13.489 -0.1734 -0.8339  2.3878
 6053TIP3   OH239573   0.882   3.616  11.939  0.2903  0.7803  0.0708
 6053TIP3    H139574   0.968   3.631  11.901  1.2595 -1.6379  1.0969
 6053TIP3    H239575   0.886   3.659  12.025  0.7892  0.0558  0.4261
 6054TIP3   OH239576   4.050   4.065   1.862  0.3486  0.4609  0.0664
 6054TIP3    H139577   4.069   4.095   1.951  0.6568 -1.1945  0.5927
 6054TIP3    H239578   3.985   4.126   1.830  2.0468  2.6140  0.4793
 6055TIP3   OH239579   2.002   1.617  14.045 -0.1354 -0.5017 -0.0528
 6055TIP3    H139580   1.947   1.546  14.079 -1.4291  0.9688  1.1024
 6055TIP3    H239581   2.024   1.669  14.122 -0.3132  1.0741 -1.0249
 6056TIP3   OH239582   5.709   0.417  13.360  0.0295 -0.1646  0.5280
 6056TIP3    H139583   5.693   0.501  13.316  0.0676  0.0236  0.8706
 6056TIP3    H239584   5.751   0.363  13.293 -0.8485 -0.2315  0.0122
 6057TIP3   OH239585   0.947   2.917   3.340  0.2604  0.1807 -0.4394
 6057TIP3    H139586   0.967   2.980   3.409  0.4019  0.4349 -0.7068
 6057TIP3    H239587   0.856   2.891   3.355  0.2923  0.2303 -0.1577
 6058TIP3   OH239588   4.466   3.962   5.759  0.0753  0.1386 -0.2329
 6058TIP3    H139589   4.447   3.870   5.744  2.0791 -0.1476 -1.2618
 6058TIP3    H239590   4.555   3.975   5.726  0.6086  1.9960  1.6956
 6059TIP3   OH239591   6.084   6.007  14.900 -0.2143 -0.3433 -0.2072
 6059TIP3    H139592   6.001   5.970  14.869 -1.3117  2.5453 -1.0715
 6059TIP3    H239593   6.076   6.007  14.995 -1.3014  0.0603 -0.2871
 6060TIP3   OH239594   4.358   5.449  12.125  0.7142  0.1239 -0.3839
 6060TIP3    H139595   4.394   5.363  12.144  0.7341  0.0949 -0.5508
 6060TIP3    H239596   4.283   5.432  12.069  1.6132  0.3030 -1.6810
 6061TIP3   OH239597   0.970   0.600  16.983 -0.4813 -0.2257  0.1192
 6061TIP3    H139598   1.041   0.551  17.023  1.3690  2.0236 -0.1658
 6061TIP3    H239599   0.977   0.688  17.020 -2.0346  0.5328 -1.2092
 6062TIP3   OH239600   6.342   4.238   3.363  0.0865  0.8751 -0.3405
 6062TIP3    H139601   6.282   4.186   3.309  1.7900 -0.9643 -0.5623
 6062TIP3    H239602   6.286   4.277   3.430 -1.4158 -0.4812 -0.7422
 6063TIP3   OH239603   2.163   0.822  14.526 -0.2143 -0.5626  0.1012
 6063TIP3    H139604   2.121   0.876  14.459 -0.3518 -0.2290  0.4523
 6063TIP3    H239605   2.178   0.737  14.483 -1.4614 -0.7616  0.0444
 6064TIP3   OH239606   1.521   2.043   6.529 -0.0642 -0.5224 -0.2762
 6064TIP3    H139607   1.476   2.031   6.613 -1.7638 -0.9592 -1.2043
 6064TIP3    H239608   1.481   2.121   6.491  0.7786 -0.2555 -0.6293
 6065TIP3   OH239609   1.997   4.508   3.569  0.1119  0.1883  0.1335
 6065TIP3    H139610   2.001   4.490   3.663  1.4413  1.8074  0.4235
 6065TIP3    H239611   2.045   4.435   3.529 -0.4463 -0.5001  0.6758
 6066TIP3   OH239612   5.181   2.548   3.687 -0.6778  0.3790 -0.0076
 6066TIP3    H139613   5.256   2.498   3.654  0.2067  1.8494 -0.3101
 6066TIP3    H239614   5.191   2.548   3.782 -1.4662 -1.1436  0.1236
 6067TIP3   OH239615   1.477   4.699   4.257  0.2556  0.0674 -0.2979
 6067TIP3    H139616   1.496   4.783   4.217  1.6352  0.0415  0.2617
 6067TIP3    H239617   1.463   4.640   4.183 -1.1695  0.8441 -0.6953
 6068TIP3   OH239618   4.702   1.109  13.838 -0.2190  0.2799  0.2848
 6068TIP3    H139619   4.649   1.180  13.872  1.0058  0.6556  1.5115
 6068TIP3    H239620   4.647   1.031  13.848 -1.3102  0.9440 -0.4324
 6069TIP3   OH239621   5.448   6.540   2.768  0.1722 -0.3472 -0.6656
 6069TIP3    H139622   5.433   6.486   2.846  1.4876  0.8167  0.4546
 6069TIP3    H239623   5.428   6.482   2.694  0.3076 -1.9550  0.5055
 6070TIP3   OH239624   1.209   4.927  16.441 -0.0032 -0.4423 -0.0754
 6070TIP3    H139625   1.115   4.944  16.434 -0.0143 -1.0046 -1.8458
 6070TIP3    H239626   1.249   4.985  16.376  0.9205  0.0550  0.9172
 6071TIP3   OH239627   2.265   3.046   4.484  0.4840  0.4964  0.5167
 6071TIP3    H139628   2.286   3.067   4.393 -0.6543  0.8761  0.3140
 6071TIP3    H239629   2.169   3.055   4.489  0.1950 -2.0507  1.1089
 6072TIP3   OH239630   2.553   4.936   5.071 -0.2200 -0.2780  0.3503
 6072TIP3    H139631   2.639   4.974   5.086 -0.5218  1.3357 -1.6525
 6072TIP3    H239632   2.560   4.892   4.986 -1.0992 -1.0129  0.6342
 6073TIP3   OH239633   0.962   5.202  14.379 -0.2488  0.0991 -0.6207
 6073TIP3    H139634   0.968   5.213  14.284 -0.1857  0.5232 -0.5689
 6073TIP3    H239635   0.962   5.107  14.392  1.9224  0.0074 -0.9100
 6074TIP3   OH239636   3.380   1.623  12.815 -0.0081 -0.5541  0.3862
 6074TIP3    H139637   3.405   1.538  12.779 -1.0616 -2.5434  3.9164
 6074TIP3    H239638   3.286   1.618  12.828  0.0707  0.6825  1.7349
 6075TIP3   OH239639   4.082   5.919  11.494  0.2615  0.2518 -0.2195
 6075TIP3    H139640   4.150   5.945  11.556  1.1256 -0.8198 -0.6876
 6075TIP3    H239641   4.072   5.995  11.436  0.8238  0.5405  0.0569
 6076TIP3   OH239642   1.358   2.190   5.047  0.1370 -0.2356  0.1103
 6076TIP3    H139643   1.444   2.198   5.007  0.5311 -0.8881  0.8037
 6076TIP3    H239644   1.367   2.119   5.110 -0.7967 -0.0362  0.4909
 6077TIP3   OH239645   4.279   2.944  13.489  0.1720  0.6511  0.0466
 6077TIP3    H139646   4.362   2.985  13.515 -0.8072  1.4398  2.1713
 6077TIP3    H239647   4.259   2.884  13.560  0.1342 -1.5063 -1.6707
 6078TIP3   OH239648   3.764   2.271  13.735  0.2509 -0.6721  0.1791
 6078TIP3    H139649   3.690   2.228  13.777  1.1348 -2.0746  0.3355
 6078TIP3    H239650   3.725   2.348  13.692 -1.3093 -1.4642  0.1087
 6079TIP3   OH239651   3.235   6.534  14.641  0.2353  0.4326  0.4289
 6079TIP3    H139652   3.169   6.474  14.607  1.5303 -0.8354  0.0432
 6079TIP3    H239653   3.186   6.597  14.694 -1.1968 -0.8421  0.6859
 6080TIP3   OH239654   0.160   5.301   0.402 -0.3600  1.1379 -0.0864
 6080TIP3    H139655   0.251   5.330   0.393  0.1958 -0.5156 -0.0844
 6080TIP3    H239656   0.138   5.318   0.494  0.3628  0.4573  0.2237
 6081TIP3   OH239657   4.720   1.086   5.609  0.1701 -0.2297 -0.3951
 6081TIP3    H139658   4.700   1.158   5.550  0.0650  0.0987  0.0397
 6081TIP3    H239659   4.788   1.036   5.563  0.2426  0.1432 -0.6994
 6082TIP3   OH239660   4.738   5.913   2.920  0.0994  0.2269  0.3976
 6082TIP3    H139661   4.833   5.900   2.929  0.2213  0.5143 -0.3419
 6082TIP3    H239662   4.729   6.000   2.881 -0.3400 -0.6149 -1.5449
 6083TIP3   OH239663   5.446   1.368   3.292 -0.2508 -0.2337 -0.2021
 6083TIP3    H139664   5.512   1.306   3.261  0.7985  1.0243 -0.5980
 6083TIP3    H239665   5.497   1.443   3.323 -1.5022  1.9802 -3.0288
 6084TIP3   OH239666   6.582   6.290  11.452 -0.0013  0.6233  0.4452
 6084TIP3    H139667   6.661   6.246  11.484  0.5836  1.9617  0.9190
 6084TIP3    H239668   6.613   6.344  11.379 -1.1516 -1.6294 -1.8842
 6085TIP3   OH239669   1.219   4.260  15.520 -0.3293 -0.2499 -0.3296
 6085TIP3    H139670   1.280   4.296  15.585 -1.6058 -2.2595  2.1428
 6085TIP3    H239671   1.258   4.285  15.435  3.4753 -0.7139  1.0680
 6086TIP3   OH239672   2.775   6.716  15.487 -0.2005 -0.4959  0.6588
 6086TIP3    H139673   2.794   6.711  15.581  2.2466  0.0519  0.2548
 6086TIP3    H239674   2.853   6.678  15.445  0.2372  2.1989 -1.2134
 6087TIP3   OH239675   6.416   5.600   3.333 -0.0724 -0.0587  0.3175
 6087TIP3    H139676   6.427   5.694   3.318  0.1252 -0.4396 -2.4066
 6087TIP3    H239677   6.405   5.592   3.428  0.3629  2.6487  0.6766
 6088TIP3   OH239678   2.153   4.358  11.923 -0.9584  0.7211  0.1478
 6088TIP3    H139679   2.173   4.304  11.847  0.0856  0.2105  0.7728
 6088TIP3    H239680   2.207   4.436  11.911 -2.9717  2.0427 -1.1172
 6089TIP3   OH239681   0.779   4.920   4.965 -0.4690  0.2215  0.4540
 6089TIP3    H139682   0.755   4.900   4.874  1.9654 -0.0631 -0.1988
 6089TIP3    H239683   0.699   4.905   5.014 -1.2241 -2.2080 -1.2899
 6090TIP3   OH239684   2.281   5.879  11.855  0.0146 -0.1016 -0.3152
 6090TIP3    H139685   2.323   5.948  11.804  0.7031 -0.0264  0.3357
 6090TIP3    H239686   2.200   5.918  11.886  0.0204  0.1469 -0.6128
 6091TIP3   OH239687   5.255   5.458  16.931 -0.1720  0.0368 -0.5442
 6091TIP3    H139688   5.174   5.430  16.973 -0.2655  0.4920 -0.4097
 6091TIP3    H239689   5.252   5.554  16.935  1.2235  0.0522  1.1060
 6092TIP3   OH239690   5.985   5.224  12.205  0.0154  0.6362 -0.3751
 6092TIP3    H139691   5.982   5.137  12.164 -1.1649  0.1947  0.5765
 6092TIP3    H239692   6.076   5.236  12.230 -0.0080 -0.8605  0.5565
 6093TIP3   OH239693   0.309   1.784   2.732 -0.7342  0.2488 -0.6694
 6093TIP3    H139694   0.276   1.759   2.646 -1.1260  0.2269 -0.5136
 6093TIP3    H239695   0.267   1.724   2.794  0.7084 -0.7401 -0.5968
 6094TIP3   OH239696   5.316   2.357  16.628 -0.3583 -0.0539 -1.2582
 6094TIP3    H139697   5.304   2.379  16.536  0.9301  0.7276 -1.2709
 6094TIP3    H239698   5.407   2.329  16.635  0.6526  3.0088  0.2591
 6095TIP3   OH239699   5.575   3.689  12.214  1.1531  0.2877  0.1400
 6095TIP3    H139700   5.600   3.679  12.122  2.0554  0.8122  0.3162
 6095TIP3    H239701   5.571   3.783  12.228  0.0838  0.2109  0.4012
 6096TIP3   OH239702   2.361   1.551   1.897  0.4874 -0.3965 -0.1928
 6096TIP3    H139703   2.457   1.549   1.892  0.4685 -0.8734 -0.4230
 6096TIP3    H239704   2.332   1.536   1.807  0.1915  0.6449 -0.2929
 6097TIP3   OH239705   0.913   5.696   5.922 -0.2292  0.3384  1.0371
 6097TIP3    H139706   0.985   5.728   5.976  2.0812 -1.9935 -0.4714
 6097TIP3    H239707   0.891   5.610   5.959  0.3748 -0.6210 -0.7440
 6098TIP3   OH239708   5.046   5.530  15.015  0.2252 -0.5919  0.6924
 6098TIP3    H139709   5.007   5.613  15.043 -0.0772 -1.2081  2.2034
 6098TIP3    H239710   5.084   5.493  15.094 -0.5506 -2.3809  0.2944
 6099TIP3   OH239711   0.102   2.808  15.168  0.4662  0.3642  0.2490
 6099TIP3    H139712   0.189   2.818  15.206 -0.0737  0.9043  1.3932
 6099TIP3    H239713   0.043   2.807  15.243 -0.4212 -1.3676 -0.4228
 6100TIP3   OH239714   4.616   0.529  12.904 -0.1250  0.8585  0.3471
 6100TIP3    H139715   4.656   0.584  12.972  1.1066 -1.3704  1.5343
 6100TIP3    H239716   4.552   0.476  12.951 -0.2426  0.2468 -0.4856
 6101TIP3   OH239717   6.408   1.965   3.484 -0.4352 -0.5644  0.4680
 6101TIP3    H139718   6.389   1.899   3.550 -2.6364 -1.0490 -0.5421
 6101TIP3    H239719   6.449   1.916   3.412 -0.7150 -0.5833  0.3178
 6102TIP3   OH239720   0.788   0.671   1.625  0.1100  0.0639 -0.0017
 6102TIP3    H139721   0.862   0.610   1.626 -0.9908 -1.4647 -2.2449
 6102TIP3    H239722   0.711   0.616   1.636 -0.8263  1.3258 -0.0115
 6103TIP3   OH239723   2.754   0.262   2.084 -0.1441  0.3612  0.9075
 6103TIP3    H139724   2.834   0.213   2.063  0.1210  0.5552  1.4311
 6103TIP3    H239725   2.769   0.295   2.173 -0.8272  0.3655  1.0249
 6104TIP3   OH239726   4.332   4.012  13.053  0.1143  0.3228  0.1977
 6104TIP3    H139727   4.278   3.936  13.032  0.1490  0.3290  0.0885
 6104TIP3    H239728   4.286   4.055  13.125 -0.0276  0.3314  0.0993
 6105TIP3   OH239729   0.607   1.435   0.897  0.3922 -0.2201 -0.1636
 6105TIP3    H139730   0.675   1.502   0.896  2.0196 -1.8054 -0.2214
 6105TIP3    H239731   0.595   1.414   0.990 -0.5106  0.5143 -0.1055
 6106TIP3   OH239732   3.402   4.459   3.783 -0.3456 -0.2034  0.2289
 6106TIP3    H139733   3.421   4.402   3.708 -0.5997 -1.1393  0.8618
 6106TIP3    H239734   3.308   4.476   3.776  0.2252  2.8989 -1.8358
 6107TIP3   OH239735   5.949   4.998  15.666 -0.3206  0.1667  0.0269
 6107TIP3    H139736   6.013   5.042  15.722  0.2135 -1.5186  0.8136
 6107TIP3    H239737   5.981   4.908  15.659 -1.5442 -0.2086 -1.2321
 6108TIP3   OH239738   1.815   4.881   4.413  0.1476  0.0910 -0.6137
 6108TIP3    H139739   1.778   4.818   4.351  0.2086 -0.2766 -0.2868
 6108TIP3    H239740   1.739   4.926   4.450 -0.1985 -2.0660  1.5477
 6109TIP3   OH239741   6.218   5.242  12.744 -0.2288 -0.5114  0.1753
 6109TIP3    H139742   6.212   5.272  12.654  0.5808 -2.9408 -0.7726
 6109TIP3    H239743   6.133   5.264  12.783 -0.1989  1.5569 -0.7939
 6110TIP3   OH239744   0.439   4.027  12.398  0.0309  0.1772 -0.1442
 6110TIP3    H139745   0.433   4.092  12.327  0.4515 -1.8817 -2.1674
 6110TIP3    H239746   0.498   3.960  12.364  1.4304 -0.2293  2.7821
 6111TIP3   OH239747   0.055   2.399   1.800  0.7579  0.1367 -0.9899
 6111TIP3    H139748   0.072   2.493   1.810  0.6673  0.2749 -2.1051
 6111TIP3    H239749  -0.017   2.393   1.738 -0.0162 -0.6447 -0.0522
 6112TIP3   OH239750   3.447   4.129   0.549  0.7561  0.3807 -0.0657
 6112TIP3    H139751   3.393   4.175   0.485  0.7435 -0.0209 -0.3513
 6112TIP3    H239752   3.536   4.160   0.532  0.5863  1.2759  0.6101
 6113TIP3   OH239753   0.817   4.479   0.463 -0.6709  0.0254  0.3030
 6113TIP3    H139754   0.840   4.498   0.554 -1.2370  0.5476  0.3406
 6113TIP3    H239755   0.735   4.526   0.448 -1.2066 -1.0017 -0.1211
 6114TIP3   OH239756   1.025   6.268  13.226 -0.6591  0.2770  0.5002
 6114TIP3    H139757   1.002   6.185  13.184 -0.9728  0.8296 -0.4535
 6114TIP3    H239758   0.943   6.317  13.230 -0.2641  1.0067 -0.0464
 6115TIP3   OH239759   5.888   2.926  11.337  0.1174  0.6912 -0.5257
 6115TIP3    H139760   5.800   2.964  11.345  0.2526  0.9146 -0.0386
 6115TIP3    H239761   5.934   2.985  11.278  0.2310  1.1135 -0.0185
 6116TIP3   OH239762   1.322   0.128  13.312 -0.3253  0.3403  0.3333
 6116TIP3    H139763   1.334   0.125  13.217 -0.3647  0.8664  0.3070
 6116TIP3    H239764   1.347   0.041  13.342  2.2682  0.9088  0.1325
 6117TIP3   OH239765   6.414   5.289  16.871 -0.2691 -0.5292 -0.0442
 6117TIP3    H139766   6.495   5.334  16.844 -0.0950 -0.7094  0.1725
 6117TIP3    H239767   6.385   5.336  16.949 -0.8118  0.0355 -0.5746
 6118TIP3   OH239768   6.159   4.752   4.799  0.5458  0.2243 -0.0034
 6118TIP3    H139769   6.204   4.779   4.719 -0.9586 -2.1709 -1.7967
 6118TIP3    H239770   6.212   4.680   4.833  0.5472  0.4489  0.4656
 6119TIP3   OH239771   5.432   0.465  11.206  0.1073  0.1212  0.4118
 6119TIP3    H139772   5.341   0.462  11.236  0.1183  0.8518  0.5379
 6119TIP3    H239773   5.473   0.389  11.247 -0.4816 -0.3105  0.2193
 6120TIP3   OH239774   5.859   1.022  13.835  0.3488 -0.2028 -0.4222
 6120TIP3    H139775   5.777   0.978  13.860  1.2206 -3.1572 -2.3005
 6120TIP3    H239776   5.831   1.092  13.776 -0.8632 -2.2058 -2.3986
 6121TIP3   OH239777   1.430   5.876   5.841  0.0910  0.4066 -0.6977
 6121TIP3    H139778   1.356   5.886   5.900  0.7138  0.7175  0.0502
 6121TIP3    H239779   1.469   5.792   5.863 -0.1848  0.1218 -1.2683
 6122TIP3   OH239780   2.590   6.174   2.853  0.3190 -0.4886 -0.2559
 6122TIP3    H139781   2.510   6.184   2.802  0.1494  0.0658  0.1144
 6122TIP3    H239782   2.574   6.097   2.908 -1.2754  1.4712  2.1912
 6123TIP3   OH239783   3.526   2.789   5.975  0.2152  0.2745 -0.1084
 6123TIP3    H139784   3.528   2.885   5.982  1.6643  0.2394  0.2508
 6123TIP3    H239785   3.617   2.762   5.988 -0.5231 -1.3417  2.4049
 6124TIP3   OH239786   5.374   3.617   3.972 -0.0553  0.3535 -0.2586
 6124TIP3    H139787   5.281   3.600   3.987  0.1127  0.3483  0.8822
 6124TIP3    H239788   5.409   3.638   4.058  0.8388  1.2171 -0.8110
 6125TIP3   OH239789   0.100   3.965  11.582 -0.0468 -0.0874  1.0904
 6125TIP3    H139790   0.032   4.028  11.558  0.2614  0.2289  1.0412
 6125TIP3    H239791   0.051   3.888  11.612 -0.4335  0.8251  2.9239
 6126TIP3   OH239792   3.260   6.055  15.983  0.4050  0.3031  0.5305
 6126TIP3    H139793   3.199   6.129  15.982  1.1604  0.9316 -0.3366
 6126TIP3    H239794   3.344   6.093  15.956  0.5542 -1.0736 -1.1122
 6127TIP3   OH239795   3.329   5.224   1.058 -0.1472 -0.6840 -0.2257
 6127TIP3    H139796   3.328   5.277   0.979  2.8259 -1.4138 -0.9001
 6127TIP3    H239797   3.241   5.187   1.064 -0.9697  0.8201 -2.1678
 6128TIP3   OH239798   3.347   2.106   0.365 -0.1563 -0.2075 -0.1530
 6128TIP3    H139799   3.440   2.127   0.370 -0.0814 -0.3349 -0.9192
 6128TIP3    H239800   3.304   2.190   0.351  0.0231 -0.3610 -1.7985
 6129TIP3   OH239801   3.760   3.672   0.293 -0.2724 -0.2446  0.1607
 6129TIP3    H139802   3.737   3.737   0.227 -1.0996 -2.1301 -1.5084
 6129TIP3    H239803   3.842   3.633   0.262  0.4527  0.2672  1.3703
 6130TIP3   OH239804   1.203   4.157   1.582 -0.0146 -0.2871  0.5981
 6130TIP3    H139805   1.273   4.167   1.517  0.5900  0.3721  1.3354
 6130TIP3    H239806   1.124   4.183   1.535  0.4597  0.4877  0.2022
 6131TIP3   OH239807   3.178   4.151   3.459 -0.2577  0.4146  0.2444
 6131TIP3    H139808   3.155   4.063   3.486  2.0574 -0.6647 -0.9981
 6131TIP3    H239809   3.166   4.152   3.364  3.5124  0.0218 -0.3839
 6132TIP3   OH239810   4.120   4.685  16.557  0.3111 -0.4173 -0.3161
 6132TIP3    H139811   4.084   4.774  16.558 -0.5260 -0.6284 -3.0060
 6132TIP3    H239812   4.157   4.673  16.644 -1.0852  1.9268  0.6970
 6133TIP3   OH239813   4.454   6.029  14.833  0.2358 -0.4795  0.1299
 6133TIP3    H139814   4.531   5.997  14.784  1.1906 -0.2849  1.4525
 6133TIP3    H239815   4.464   6.124  14.833 -1.3542 -0.2448 -1.7799
 6134TIP3   OH239816   0.753   1.570  15.310  0.0153  0.0612 -0.0070
 6134TIP3    H139817   0.712   1.511  15.247  0.0908  0.8603 -0.8294
 6134TIP3    H239818   0.818   1.619  15.259  0.2196  0.5816  0.7308
 6135TIP3   OH239819   1.883   1.219   1.028  0.3288 -0.0472 -0.2085
 6135TIP3    H139820   1.882   1.226   1.123  1.3953 -0.3720 -0.1586
 6135TIP3    H239821   1.954   1.277   1.000  0.9217 -0.9794 -0.6941
 6136TIP3   OH239822   5.925   1.100  14.497 -0.7311 -0.6051 -0.1248
 6136TIP3    H139823   5.870   1.138  14.428 -1.2772  0.1239  0.6853
 6136TIP3    H239824   5.864   1.057  14.557 -0.6318  1.3704  1.5198
 6137TIP3   OH239825   0.583   3.080  15.990  0.1292  0.5709 -0.2156
 6137TIP3    H139826   0.567   3.138  16.064  0.9126  0.3281  0.1544
 6137TIP3    H239827   0.497   3.045  15.968 -0.1104  0.6464  0.5806
 6138TIP3   OH239828   3.487   3.262  17.243  0.2946  0.1516 -0.2655
 6138TIP3    H139829   3.416   3.281  17.304  1.3158 -3.4758  2.4204
 6138TIP3    H239830   3.459   3.184  17.195  0.5391  1.5428 -2.8820
 6139TIP3   OH239831   5.687   2.987   2.975 -0.1053 -0.1027  0.1518
 6139TIP3    H139832   5.765   3.009   3.026  0.3189 -1.2648  0.0291
 6139TIP3    H239833   5.699   2.895   2.950 -1.7823 -0.4788  0.5992
 6140TIP3   OH239834   3.892   0.018  16.848  0.2110  0.8384 -0.4049
 6140TIP3    H139835   3.943   0.049  16.773 -1.3443  2.2597 -0.9564
 6140TIP3    H239836   3.946  -0.049  16.889  1.7372  1.0741 -1.9415
 6141TIP3   OH239837   5.714   2.332  11.974  0.7814 -0.6711 -0.2082
 6141TIP3    H139838   5.789   2.350  11.917  1.4793 -2.7466 -0.0463
 6141TIP3    H239839   5.638   2.352  11.920  1.4422  0.5829 -0.7013
 6142TIP3   OH239840   4.424   1.684  16.834 -0.2723  0.4950 -0.1838
 6142TIP3    H139841   4.439   1.775  16.811 -0.3205  0.4464 -0.4074
 6142TIP3    H239842   4.452   1.634  16.757 -1.1947  0.3764 -0.4516
 6143TIP3   OH239843   6.084   0.403  14.771  0.0302 -0.1912 -0.4502
 6143TIP3    H139844   6.085   0.362  14.858  0.7846 -0.1150 -0.4145
 6143TIP3    H239845   6.047   0.336  14.713  0.0031 -0.4355 -0.1534
 6144TIP3   OH239846   5.821   1.718  11.548 -0.5954 -0.1454  0.3129
 6144TIP3    H139847   5.742   1.770  11.536 -0.4048  0.0692 -0.0208
 6144TIP3    H239848   5.851   1.741  11.636 -1.0097 -0.3784  0.5218
 6145TIP3   OH239849   5.043   4.888   5.010 -0.3342 -0.3165  0.0675
 6145TIP3    H139850   4.954   4.894   5.043 -0.5592 -0.4397 -0.5087
 6145TIP3    H239851   5.035   4.838   4.928  0.3509 -0.9466  0.3744
 6146TIP3   OH239852   5.913   6.777  11.829  0.3252  0.0084  0.1550
 6146TIP3    H139853   5.904   6.709  11.895  0.8810 -0.5562 -0.3397
 6146TIP3    H239854   6.007   6.798  11.828  0.3540 -0.1163 -0.5672
 6147TIP3   OH239855   4.711   6.295   2.092 -0.2481  0.0324  0.1496
 6147TIP3    H139856   4.719   6.373   2.038 -0.0984 -0.5639 -0.7150
 6147TIP3    H239857   4.623   6.301   2.129 -1.0838 -0.4491 -1.6518
 6148TIP3   OH239858   5.612   5.127  16.247 -0.3395  0.2729 -0.3897
 6148TIP3    H139859   5.654   5.049  16.283 -1.5139 -0.4081 -0.4520
 6148TIP3    H239860   5.533   5.138  16.299  0.4874  2.2498  0.5272
 6149TIP3   OH239861   5.733   1.201  16.317  0.0480  0.1225 -0.6090
 6149TIP3    H139862   5.674   1.170  16.248  0.2933  1.5331 -1.4856
 6149TIP3    H239863   5.721   1.296  16.319 -0.1440  0.1093  1.5051
 6150TIP3   OH239864   4.090   4.644  11.168  0.3588  0.0827  0.0623
 6150TIP3    H139865   4.156   4.661  11.235 -0.5256  2.0484  0.4951
 6150TIP3    H239866   4.136   4.659  11.085  0.5630  1.0668  0.3462
 6151TIP3   OH239867   4.131   2.128   6.265  1.3559  0.3824  0.1881
 6151TIP3    H139868   4.175   2.209   6.291  0.2362  1.4744 -1.1715
 6151TIP3    H239869   4.040   2.140   6.291  1.0043 -0.0931 -0.7602
 6152TIP3   OH239870   0.085   6.497  15.663 -0.3989  0.4672  0.1974
 6152TIP3    H139871   0.067   6.488  15.570 -0.3942 -1.0064  0.3253
 6152TIP3    H239872   0.113   6.588  15.673  2.4773 -0.0846 -1.7563
 6153TIP3   OH239873   1.790   4.257   5.297 -0.0502 -0.3725 -0.5469
 6153TIP3    H139874   1.828   4.344   5.297 -0.5081 -0.1663 -0.0763
 6153TIP3    H239875   1.841   4.208   5.233  1.2742 -0.2171  0.3558
 6154TIP3   OH239876   4.662   1.602  16.947  0.4687 -0.5718  0.0180
 6154TIP3    H139877   4.720   1.670  16.911  1.7434 -0.6447  1.8289
 6154TIP3    H239878   4.574   1.627  16.916  1.1981  0.5888 -1.2389
 6155TIP3   OH239879   3.833   3.411  15.885 -0.4306  0.2446  0.0372
 6155TIP3    H139880   3.807   3.320  15.905 -0.3379 -0.3731 -2.3620
 6155TIP3    H239881   3.758   3.463  15.914 -2.3309 -1.0383 -2.1491
 6156TIP3   OH239882   4.118   2.903  16.779 -0.5892  0.4447  1.0896
 6156TIP3    H139883   4.051   2.971  16.770 -1.3056 -0.3250  0.4402
 6156TIP3    H239884   4.082   2.827  16.733  0.9652  0.1745  0.2606
 6157TIP3   OH239885   6.581   3.514   5.159  0.0309  0.2703  0.3875
 6157TIP3    H139886   6.587   3.606   5.184  1.3624  0.0117  1.1028
 6157TIP3    H239887   6.510   3.479   5.212 -0.6013  0.9091 -0.0179
 6158TIP3   OH239888   2.254   1.885   1.802 -0.5618  0.4248 -0.4365
 6158TIP3    H139889   2.276   1.977   1.795 -1.7462  0.7487 -0.2627
 6158TIP3    H239890   2.337   1.839   1.796 -0.0472  1.4468 -1.4771
 6159TIP3   OH239891   1.958   5.687   5.793  0.4639 -0.0014 -0.3297
 6159TIP3    H139892   1.917   5.602   5.808  2.0646 -0.8934 -0.8283
 6159TIP3    H239893   1.953   5.699   5.698 -0.2624  0.7522 -0.2091
 6160TIP3   OH239894   4.848   0.641   4.406  0.4696 -0.2927  0.5329
 6160TIP3    H139895   4.820   0.732   4.395 -0.1434 -0.4325  0.9439
 6160TIP3    H239896   4.770   0.594   4.434  0.3286 -1.3007 -1.3685
 6161TIP3   OH239897   3.954   1.345  11.414 -0.0589 -0.2507  0.1321
 6161TIP3    H139898   3.988   1.354  11.325 -1.3249 -1.5060 -0.5209
 6161TIP3    H239899   3.861   1.368  11.406  0.1787  1.4185  1.5197
 6162TIP3   OH239900   3.304   2.990  14.151  0.4447 -0.2797 -0.2221
 6162TIP3    H139901   3.368   2.941  14.202 -0.2417  1.7908  2.9010
 6162TIP3    H239902   3.222   2.978  14.199 -0.2894  1.6474 -0.9223
 6163TIP3   OH239903   2.850   3.828   0.831  0.5341 -0.5110  0.2875
 6163TIP3    H139904   2.774   3.861   0.783  0.5070 -0.5644  0.2941
 6163TIP3    H239905   2.819   3.748   0.873  0.8430 -1.0214 -0.4340
 6164TIP3   OH239906   1.197   6.155  14.910 -0.1913 -0.6979  0.4015
 6164TIP3    H139907   1.245   6.184  14.987  0.0276 -3.7956  1.5579
 6164TIP3    H239908   1.232   6.069  14.891 -2.8938 -1.6278 -0.8132
 6165TIP3   OH239909   0.181   4.323   0.809  0.6917  0.4064  0.0411
 6165TIP3    H139910   0.235   4.244   0.812  1.0372  0.6092 -0.5346
 6165TIP3    H239911   0.211   4.374   0.884  0.5435  0.0391  0.3523
 6166TIP3   OH239912   6.425   1.865  14.961  0.5888  0.8548  0.1400
 6166TIP3    H139913   6.399   1.957  14.961 -0.3672  0.6279  1.6251
 6166TIP3    H239914   6.342   1.817  14.961  1.0773 -0.0265 -0.8715
 6167TIP3   OH239915   3.043   6.162   1.740  0.5800  0.0728 -0.5434
 6167TIP3    H139916   2.996   6.221   1.681  0.3558  0.4354 -0.0157
 6167TIP3    H239917   3.076   6.219   1.809 -0.1153 -0.4826  0.2727
 6168TIP3   OH239918   2.203   5.474  13.406 -0.3162 -0.1997 -0.0248
 6168TIP3    H139919   2.185   5.558  13.364 -0.1117 -0.7863 -1.3708
 6168TIP3    H239920   2.281   5.490  13.460 -0.3516  0.5025 -0.1766
 6169TIP3   OH239921   2.834   2.059   5.190  0.2678 -0.4239  0.3744
 6169TIP3    H139922   2.871   2.098   5.111  2.0860  1.6189  2.1065
 6169TIP3    H239923   2.768   2.123   5.220  0.7914 -0.3407  1.3820
 6170TIP3   OH239924   5.282   2.547   1.216 -0.3383 -0.5016 -0.1314
 6170TIP3    H139925   5.338   2.470   1.228  0.7002  0.3668  0.8296
 6170TIP3    H239926   5.225   2.524   1.144  1.4721 -1.3292 -1.3827
 6171TIP3   OH239927   2.791   0.973  16.713  0.3854  0.5005  0.2327
 6171TIP3    H139928   2.812   0.914  16.640  1.3608  2.2560 -0.9998
 6171TIP3    H239929   2.696   0.983  16.708  0.0972 -1.5220  0.9650
 6172TIP3   OH239930   3.353   1.117  11.605 -0.2328 -0.2186 -0.7826
 6172TIP3    H139931   3.299   1.117  11.684  2.0912  1.2417  0.9564
 6172TIP3    H239932   3.339   1.203  11.567  0.4502 -0.0180 -0.5937
 6173TIP3   OH239933   4.345   1.262  12.674  0.2364  0.3471  0.3344
 6173TIP3    H139934   4.411   1.300  12.616  0.0215  1.7352  0.9630
 6173TIP3    H239935   4.307   1.337  12.720 -0.0157 -0.6549  1.8415
 6174TIP3   OH239936   4.824   6.494   4.568  0.2119 -0.6880 -0.2815
 6174TIP3    H139937   4.733   6.471   4.551 -0.3071  1.2844 -0.4639
 6174TIP3    H239938   4.821   6.551   4.645  1.5904 -2.4495  1.1625
 6175TIP3   OH239939   4.518   2.234   3.677  0.0574  0.4464 -0.4562
 6175TIP3    H139940   4.555   2.151   3.708 -0.1035  0.4846 -0.1629
 6175TIP3    H239941   4.499   2.219   3.585 -1.1080 -0.2526 -0.1273
 6176TIP3   OH239942   2.247   5.386   0.704  0.3142  0.2545 -0.5145
 6176TIP3    H139943   2.181   5.446   0.739 -0.2158  0.5091 -1.9046
 6176TIP3    H239944   2.331   5.428   0.724  0.0021  0.7519 -0.2318
 6177TIP3   OH239945   0.252   3.311   2.055 -0.0720 -0.2896  0.1996
 6177TIP3    H139946   0.222   3.393   2.094  1.3130 -0.6086  2.0493
 6177TIP3    H239947   0.295   3.264   2.127  0.5780 -1.9386 -1.1938
 6178TIP3   OH239948   4.721   5.213   4.276  0.0537 -0.2099  1.1801
 6178TIP3    H139949   4.815   5.226   4.265 -0.3794  1.4172 -1.3170
 6178TIP3    H239950   4.680   5.286   4.229 -2.4812 -0.6297  2.5386
 6179TIP3   OH239951   2.210   1.397  11.638 -0.2691 -0.2853  0.4393
 6179TIP3    H139952   2.185   1.305  11.643  0.4452 -0.5068  0.0982
 6179TIP3    H239953   2.233   1.421  11.728 -1.5454 -0.1116  0.7355
 6180TIP3   OH239954   5.240   3.160   5.415  0.2337  0.7306 -0.2705
 6180TIP3    H139955   5.236   3.112   5.498  1.3595 -0.6997 -0.9987
 6180TIP3    H239956   5.210   3.097   5.349 -1.8127  2.2063 -0.8730
 6181TIP3   OH239957   5.273   5.296  12.800  0.1495 -0.2929  0.1886
 6181TIP3    H139958   5.264   5.385  12.833  1.2737 -0.6147  1.4761
 6181TIP3    H239959   5.298   5.306  12.708  1.8825  0.7907  0.7271
 6182TIP3   OH239960   3.154   0.414  16.168 -0.4608  0.6553  0.3143
 6182TIP3    H139961   3.136   0.328  16.205  1.6577 -0.5614 -1.2239
 6182TIP3    H239962   3.239   0.439  16.205 -0.4473  1.4846 -0.2388
 6183TIP3   OH239963   3.388   3.138   2.475  0.2140  0.1921 -0.1897
 6183TIP3    H139964   3.431   3.119   2.392  1.8119  0.8698  0.4496
 6183TIP3    H239965   3.422   3.224   2.501  0.7721 -0.5638  1.7895
 6184TIP3   OH239966   6.639   2.461   5.444  0.1081  0.0608 -0.3337
 6184TIP3    H139967   6.595   2.406   5.508 -0.4970  2.7079  1.7292
 6184TIP3    H239968   6.572   2.478   5.377 -1.0566  1.3873  1.0760
 6185TIP3   OH239969   6.763   4.426   0.397 -0.0078  0.0078 -0.3670
 6185TIP3    H139970   6.825   4.443   0.468 -1.2525  1.2488  0.4770
 6185TIP3    H239971   6.811   4.368   0.337  1.6568  0.2532  0.6474
 6186TIP3   OH239972   4.031   2.273   1.296  0.2575 -0.1424 -0.2969
 6186TIP3    H139973   4.002   2.254   1.385 -0.8315  0.8098 -0.4280
 6186TIP3    H239974   4.031   2.187   1.252  0.5694 -0.5799  0.5372
 6187TIP3   OH239975   3.229   1.696  12.493 -0.1533 -0.0214 -0.3783
 6187TIP3    H139976   3.170   1.728  12.425  2.4162  1.6030 -2.0041
 6187TIP3    H239977   3.234   1.767  12.557 -0.0833 -0.2380 -0.1387
 6188TIP3   OH239978   2.992   2.156   3.425  0.2792  0.1241 -0.1281
 6188TIP3    H139979   2.984   2.062   3.410 -0.0700  0.1168  0.0962
 6188TIP3    H239980   2.952   2.170   3.511 -0.4775  0.6091 -0.5484
 6189TIP3   OH239981   4.065   6.483  15.861  0.7471 -0.5199 -0.2361
 6189TIP3    H139982   4.040   6.427  15.788  0.9064 -2.9720  1.4525
 6189TIP3    H239983   4.150   6.449  15.890  1.8494  1.9086 -0.2973
 6190TIP3   OH239984   2.546   0.565  16.885  0.4375 -0.0790  0.2865
 6190TIP3    H139985   2.538   0.637  16.948  0.3078 -0.5907  0.8625
 6190TIP3    H239986   2.478   0.503  16.912  0.4155 -0.3245 -0.3336
 6191TIP3   OH239987   6.327   2.082   0.579 -0.1361  0.2405  0.2986
 6191TIP3    H139988   6.329   2.078   0.483  2.4226 -1.6230  0.3142
 6191TIP3    H239989   6.335   2.175   0.599  1.5781  0.5264 -1.3831
 6192TIP3   OH239990   4.834   0.180   5.088  0.4157  0.4375 -0.5012
 6192TIP3    H139991   4.913   0.233   5.073  0.3144  0.2529 -1.8319
 6192TIP3    H239992   4.763   0.230   5.047 -0.2875  0.8599  1.1481
 6193TIP3   OH239993   5.632   4.927  14.368 -0.0699  0.1462 -0.6612
 6193TIP3    H139994   5.706   4.987  14.368  0.7569 -0.8398  0.0534
 6193TIP3    H239995   5.662   4.852  14.317 -0.5275 -0.3120 -0.2745
 6194TIP3   OH239996   1.790   0.180  12.398 -0.2087 -0.3721  0.2471
 6194TIP3    H139997   1.864   0.236  12.375  0.8364 -2.1448 -0.9220
 6194TIP3    H239998   1.808   0.153  12.488  1.7221 -2.3892 -0.6558
 6195TIP3   OH239999   0.153   6.274  13.506  0.1172 -0.2061 -0.5214
 6195TIP3    H140000   0.140   6.229  13.590 -2.2946 -0.4829 -0.9729
 6195TIP3    H240001   0.248   6.289  13.502  0.4189 -0.9464  1.8388
 6196TIP3   OH240002   3.104   6.142  13.996  0.0036  0.2508 -0.2279
 6196TIP3    H140003   3.067   6.118  14.081  0.1664  2.3034  0.4842
 6196TIP3    H240004   3.194   6.109  13.999 -0.4254 -0.9636 -0.2213
 6197TIP3   OH240005   3.426   1.399   4.228  0.1605 -0.0987 -0.2653
 6197TIP3    H140006   3.421   1.411   4.133 -0.6437  0.6554 -0.1333
 6197TIP3    H240007   3.336   1.386   4.256  0.4813 -1.2636  0.2923
 6198TIP3   OH240008   5.551   6.178  14.534  0.2951  0.1523 -0.2365
 6198TIP3    H140009   5.525   6.111  14.470  0.9749  0.2925 -0.6715
 6198TIP3    H240010   5.588   6.249  14.480 -0.9064  1.1348  0.1596
 6199TIP3   OH240011   1.507   0.457  17.195 -0.1729  0.0663  0.3114
 6199TIP3    H140012   1.530   0.462  17.288 -0.9654 -0.6168  0.5474
 6199TIP3    H240013   1.412   0.466  17.193 -0.1106  0.6601 -0.4858
 6200TIP3   OH240014   0.219   4.382   0.551  0.3063  0.0041 -0.3682
 6200TIP3    H140015   0.193   4.344   0.635 -0.4564 -0.5184 -0.8256
 6200TIP3    H240016   0.244   4.472   0.572  1.0536 -0.4136  0.5603
 6201TIP3   OH240017   6.232   6.751  16.131 -0.5917 -0.3973 -0.3505
 6201TIP3    H140018   6.191   6.675  16.091 -2.0319 -0.3695  0.9681
 6201TIP3    H240019   6.159   6.806  16.158  0.4007  1.0176 -0.4051
 6202TIP3   OH240020   0.778   2.387   0.496  0.4064  0.1375 -0.2547
 6202TIP3    H140021   0.725   2.463   0.521  2.2973  1.6778 -0.6850
 6202TIP3    H240022   0.771   2.383   0.401  1.2030  0.5152 -0.3425
 6203TIP3   OH240023   2.820   2.518   4.629 -0.0544  0.3406  0.0879
 6203TIP3    H140024   2.837   2.612   4.625 -0.6019  0.4732  0.6437
 6203TIP3    H240025   2.746   2.504   4.570  0.4914  0.1327 -0.5619
 6204TIP3   OH240026   0.153   2.315  16.265  0.9079  0.2848 -0.0165
 6204TIP3    H140027   0.215   2.386  16.282  0.3651  0.5063  1.0937
 6204TIP3    H240028   0.068   2.350  16.291  0.8623 -1.3711  2.4401
 6205TIP3   OH240029   4.257   4.619  11.660 -0.9272 -0.2680 -0.1305
 6205TIP3    H140030   4.280   4.640  11.570  0.9389 -0.7111  0.2020
 6205TIP3    H240031   4.308   4.679  11.713 -2.6456  0.5676  0.6636
 6206TIP3   OH240032   0.188   4.689   3.311 -0.2649 -0.1588  0.3109
 6206TIP3    H140033   0.200   4.690   3.406 -1.1613 -0.0915  0.4339
 6206TIP3    H240034   0.196   4.781   3.286  2.7171 -0.4266 -0.0845
 6207TIP3   OH240035   0.792   5.104  12.322 -0.2733 -0.2315  0.2808
 6207TIP3    H140036   0.887   5.116  12.316 -0.2180 -1.0191 -0.8242
 6207TIP3    H240037   0.768   5.138  12.408  1.0360 -0.1695  0.6341
 6208TIP3   OH240038   1.930   3.209   1.863 -0.5067 -0.0726  1.3051
 6208TIP3    H140039   1.894   3.125   1.836  0.9563  0.2816 -2.2970
 6208TIP3    H240040   1.900   3.271   1.797  0.3343  1.7762  2.5652
 6209TIP3   OH240041   0.804   1.944   1.614 -0.4817 -0.5858  0.2091
 6209TIP3    H140042   0.745   1.944   1.689  0.8026  0.4826  1.2751
 6209TIP3    H240043   0.857   1.865   1.625 -0.0537 -0.2429  0.6401
 6210TIP3   OH240044   0.656   1.197  13.490  0.3498 -0.1086  0.6615
 6210TIP3    H140045   0.710   1.254  13.545  0.1131  0.1263  0.6514
 6210TIP3    H240046   0.652   1.243  13.406  1.9910 -1.2007 -0.0577
 6211TIP3   OH240047   5.695   5.328  11.970 -0.5440 -0.4919 -0.9666
 6211TIP3    H140048   5.626   5.391  11.992 -0.4268 -0.2815 -1.1935
 6211TIP3    H240049   5.648   5.256  11.928 -0.4794  0.3597 -2.6064
 6212TIP3   OH240050   2.457   4.498   1.284  0.2369 -0.1392  0.0978
 6212TIP3    H140051   2.468   4.533   1.373  1.7069  3.7200 -1.4185
 6212TIP3    H240052   2.539   4.451   1.267  0.4098  0.0572  0.3735
 6213TIP3   OH240053   2.722   1.945  13.709  0.6629  0.3576  0.3341
 6213TIP3    H140054   2.712   1.861  13.754 -1.0709  0.5827  0.4271
 6213TIP3    H240055   2.771   1.923  13.629  0.1376 -0.7736  0.2982
 6214TIP3   OH240056   3.736   0.031  11.183 -0.4430  0.2160  0.3020
 6214TIP3    H140057   3.695  -0.041  11.136  0.8133 -1.2365  1.3135
 6214TIP3    H240058   3.745   0.100  11.118  2.3781 -2.1176 -2.0844
 6215TIP3   OH240059   0.349   5.831   1.795 -0.0425 -0.2714 -0.3021
 6215TIP3    H140060   0.330   5.738   1.779  1.4984 -0.3304 -2.1610
 6215TIP3    H240061   0.418   5.831   1.861 -0.3145 -0.4204 -0.0155
 6216TIP3   OH240062   4.677   2.589  13.654 -0.0684  0.6417  0.2896
 6216TIP3    H140063   4.649   2.667  13.703  0.9049  0.8956  0.4683
 6216TIP3    H240064   4.683   2.620  13.563 -1.2814  0.3303  0.0887
 6217TIP3   OH240065   4.891   4.905  13.487 -0.5547  0.2344 -0.1485
 6217TIP3    H140066   4.799   4.929  13.482 -1.1526 -1.5820  1.0526
 6217TIP3    H240067   4.896   4.844  13.561  0.8926 -2.6639 -2.4188
 6218TIP3   OH240068   2.408   2.215   0.377 -0.1299  0.5277  0.1701
 6218TIP3    H140069   2.483   2.173   0.420 -0.6922 -0.5003  0.1900
 6218TIP3    H240070   2.336   2.203   0.438 -0.0769  2.5854  0.7028
 6219TIP3   OH240071   0.149   5.389   5.104  0.3398 -0.0751  0.0890
 6219TIP3    H140072   0.202   5.343   5.169 -0.4257  0.3881  1.0765
 6219TIP3    H240073   0.059   5.376   5.134 -0.1112 -0.7967 -1.5145
 6220TIP3   OH240074   0.765   2.945   1.695  0.3740 -0.0540  0.3906
 6220TIP3    H140075   0.775   2.980   1.784 -1.4727  0.0345  0.5997
 6220TIP3    H240076   0.795   2.854   1.702 -1.2009 -0.5304  1.5242
 6221TIP3   OH240077   2.663   6.630   3.034 -0.6916  1.0285  0.4658
 6221TIP3    H140078   2.637   6.688   2.962  0.6253  0.1306 -0.7797
 6221TIP3    H240079   2.699   6.689   3.100 -1.5642  1.8328  0.2473
 6222TIP3   OH240080   2.459   4.173   6.400 -0.8608 -0.9510 -0.0173
 6222TIP3    H140081   2.521   4.121   6.349  0.2217 -0.9858  1.2932
 6222TIP3    H240082   2.510   4.248   6.431 -1.4581 -0.9832  1.0938
 6223TIP3   OH240083   3.221   6.560  17.061 -0.5377 -0.2775  0.2492
 6223TIP3    H140084   3.173   6.489  17.019 -0.0523  0.1358 -1.0699
 6223TIP3    H240085   3.292   6.580  17.000  0.5280 -0.0056  1.5411
 6224TIP3   OH240086   3.482   4.892   0.706  0.1383 -0.4851  0.5776
 6224TIP3    H140087   3.547   4.957   0.679  0.0539  0.1464  1.8220
 6224TIP3    H240088   3.528   4.808   0.704  0.0786 -0.5275 -1.6832
 6225TIP3   OH240089   6.356   0.299   2.487  0.2913 -0.0149  0.9140
 6225TIP3    H140090   6.382   0.344   2.407 -0.1856  1.9248  1.7914
 6225TIP3    H240091   6.404   0.216   2.485  1.1509  0.4851 -0.8070
 6226TIP3   OH240092   3.874   0.249  11.618 -0.5668  0.1518 -0.1089
 6226TIP3    H140093   3.816   0.254  11.694  0.7418  0.3068  0.9119
 6226TIP3    H240094   3.923   0.331  11.619  0.3469 -0.3729 -0.3761
 6227TIP3   OH240095   6.247   0.148   3.524  0.4316  0.5589 -0.3380
 6227TIP3    H140096   6.199   0.224   3.491 -0.5986  0.0060 -0.1347
 6227TIP3    H240097   6.199   0.120   3.602 -0.1208 -1.2321 -1.2648
 6228TIP3   OH240098   0.762   3.608  11.677 -0.2251 -0.5142 -0.1884
 6228TIP3    H140099   0.757   3.701  11.655 -0.0280 -0.7319 -1.1991
 6228TIP3    H240100   0.801   3.606  11.765 -0.1641  0.3552 -0.1898
 6229TIP3   OH240101   4.273   6.140   4.395  0.0854  0.4244 -0.1604
 6229TIP3    H140102   4.349   6.164   4.342  0.9302  1.2502  1.3808
 6229TIP3    H240103   4.251   6.219   4.444 -0.1364 -0.5440  1.3690
 6230TIP3   OH240104   4.974   4.162   1.734  0.1359 -0.3067  0.0936
 6230TIP3    H140105   4.889   4.121   1.717  0.1287  0.1913 -1.1714
 6230TIP3    H240106   4.953   4.240   1.785 -0.3961  0.8092 -1.7516
 6231TIP3   OH240107   2.853   5.358   2.563 -0.4817  0.5705  0.6789
 6231TIP3    H140108   2.862   5.292   2.632  3.5484 -0.2993 -0.3666
 6231TIP3    H240109   2.858   5.308   2.481  1.6908  1.9695 -0.1370
 6232TIP3   OH240110   6.525   4.656  17.202 -0.4470  0.7281 -0.6551
 6232TIP3    H140111   6.441   4.613  17.219 -0.4400  0.9711  0.0316
 6232TIP3    H240112   6.588   4.585  17.197 -0.7042  0.5384 -1.2417
 6233TIP3   OH240113   6.192   4.625  15.126  0.8036 -0.3185 -0.1042
 6233TIP3    H140114   6.135   4.701  15.113 -0.0732 -1.1024 -0.9249
 6233TIP3    H240115   6.258   4.633  15.056  1.7182  0.5701  0.8263
 6234TIP3   OH240116   1.686   5.604   4.272 -0.0471 -0.0348  0.9214
 6234TIP3    H140117   1.626   5.643   4.335 -0.5792  0.4270  0.1596
 6234TIP3    H240118   1.718   5.524   4.314  1.0266  1.1763  2.4971
 6235TIP3   OH240119   2.812   2.412  12.427 -0.3525  0.1741  0.3924
 6235TIP3    H140120   2.776   2.497  12.454  0.3888  0.3948  0.7181
 6235TIP3    H240121   2.870   2.432  12.354 -1.2998 -0.2549 -0.5076
 6236TIP3   OH240122   5.530   3.746   6.030  0.0675  0.1822  0.5685
 6236TIP3    H140123   5.467   3.793   6.084 -0.0974 -0.2026  0.7188
 6236TIP3    H240124   5.549   3.666   6.080  1.2178  0.6237  0.8616
 6237TIP3   OH240125   1.530   1.649   4.106 -0.1798 -0.0298  0.5228
 6237TIP3    H140126   1.465   1.654   4.037  2.1180  0.1362 -1.7695
 6237TIP3    H240127   1.566   1.738   4.112  2.1547 -0.8016 -0.7554
 6238TIP3   OH240128   2.951   6.343  12.096 -0.5235 -0.3780  0.3927
 6238TIP3    H140129   2.887   6.396  12.049 -0.2848 -1.3051 -1.0432
 6238TIP3    H240130   2.941   6.255  12.059  1.7886 -0.4813 -0.1576
 6239TIP3   OH240131   3.582   3.805   2.338  0.5420 -0.3535 -0.4670
 6239TIP3    H140132   3.505   3.797   2.282 -0.5419 -0.2429  0.9595
 6239TIP3    H240133   3.649   3.751   2.295 -0.8068 -1.7283 -0.9296
 6240TIP3   OH240134   2.298   6.487   3.814 -0.4993 -0.2577  0.2172
 6240TIP3    H140135   2.245   6.454   3.886 -1.1027 -0.2791 -0.2277
 6240TIP3    H240136   2.234   6.523   3.752 -0.0442 -0.9352 -0.6617
 6241TIP3   OH240137   5.488   3.437  15.572 -0.5841  0.1364  0.0287
 6241TIP3    H140138   5.427   3.370  15.541 -1.0613  0.2163  0.7402
 6241TIP3    H240139   5.506   3.491  15.495  0.3587 -1.1985 -0.7183
 6242TIP3   OH240140   4.808   4.025   5.187  0.8637 -0.1039  0.0606
 6242TIP3    H140141   4.791   3.933   5.167  0.5862  0.1773 -1.0441
 6242TIP3    H240142   4.902   4.036   5.172  0.9279 -0.2477  0.3604
 6243TIP3   OH240143   2.558   6.179  16.801 -0.1563  0.2108  0.2643
 6243TIP3    H140144   2.536   6.272  16.804  0.7292  0.4329 -0.0081
 6243TIP3    H240145   2.635   6.174  16.744  0.7767 -0.4914  1.5442
 6244TIP3   OH240146   5.110   6.372  12.181 -0.7087 -0.3952  0.1545
 6244TIP3    H140147   5.091   6.465  12.194 -2.8703 -1.0625  2.6312
 6244TIP3    H240148   5.188   6.356  12.234 -0.0822  0.0620 -0.6124
 6245TIP3   OH240149   6.487   1.354   0.399  0.0629 -0.5473 -0.3437
 6245TIP3    H140150   6.432   1.340   0.322 -0.1258  0.5879 -0.4319
 6245TIP3    H240151   6.426   1.348   0.473 -0.4183  1.6040 -0.4861
 6246TIP3   OH240152   1.279   1.997   0.900 -0.0406  0.3467  0.0677
 6246TIP3    H140153   1.215   1.972   0.966 -0.8751 -2.2167 -1.5755
 6246TIP3    H240154   1.236   2.066   0.850 -2.0719 -1.9313 -1.5789
 6247TIP3   OH240155   0.612   6.491   5.934 -0.1744 -0.2775 -0.0576
 6247TIP3    H140156   0.685   6.430   5.929 -0.0036  0.0063 -1.2719
 6247TIP3    H240157   0.647   6.566   5.983  0.8502  0.4950 -1.8815
 6248TIP3   OH240158   6.641   5.523  15.646  0.2233  0.8362  0.7795
 6248TIP3    H140159   6.584   5.540  15.571  1.8459 -0.1780 -0.7564
 6248TIP3    H240160   6.605   5.444  15.686  0.5674  0.1625 -0.2150
 6249TIP3   OH240161   0.521   0.141   2.834 -0.1404 -0.0722  0.4964
 6249TIP3    H140162   0.533   0.176   2.746 -1.1333 -3.0196 -0.9508
 6249TIP3    H240163   0.581   0.066   2.838 -1.4849 -1.1462  1.5503
 6250TIP3   OH240164   6.104   6.679   5.076  0.1763  0.1171  0.3781
 6250TIP3    H140165   6.195   6.651   5.063  0.5087  2.2560 -3.3028
 6250TIP3    H240166   6.055   6.597   5.082  1.9849 -1.1678 -1.0395
 6251TIP3   OH240167   2.622   0.756  15.539  0.7643 -0.2637  0.3136
 6251TIP3    H140168   2.610   0.851  15.527  4.0777  0.2198 -0.0365
 6251TIP3    H240169   2.708   0.738  15.502 -0.3658 -3.7542 -1.0384
 6252TIP3   OH240170   3.803   1.272   5.712 -0.4538 -0.1464 -0.5717
 6252TIP3    H140171   3.760   1.215   5.648 -2.3078 -1.2347  1.5264
 6252TIP3    H240172   3.736   1.290   5.778  1.3024  1.0917  0.9933
 6253TIP3   OH240173   0.778   6.384   4.161  0.7420  0.5213  0.2994
 6253TIP3    H140174   0.737   6.424   4.085  0.6936 -0.1968 -0.0614
 6253TIP3    H240175   0.861   6.431   4.170  1.6954 -0.7198 -1.4452
 6254TIP3   OH240176   4.280   1.539  11.794 -0.3609 -0.6315 -0.5576
 6254TIP3    H140177   4.344   1.610  11.800  0.1900 -1.1718  0.2380
 6254TIP3    H240178   4.233   1.555  11.713  0.4403  0.0755 -0.8947
 6255TIP3   OH240179   1.292   1.239   5.782  0.0112 -0.2252 -0.4813
 6255TIP3    H140180   1.328   1.266   5.866 -0.8267  0.7170 -0.4176
 6255TIP3    H240181   1.214   1.187   5.805 -0.1734 -0.0330 -0.6708
 6256TIP3   OH240182   5.106   0.085   3.404  0.4527  0.0971  0.0348
 6256TIP3    H140183   5.102   0.099   3.309 -0.9707 -3.6476 -0.6366
 6256TIP3    H240184   5.193   0.048   3.419 -0.0911 -1.3478 -0.2335
 6257TIP3   OH240185   3.220   0.862  11.304 -0.0346 -0.5239  0.7212
 6257TIP3    H140186   3.167   0.896  11.231  2.4420  1.9309 -0.0952
 6257TIP3    H240187   3.164   0.795  11.344 -3.5157  1.4318 -0.3728
 6258TIP3   OH240188   5.384   1.006   0.952 -0.5379  0.5523 -0.3530
 6258TIP3    H140189   5.320   0.980   0.885  0.5560 -0.1578 -1.1514
 6258TIP3    H240190   5.394   1.100   0.939  0.5928  0.2412 -2.0768
 6259TIP3   OH240191   2.705   4.420   2.724 -0.3127 -0.0756 -0.1593
 6259TIP3    H140192   2.642   4.350   2.703 -0.8669  0.4677 -0.3314
 6259TIP3    H240193   2.740   4.446   2.639  0.1118 -0.3384 -0.0680
 6260TIP3   OH240194   6.731   1.418   0.631  0.3064  0.0239 -0.2234
 6260TIP3    H140195   6.660   1.465   0.676 -0.4953 -1.7026  0.4370
 6260TIP3    H240196   6.733   1.455   0.543 -3.3863 -1.6739 -1.2217
 6261TIP3   OH240197   1.582   3.592  14.149 -0.2672 -0.2925  0.6894
 6261TIP3    H140198   1.503   3.563  14.194 -0.1809 -1.7107 -0.0465
 6261TIP3    H240199   1.645   3.521  14.162 -0.6252 -1.3968 -2.6848
 6262TIP3   OH240200   2.994   4.717   3.897  0.7572  0.2786  0.0446
 6262TIP3    H140201   2.901   4.697   3.901  1.1215 -1.3334  2.1915
 6262TIP3    H240202   3.033   4.640   3.854  1.3086 -0.0537  1.1116
 6263TIP3   OH240203   5.524   4.771   1.103  0.0035  0.0128 -0.4691
 6263TIP3    H140204   5.543   4.734   1.017  1.2930  0.8930 -0.5841
 6263TIP3    H240205   5.495   4.860   1.085 -1.6492 -0.4043 -0.0888
 6264TIP3   OH240206   1.109   2.832   2.816  0.2019 -0.2996 -0.1254
 6264TIP3    H140207   1.087   2.902   2.877 -1.4722  0.2063 -1.2297
 6264TIP3    H240208   1.204   2.839   2.804  0.4076  0.2084  1.6161
 6265TIP3   OH240209   3.692   2.086   5.327 -0.1328  0.1053  0.1864
 6265TIP3    H140210   3.641   2.017   5.285  0.5382 -0.2563 -0.0587
 6265TIP3    H240211   3.773   2.090   5.276  1.3166 -1.3000  2.2165
 6266TIP3   OH240212   2.033   3.451   0.989  0.6585  0.2887 -0.0952
 6266TIP3    H140213   2.011   3.437   0.897 -1.8358  0.8925  0.3350
 6266TIP3    H240214   2.039   3.547   0.998 -1.4692  0.4081  0.7657
 6267TIP3   OH240215   2.961   5.670  12.800 -0.4274 -0.0838  0.1378
 6267TIP3    H140216   2.962   5.574  12.792  0.0399  0.0269 -1.7748
 6267TIP3    H240217   2.868   5.693  12.796 -0.5369 -0.4492  0.4868
 6268TIP3   OH240218   6.660   5.508   4.456  0.9658 -0.0236  0.1005
 6268TIP3    H140219   6.691   5.590   4.419 -0.5605  0.8165  0.5567
 6268TIP3    H240220   6.619   5.462   4.383  0.7947  0.1639  0.0773
 6269TIP3   OH240221   6.666   0.245  15.369  0.0136 -0.1645  0.4192
 6269TIP3    H140222   6.634   0.327  15.408 -0.3101 -1.1149  2.2587
 6269TIP3    H240223   6.612   0.232  15.291  0.6778  1.8083 -0.4339
 6270TIP3   OH240224   3.372   2.634   5.572 -0.6352  0.7419 -0.3172
 6270TIP3    H140225   3.397   2.681   5.651 -0.5900  0.3418 -0.0923
 6270TIP3    H240226   3.359   2.703   5.506  0.0286  1.0295 -0.1556
 6271TIP3   OH240227   0.371   3.828  15.286  0.3254 -0.2172 -0.0238
 6271TIP3    H140228   0.363   3.866  15.373  0.7984  0.1198 -0.1236
 6271TIP3    H240229   0.281   3.810  15.259  0.1934 -0.5153  0.6148
 6272TIP3   OH240230   5.323   0.999   2.489  0.2399 -0.4562 -0.8160
 6272TIP3    H140231   5.259   0.954   2.434 -1.8515  0.3967  0.7937
 6272TIP3    H240232   5.297   1.091   2.487  0.1231 -0.3833  1.4804
 6273TIP3   OH240233   6.139   5.459  15.819 -0.3328 -0.6318  0.2518
 6273TIP3    H140234   6.144   5.551  15.847  1.7559 -0.5044 -0.3895
 6273TIP3    H240235   6.132   5.410  15.900 -0.3944  0.0395  0.6648
 6274TIP3   OH240236   2.384   6.436  11.802  0.3539  0.1340 -0.6310
 6274TIP3    H140237   2.364   6.460  11.893 -0.2007  2.3847 -1.2727
 6274TIP3    H240238   2.369   6.517  11.753 -0.6473 -1.3433 -2.9318
 6275TIP3   OH240239   3.292   0.186   0.792 -0.4235  0.0685 -0.0638
 6275TIP3    H140240   3.235   0.259   0.768 -1.1010  0.0188  1.2732
 6275TIP3    H240241   3.365   0.228   0.838 -0.5939 -0.0512  0.3207
 6276TIP3   OH240242   5.146   2.667   4.912  0.0786  0.4114 -0.6472
 6276TIP3    H140243   5.142   2.599   4.979 -1.6290  0.5459 -0.5633
 6276TIP3    H240244   5.163   2.621   4.831 -0.7265 -0.0941 -0.5377
 6277TIP3   OH240245   0.390   3.332   0.465 -0.8820 -0.1821 -0.5602
 6277TIP3    H140246   0.344   3.317   0.548  0.7131  0.8072  0.5760
 6277TIP3    H240247   0.474   3.287   0.476 -0.0122  1.2702 -0.9763
 6278TIP3   OH240248   1.793   5.261   0.448  0.5253  0.8677  0.0343
 6278TIP3    H140249   1.851   5.325   0.406 -0.8499  1.5903 -0.8496
 6278TIP3    H240250   1.731   5.237   0.380 -0.5946  0.5899  1.1182
 6279TIP3   OH240251   3.468   1.687   1.745 -0.1930 -0.4895 -0.6704
 6279TIP3    H140252   3.527   1.761   1.758 -2.3023  0.8597  2.1212
 6279TIP3    H240253   3.525   1.610   1.745  1.8189  0.9209 -1.3247
 6280TIP3   OH240254   3.153   1.415   6.500  0.7388  0.4021 -0.3575
 6280TIP3    H140255   3.194   1.349   6.443 -1.1265 -0.7479 -0.4489
 6280TIP3    H240256   3.187   1.396   6.587  0.1115 -0.8071 -0.3601
 6281TIP3   OH240257   4.750   5.782  11.763 -0.3090  0.4980 -0.2363
 6281TIP3    H140258   4.821   5.833  11.725  0.3579  0.3352  0.7379
 6281TIP3    H240259   4.753   5.698  11.717 -0.8783  1.0180 -1.2627
 6282TIP3   OH240260   6.715   3.139  12.800 -0.5893  0.0643  0.3373
 6282TIP3    H140261   6.679   3.227  12.793 -2.2058 -0.5205  0.7741
 6282TIP3    H240262   6.652   3.091  12.854  0.2539 -1.3628  0.1295
 6283TIP3   OH240263   5.028   5.543   2.174 -0.0696 -0.0865  0.1373
 6283TIP3    H140264   5.022   5.489   2.252 -1.0714 -0.9386 -0.5072
 6283TIP3    H240265   5.033   5.480   2.101  0.5293  0.6868 -0.5122
 6284TIP3   OH240266   6.097   1.700  13.493  0.7649  0.0252 -0.2293
 6284TIP3    H140267   6.042   1.725  13.418 -0.6983 -1.3355  0.3221
 6284TIP3    H240268   6.133   1.782  13.525  0.4746  0.7735 -1.6984
 6285TIP3   OH240269   0.863   6.083  15.855  0.0638  0.3317  0.1859
 6285TIP3    H140270   0.805   6.011  15.879 -0.5170  0.6875 -0.1338
 6285TIP3    H240271   0.936   6.040  15.810  0.0089 -0.1121  0.5117
 6286TIP3   OH240272   4.870   0.985  13.370 -0.2232 -0.3747 -0.1418
 6286TIP3    H140273   4.856   1.023  13.283  0.4400  1.0672  0.3478
 6286TIP3    H240274   4.805   1.028  13.425 -0.7708 -1.4273  0.0678
 6287TIP3   OH240275   1.503   1.041   6.477 -0.2372 -0.1291 -0.9424
 6287TIP3    H140276   1.482   0.950   6.456 -2.1540 -0.5983  2.4439
 6287TIP3    H240277   1.584   1.035   6.529 -0.2456  0.1402 -0.8999
 6288TIP3   OH240278   3.099   6.252   3.089 -0.0999  0.3895  0.6153
 6288TIP3    H140279   3.079   6.338   3.053  0.4742 -0.0749 -0.8570
 6288TIP3    H240280   3.015   6.206   3.088 -0.0782  0.3586 -0.2040
 6289TIP3   OH240281   3.571   2.286  13.276  0.8290  0.4358 -0.0926
 6289TIP3    H140282   3.504   2.220  13.259  0.0868  1.2622 -0.4806
 6289TIP3    H240283   3.560   2.308  13.368  0.2853  0.8455 -0.2459
 6290TIP3   OH240284   4.826   0.606  15.513 -0.3663  0.3627  0.2418
 6290TIP3    H140285   4.884   0.552  15.459 -1.6384  0.4281 -1.2827
 6290TIP3    H240286   4.868   0.608  15.599  1.0038 -0.9579 -0.3412
 6291TIP3   OH240287   5.455   2.791   3.060  0.2337  0.0623  0.3445
 6291TIP3    H140288   5.395   2.864   3.050  0.5351  0.2995  0.2273
 6291TIP3    H240289   5.518   2.820   3.126  0.8187  0.2298 -0.2710
 6292TIP3   OH240290   5.121   3.058   0.226  0.0183 -0.3339 -0.0630
 6292TIP3    H140291   5.101   3.143   0.264 -0.2667 -0.8980  1.0706
 6292TIP3    H240292   5.046   3.040   0.169 -0.3538 -0.2216  0.3799
 6293TIP3   OH240293   2.103   3.937   4.829 -0.4504 -0.1541  0.0225
 6293TIP3    H140294   2.020   3.914   4.869 -0.8675  0.2022 -0.6283
 6293TIP3    H240295   2.135   3.856   4.789  0.1431 -0.6078  1.3380
 6294TIP3   OH240296   3.385   5.498  17.141 -0.3896  0.0688  0.0971
 6294TIP3    H140297   3.342   5.419  17.171 -0.6776  0.2631  0.1943
 6294TIP3    H240298   3.314   5.557  17.115 -0.2077  0.5681  0.7075
 6295TIP3   OH240299   4.976   1.759  15.374  0.2547  0.1632 -0.9779
 6295TIP3    H140300   5.031   1.836  15.357  0.2331  0.6198  0.7744
 6295TIP3    H240301   5.037   1.686  15.373  0.1454  0.0457 -3.5034
 6296TIP3   OH240302   1.562   3.413  16.911 -0.3914 -0.1297 -0.0703
 6296TIP3    H140303   1.503   3.347  16.876 -0.4515 -0.9471  1.5104
 6296TIP3    H240304   1.598   3.374  16.991  0.7836  1.1247  0.0513
 6297TIP3   OH240305   5.214   4.856  11.224 -0.3346  0.1061 -0.0164
 6297TIP3    H140306   5.179   4.768  11.213 -1.5002  0.6161 -0.4947
 6297TIP3    H240307   5.306   4.842  11.248 -0.5895 -1.2383  0.2585
 6298TIP3   OH240308   1.426   3.531   3.949  0.5173 -0.2691 -0.0593
 6298TIP3    H140309   1.475   3.449   3.955  0.9194  0.0239  0.7688
 6298TIP3    H240310   1.470   3.590   4.011 -1.3528 -0.2387  1.3152
 6299TIP3   OH240311   5.562   4.608  16.007  0.0973  0.5211  0.0396
 6299TIP3    H140312   5.648   4.626  16.045  0.7223 -1.3135 -0.4346
 6299TIP3    H240313   5.541   4.688  15.958  0.7230  1.6703  1.5247
 6300TIP3   OH240314   2.734   5.813  17.144  0.2778  0.0465  0.0635
 6300TIP3    H140315   2.751   5.738  17.088  2.1523 -0.7655  1.5985
 6300TIP3    H240316   2.747   5.889  17.087  0.5825 -0.7628 -0.9766
 6301TIP3   OH240317   4.203   2.711   5.858 -0.3153 -0.2172  0.5336
 6301TIP3    H140318   4.228   2.686   5.947  0.1496 -0.3821  0.3562
 6301TIP3    H240319   4.285   2.713   5.809 -0.4882  0.5010  0.2578
 6302TIP3   OH240320   5.740   2.049  12.040  0.5170 -0.0038  0.1110
 6302TIP3    H140321   5.690   2.029  11.961 -0.4264 -1.8544  1.1306
 6302TIP3    H240322   5.709   2.136  12.066 -0.4092 -0.1051 -0.6035
 6303TIP3   OH240323   6.590   4.509   3.699 -0.3927  0.8020 -0.6492
 6303TIP3    H140324   6.629   4.539   3.617 -0.2651 -2.7097 -2.0669
 6303TIP3    H240325   6.497   4.527   3.690 -0.2680  1.2039 -1.2012
 6304TIP3   OH240326   5.165   1.603   6.330 -0.1074  0.8411 -0.1877
 6304TIP3    H140327   5.097   1.562   6.382  0.6797 -0.2718 -0.0150
 6304TIP3    H240328   5.194   1.678   6.383  1.9433 -1.2691  1.9434
 6305TIP3   OH240329   1.447   2.958  16.771  0.2092  0.0462 -0.4080
 6305TIP3    H140330   1.513   2.933  16.836  1.2562 -1.2744 -1.9043
 6305TIP3    H240331   1.443   2.883  16.712 -1.6666  0.6782 -1.1324
 6306TIP3   OH240332   3.908   4.056  15.667  1.1369 -0.1188 -0.5552
 6306TIP3    H140333   3.885   4.048  15.760 -0.8373 -3.2675 -1.1433
 6306TIP3    H240334   3.838   4.110  15.630  0.6394 -0.7400 -0.5448
 6307TIP3   OH240335   6.472   2.072   5.268 -0.5898 -0.1637  0.2779
 6307TIP3    H140336   6.538   2.004   5.249 -1.4517 -0.9000 -0.1809
 6307TIP3    H240337   6.480   2.133   5.195  0.3444  0.3721  0.8060
 6308TIP3   OH240338   4.671   1.420  12.891 -0.3564 -0.4603 -0.2336
 6308TIP3    H140339   4.600   1.404  12.952 -0.9440  2.7329  0.0965
 6308TIP3    H240340   4.723   1.490  12.931  0.8863 -0.2269 -2.0933
 6309TIP3   OH240341   4.450   3.078   2.469  0.1477  0.0418  0.2700
 6309TIP3    H140342   4.480   3.069   2.378 -1.5413 -0.9498 -0.2299
 6309TIP3    H240343   4.482   3.000   2.513 -3.0289 -2.0415 -0.7309
 6310TIP3   OH240344   3.662   2.859  11.647 -0.0199  0.2280  0.5271
 6310TIP3    H140345   3.606   2.924  11.604  0.1409  0.7305  1.0548
 6310TIP3    H240346   3.692   2.903  11.726 -0.5521 -0.7790  1.3114
 6311TIP3   OH240347   5.709   1.843   2.489  0.0906  0.3406 -0.1595
 6311TIP3    H140348   5.693   1.750   2.477  0.5701  0.3729 -1.1813
 6311TIP3    H240349   5.776   1.864   2.424 -0.4585  1.5170 -0.3751
 6312TIP3   OH240350   5.573   2.509  14.831 -0.0897  0.0717  0.1486
 6312TIP3    H140351   5.519   2.490  14.908 -0.5437  0.9086  0.0504
 6312TIP3    H240352   5.519   2.569  14.779  0.4009 -0.1264 -0.5983
 6313TIP3   OH240353   3.706   3.660   1.536 -0.2496 -0.2253 -0.0266
 6313TIP3    H140354   3.668   3.730   1.590  0.9163  0.8480 -0.5356
 6313TIP3    H240355   3.768   3.616   1.594 -1.4531 -1.3306  0.4983
 6314TIP3   OH240356   5.665   3.086  17.028 -0.3691 -0.3736 -0.2522
 6314TIP3    H140357   5.598   3.141  17.069 -0.2491  0.2806 -0.9328
 6314TIP3    H240358   5.692   3.134  16.950 -1.4296 -2.1180 -1.7704
 6315TIP3   OH240359   1.374   1.458  14.341 -0.7266 -0.2077  0.0691
 6315TIP3    H140360   1.319   1.491  14.412  0.2066  2.4687 -0.3249
 6315TIP3    H240361   1.461   1.450  14.380 -0.1692  1.4396 -0.7343
 6316TIP3   OH240362   5.311   3.174  14.828 -0.5316  0.5865  0.4904
 6316TIP3    H140363   5.296   3.170  14.734 -0.6510 -3.5126  0.5209
 6316TIP3    H240364   5.243   3.233  14.860 -1.3464  1.0385 -1.8410
 6317TIP3   OH240365   0.955   4.230   3.375  0.6952 -1.0647  0.2984
 6317TIP3    H140366   0.915   4.177   3.305  0.9892 -0.3725 -0.4122
 6317TIP3    H240367   0.883   4.248   3.435  0.2618 -1.0571 -0.2105
 6318TIP3   OH240368   4.891   2.396  12.793  0.2787  0.1865 -0.2976
 6318TIP3    H140369   4.799   2.418  12.773 -0.4859 -0.5484  2.0986
 6318TIP3    H240370   4.894   2.390  12.888  2.4104 -1.7036 -0.4129
 6319TIP3   OH240371   3.947   6.261  13.565 -0.4681  0.6740  0.4629
 6319TIP3    H140372   4.018   6.234  13.623  0.0216 -4.9227 -2.0746
 6319TIP3    H240373   3.990   6.309  13.495  0.1509  0.7499  0.8901
 6320TIP3   OH240374   0.593   6.669   1.016  0.0779 -0.6993  0.2689
 6320TIP3    H140375   0.607   6.602   1.083  0.2617  0.0381  0.9679
 6320TIP3    H240376   0.607   6.752   1.061  0.7596 -0.2059 -0.8173
 6321TIP3   OH240377   1.747   3.102   5.640 -0.2076 -0.0669 -0.8126
 6321TIP3    H140378   1.823   3.062   5.596  0.6738  0.5756  0.0732
 6321TIP3    H240379   1.681   3.034   5.639  1.0090 -1.3113  0.0025
 6322TIP3   OH240380   5.189   1.778  13.531 -0.4043  1.0721  0.1883
 6322TIP3    H140381   5.190   1.857  13.585  0.7456  1.9001 -0.9826
 6322TIP3    H240382   5.273   1.778  13.486  0.3123 -1.6548  1.2732
 6323TIP3   OH240383   6.112   6.410   1.430 -0.2408 -0.2687 -0.5088
 6323TIP3    H140384   6.098   6.422   1.524 -0.0896 -0.3014 -0.4818
 6323TIP3    H240385   6.058   6.477   1.389  1.1165  0.9714 -0.3465
 6324TIP3   OH240386   2.039   3.062   4.055  0.1933 -0.4018  0.1444
 6324TIP3    H140387   1.971   3.015   4.103  1.6216 -1.7285  0.9629
 6324TIP3    H240388   2.008   3.065   3.965 -0.9293 -0.9937  0.5011
 6325TIP3   OH240389   5.498   5.740   2.407 -0.1179 -0.1987 -0.3632
 6325TIP3    H140390   5.517   5.754   2.500  1.2380  0.6732 -0.7393
 6325TIP3    H240391   5.580   5.759   2.363 -0.7802 -0.4659 -1.7680
 6326TIP3   OH240392   3.916   2.251   1.541  0.4543 -0.1099  0.2416
 6326TIP3    H140393   3.894   2.309   1.614  3.6820  2.2813 -0.4725
 6326TIP3    H240394   3.982   2.192   1.576 -0.1990 -1.0221 -0.0152
 6327TIP3   OH240395   6.335   1.216  13.904  0.0181 -0.0162  0.1605
 6327TIP3    H140396   6.372   1.215  13.993 -0.3021 -2.5006  0.3359
 6327TIP3    H240397   6.400   1.169  13.851 -0.1730  0.7526 -0.7784
 6328TIP3   OH240398   6.340   4.721   1.572 -0.3157  0.0613 -0.2432
 6328TIP3    H140399   6.298   4.670   1.502 -0.2057 -0.5172  0.1060
 6328TIP3    H240400   6.412   4.767   1.528 -0.2872 -0.2458 -0.5258
 6329TIP3   OH240401   5.975   0.914  12.872 -0.3176 -0.2682 -0.4138
 6329TIP3    H140402   6.056   0.959  12.848  0.4606 -1.5877 -0.3393
 6329TIP3    H240403   5.916   0.931  12.799  0.2099  0.2554 -0.7236
 6330TIP3   OH240404   5.221   3.047  13.240 -0.4743 -0.0899  0.1256
 6330TIP3    H140405   5.273   2.971  13.266 -0.9678 -1.8759 -3.4291
 6330TIP3    H240406   5.161   3.062  13.313  1.7127 -1.0576  2.2484
 6331TIP3   OH240407   3.737   3.604  12.887  0.1316 -0.0375  0.6800
 6331TIP3    H140408   3.827   3.572  12.879  0.9685  2.1883  0.3921
 6331TIP3    H240409   3.747   3.697  12.909 -2.1075  0.2981  0.4950
 6332TIP3   OH240410   4.018   3.870   4.555 -0.3553 -0.5104 -0.3481
 6332TIP3    H140411   4.071   3.791   4.566 -0.8610 -1.0668 -1.6913
 6332TIP3    H240412   4.055   3.913   4.478 -0.9935 -0.1952 -0.4843
 6333TIP3   OH240413   6.565   6.398  10.689  0.2667  0.1879  0.4233
 6333TIP3    H140414   6.588   6.372  10.600  1.9124  1.0866  0.5339
 6333TIP3    H240415   6.554   6.316  10.736 -0.9955 -0.3071 -0.6740
 6334TIP3   OH240416   6.471   1.356  15.847 -0.2633  0.0838  0.0728
 6334TIP3    H140417   6.388   1.372  15.802 -1.1566  0.9030  1.9161
 6334TIP3    H240418   6.480   1.260  15.847 -0.6041  0.0359 -1.1400
 6335TIP3   OH240419   4.143   4.747   5.220  0.3352  0.1965 -0.4981
 6335TIP3    H140420   4.067   4.797   5.191  1.1547  0.7400 -1.8042
 6335TIP3    H240421   4.209   4.813   5.241 -0.2076 -0.1582  2.8115
 6336TIP3   OH240422   1.210   5.849  12.511 -0.4276 -0.0333 -0.6054
 6336TIP3    H140423   1.197   5.832  12.604  1.4990 -3.0856 -0.7786
 6336TIP3    H240424   1.232   5.942  12.507  0.6979 -0.0979  2.1509
 6337TIP3   OH240425   1.387   4.387   4.159 -0.2945  0.3449  0.2020
 6337TIP3    H140426   1.460   4.412   4.102 -1.3736  1.5845 -0.6948
 6337TIP3    H240427   1.325   4.343   4.100 -1.3320  1.4569  0.4462
 6338TIP3   OH240428   0.430   4.353   2.834  0.2096  0.3310  0.8132
 6338TIP3    H140429   0.514   4.306   2.833 -0.7083 -1.5627 -2.6674
 6338TIP3    H240430   0.370   4.293   2.878  0.0958  0.5049  0.8963
 6339TIP3   OH240431   6.599   5.306  15.063  0.0464  0.1131 -0.0568
 6339TIP3    H140432   6.508   5.320  15.086  0.4985  0.3801  1.7429
 6339TIP3    H240433   6.635   5.393  15.050  0.0234  0.0038 -0.8726
 6340TIP3   OH240434   3.029   1.483   5.327  0.4382 -0.1183  0.1828
 6340TIP3    H140435   3.076   1.400   5.318  0.4728 -0.1974  1.0038
 6340TIP3    H240436   3.089   1.548   5.293  0.8404 -0.3134  0.5024
 6341TIP3   OH240437   0.145   5.568   5.360  0.2964  0.0736 -0.5203
 6341TIP3    H140438   0.058   5.589   5.326  0.5918  0.0266 -1.3436
 6341TIP3    H240439   0.197   5.646   5.340  1.1368 -0.9581 -2.6296
 6342TIP3   OH240440   2.696   3.601  11.912  0.3613  0.1255  0.2569
 6342TIP3    H140441   2.787   3.587  11.939  0.2191 -0.6030  0.3812
 6342TIP3    H240442   2.660   3.513  11.900 -1.1204  0.2684  2.8821
 6343TIP3   OH240443   1.275   5.804  14.267  0.2417  0.2138  0.1001
 6343TIP3    H140444   1.266   5.716  14.305 -0.5523  0.3884  0.3396
 6343TIP3    H240445   1.369   5.815  14.253  0.3098 -0.8852 -0.4291
 6344TIP3   OH240446   5.881   4.509   3.146 -0.6518  0.2405 -0.7000
 6344TIP3    H140447   5.871   4.604   3.153 -1.1258  0.0878  1.3782
 6344TIP3    H240448   5.941   4.497   3.073 -2.4923  1.9984 -2.6314
 6345TIP3   OH240449   5.062   6.380   0.792 -0.2118 -0.3057  0.1558
 6345TIP3    H140450   5.006   6.442   0.840 -0.1269 -0.1281  0.0278
 6345TIP3    H240451   5.001   6.313   0.760 -0.1460 -0.9471  1.3099
 6346TIP3   OH240452   5.957   5.715  15.046 -0.0221 -0.2816 -0.3556
 6346TIP3    H140453   5.904   5.712  14.967  0.6838  0.9009 -0.9070
 6346TIP3    H240454   5.902   5.760  15.111 -0.1394 -0.1223 -0.5643
 6347TIP3   OH240455   3.026   6.711   5.153 -0.4281  0.0009 -0.3590
 6347TIP3    H140456   2.961   6.734   5.220 -0.1779  0.2870 -0.2088
 6347TIP3    H240457   3.096   6.668   5.203 -0.1595  0.3756 -0.4086
 6348TIP3   OH240458   2.575   3.926  13.929  0.9947  0.0601 -0.2297
 6348TIP3    H140459   2.658   3.900  13.970  0.8314  0.1131  0.1367
 6348TIP3    H240460   2.567   3.868  13.853 -0.0772 -2.0390  1.3788
 6349TIP3   OH240461   5.581   2.246   3.833 -0.2528  0.0162  0.3881
 6349TIP3    H140462   5.569   2.170   3.775 -0.0483  0.8528 -0.7899
 6349TIP3    H240463   5.670   2.236   3.867 -0.7756 -1.0985  1.5181
 6350TIP3   OH240464   2.538   2.899  12.425 -0.2701  0.6070 -0.3832
 6350TIP3    H140465   2.445   2.892  12.403 -0.1861 -1.3612 -0.2388
 6350TIP3    H240466   2.547   2.988  12.459 -2.3197  0.5336  0.5366
 6351TIP3   OH240467   2.938   4.931   3.680  0.6315 -0.7074  0.1600
 6351TIP3    H140468   3.020   4.895   3.714  0.0171  1.9983  5.3350
 6351TIP3    H240469   2.879   4.931   3.754 -2.0356  3.1818 -1.6412
 6352TIP3   OH240470   0.117   4.908  13.366  0.2108 -0.0428  0.4492
 6352TIP3    H140471   0.118   4.831  13.309  1.6711  0.8026 -0.7264
 6352TIP3    H240472   0.142   4.875  13.452 -1.0810 -1.1729  0.4313
 6353TIP3   OH240473   4.770   0.832   2.082  0.0038 -0.4344  0.0728
 6353TIP3    H140474   4.832   0.786   2.026 -0.5048 -0.6189 -0.3417
 6353TIP3    H240475   4.702   0.864   2.022 -1.0690 -1.4714  0.6903
 6354TIP3   OH240476   2.583   4.671   1.833 -0.1023 -0.0740 -0.0385
 6354TIP3    H140477   2.678   4.677   1.844 -0.1416 -0.9946  1.0041
 6354TIP3    H240478   2.566   4.577   1.821 -0.8560  0.1088 -0.4527
 6355TIP3   OH240479   0.967   3.724   4.880  0.0732  0.6310  0.1755
 6355TIP3    H140480   0.885   3.675   4.893 -0.0727  0.5716 -0.8852
 6355TIP3    H240481   1.023   3.696   4.952 -1.2584  1.5942  1.6557
 6356TIP3   OH240482   1.491   4.694   0.501 -0.0770  0.3777 -0.1379
 6356TIP3    H140483   1.572   4.741   0.480  1.0207 -2.0266 -1.7175
 6356TIP3    H240484   1.421   4.756   0.476  1.2596  1.6804 -0.8315
 6357TIP3   OH240485   3.220   5.727   4.586  0.4396 -0.0647 -0.0378
 6357TIP3    H140486   3.269   5.738   4.668 -0.1247  2.1738  0.0641
 6357TIP3    H240487   3.241   5.638   4.557  1.3294 -0.6044  2.0840
 6358TIP3   OH240488   4.471   5.425   2.633 -0.0958 -0.0467 -0.3339
 6358TIP3    H140489   4.481   5.362   2.561 -2.1103 -1.1258  0.2456
 6358TIP3    H240490   4.522   5.501   2.606  0.0448 -0.8233 -2.4146
 6359TIP3   OH240491   0.892   1.243   2.535 -0.1387  0.4069  0.0484
 6359TIP3    H140492   0.861   1.154   2.524  2.2149 -0.7788  2.0378
 6359TIP3    H240493   0.878   1.263   2.628  0.7299  1.5458 -0.0391
 6360TIP3   OH240494   1.335   4.417  15.292 -0.2393  0.0434  0.1583
 6360TIP3    H140495   1.269   4.447  15.230 -1.6298 -0.4451  1.3330
 6360TIP3    H240496   1.410   4.393  15.238 -0.8833  0.9356 -1.1918
 6361TIP3   OH240497   1.451   5.435   3.373 -0.0736 -0.2572  0.0728
 6361TIP3    H140498   1.445   5.343   3.351  1.5273 -0.4529  0.2915
 6361TIP3    H240499   1.418   5.441   3.462  3.4254 -1.3932  1.6364
 6362TIP3   OH240500   6.711   4.240  12.292 -0.0674 -0.2484  0.7756
 6362TIP3    H140501   6.748   4.233  12.380 -0.2824 -1.7552  0.7713
 6362TIP3    H240502   6.690   4.150  12.268 -3.1613  0.4436  0.5234
 6363TIP3   OH240503   2.637   2.270   5.198  0.3442  0.0371 -0.5034
 6363TIP3    H140504   2.621   2.326   5.274  1.5839  0.0927 -0.2516
 6363TIP3    H240505   2.601   2.318   5.124 -0.4986  0.1794 -0.0087
 6364TIP3   OH240506   0.802   2.354   5.691 -0.1306  0.2920  0.3569
 6364TIP3    H140507   0.884   2.399   5.672  0.8518 -1.4122  0.2994
 6364TIP3    H240508   0.756   2.351   5.607 -0.4755  1.6343  0.4801
 6365TIP3   OH240509   6.689   1.668  16.771 -0.3966 -0.4088  0.1501
 6365TIP3    H140510   6.633   1.697  16.699 -0.5841 -1.0713  0.0204
 6365TIP3    H240511   6.698   1.573  16.758 -2.3709 -0.9803  2.3305
 6366TIP3   OH240512   2.124   2.156  14.053  0.1911  0.2525 -0.4041
 6366TIP3    H140513   2.054   2.177  14.115  1.7830  1.6136  0.9866
 6366TIP3    H240514   2.199   2.206  14.082  1.4272 -0.1635 -2.6329
 6367TIP3   OH240515   2.530   5.618   6.475  0.1715 -0.1530  0.0357
 6367TIP3    H140516   2.439   5.639   6.453 -0.2810  0.0613  1.9308
 6367TIP3    H240517   2.581   5.681   6.424 -0.8187  0.6317 -0.0377
 6368TIP3   OH240518   0.683   3.519   3.484 -0.5161 -0.1805  0.5272
 6368TIP3    H140519   0.719   3.542   3.570 -0.4517  0.4907  0.3337
 6368TIP3    H240520   0.680   3.603   3.437  2.4465 -0.9192 -1.2751
 6369TIP3   OH240521   0.682   0.038   4.597  0.0740  0.2750  0.0615
 6369TIP3    H140522   0.621   0.013   4.528  0.0500 -3.1784  1.1187
 6369TIP3    H240523   0.715   0.124   4.571 -2.6345  0.7314 -2.2978
 6370TIP3   OH240524   4.115   5.147   2.041 -0.4026 -0.5053 -0.4782
 6370TIP3    H140525   4.162   5.230   2.030 -0.1351 -0.1791  2.4350
 6370TIP3    H240526   4.164   5.085   1.987  1.8323  0.3962  0.3901
 6371TIP3   OH240527   3.482   5.805   4.331 -0.0278 -0.2856  0.1141
 6371TIP3    H140528   3.426   5.783   4.256  0.9543  0.9592 -1.0286
 6371TIP3    H240529   3.427   5.863   4.385  0.8388  3.1206 -2.3100
 6372TIP3   OH240530   3.431   0.188   1.226 -0.1665  0.3093 -0.3231
 6372TIP3    H140531   3.503   0.154   1.172 -0.4348  0.5498 -0.8320
 6372TIP3    H240532   3.400   0.265   1.180 -0.0307  0.8496  0.4721
 6373TIP3   OH240533   3.227   5.559   1.144 -0.4578 -0.0889  0.2260
 6373TIP3    H140534   3.284   5.528   1.073  0.1582  1.9085 -0.2398
 6373TIP3    H240535   3.281   5.623   1.191 -1.9243  1.0105  0.4852
 6374TIP3   OH240536   3.210   3.364   0.444  0.4296 -0.1173  0.1342
 6374TIP3    H140537   3.198   3.457   0.424 -1.5451 -0.1268  1.0863
 6374TIP3    H240538   3.163   3.317   0.376 -0.1175 -0.3520  0.6627
 6375TIP3   OH240539   0.841   1.681  11.804  0.8896  0.0022 -0.4496
 6375TIP3    H140540   0.786   1.645  11.735  1.4350 -1.1648 -0.3053
 6375TIP3    H240541   0.905   1.735  11.758 -0.0258  0.9374 -0.6586
 6376TIP3   OH240542   0.907   1.838  15.859 -0.2795 -0.0984 -0.4604
 6376TIP3    H140543   0.909   1.748  15.891 -3.0995 -0.1961 -0.3676
 6376TIP3    H240544   0.991   1.849  15.814 -0.1131 -2.9646 -1.0277
 6377TIP3   OH240545   3.173   6.433  15.405 -0.6304  0.3671 -0.3118
 6377TIP3    H140546   3.188   6.349  15.360 -1.3881  0.1360 -0.1435
 6377TIP3    H240547   3.136   6.408  15.490 -1.5684  0.8966 -0.5536
 6378TIP3   OH240548   2.728   5.676   0.369  0.4242  0.0670  0.1833
 6378TIP3    H140549   2.783   5.609   0.328 -0.0544  0.1803 -0.6643
 6378TIP3    H240550   2.745   5.667   0.463  0.2504 -1.3393  0.0966
 6379TIP3   OH240551   6.612   4.941  12.355 -0.2638  0.1845 -0.0516
 6379TIP3    H140552   6.552   5.016  12.348 -0.0386  0.3386 -0.3367
 6379TIP3    H240553   6.574   4.886  12.423 -2.3551 -1.2316 -2.2234
 6380TIP3   OH240554   4.888   0.931  17.192 -0.2939 -0.0523 -0.2207
 6380TIP3    H140555   4.924   1.008  17.236 -0.3615  0.4658 -1.0516
 6380TIP3    H240556   4.890   0.953  17.099 -2.0026 -0.3093 -0.3565
 6381TIP3   OH240557   4.716   5.469  12.202 -0.3739  0.1033 -0.4056
 6381TIP3    H140558   4.784   5.535  12.190  0.1182 -0.4271 -0.5383
 6381TIP3    H240559   4.639   5.520  12.228  0.6079  0.5376  1.8594
 6382TIP3   OH240560   0.748   5.818  13.323  0.8945 -0.1116 -0.2607
 6382TIP3    H140561   0.743   5.821  13.419 -0.9182  0.3695 -0.3286
 6382TIP3    H240562   0.674   5.764  13.297  1.0044  0.2676 -1.4211
 6383TIP3   OH240563   5.872   2.898  13.926 -0.2280 -0.5645  0.1485
 6383TIP3    H140564   5.819   2.956  13.981  1.8212  1.0948  0.5189
 6383TIP3    H240565   5.918   2.842  13.989 -1.9718 -2.5406 -0.1949
 6384TIP3   OH240566   1.867   4.482   2.935  0.4158 -0.0764  0.4985
 6384TIP3    H140567   1.907   4.437   3.009 -0.6995 -3.0424 -0.5774
 6384TIP3    H240568   1.774   4.484   2.956  0.0265 -1.3267 -0.9403
 6385TIP3   OH240569   3.898   3.804   5.118 -0.1502  0.0571  0.6442
 6385TIP3    H140570   3.865   3.715   5.131  0.3881 -0.0217  1.4760
 6385TIP3    H240571   3.920   3.808   5.025  0.5125 -0.9158  0.7526
 6386TIP3   OH240572   5.940   2.994  17.092 -0.2085  0.1349  0.1054
 6386TIP3    H140573   5.845   2.995  17.081 -0.2923 -0.8034  0.6135
 6386TIP3    H240574   5.975   3.021  17.007 -0.8948 -1.7099 -0.8055
 6387TIP3   OH240575   1.199   6.217   5.356  0.4220 -0.4989  0.0258
 6387TIP3    H140576   1.214   6.150   5.422  0.2139 -2.7085 -1.9994
 6387TIP3    H240577   1.159   6.169   5.283 -0.5408  2.0285 -1.2201
 6388TIP3   OH240578   5.250   2.492  16.887  0.0176 -0.0604 -0.0406
 6388TIP3    H140579   5.314   2.457  16.825  1.0809  1.3571  0.2287
 6388TIP3    H240580   5.171   2.507  16.834 -0.1132 -1.7705 -0.3776
 6389TIP3   OH240581   4.735   5.689   2.089 -0.1366 -0.3007  0.9024
 6389TIP3    H140582   4.657   5.641   2.061  0.8971 -1.9781  0.7413
 6389TIP3    H240583   4.751   5.659   2.178  0.4913 -0.2143  0.8256
 6390TIP3   OH240584   1.838   3.480  16.798  0.0805  0.5265 -0.6221
 6390TIP3    H140585   1.770   3.481  16.866  1.0826  0.0568  0.4273
 6390TIP3    H240586   1.794   3.446  16.721 -0.8760  0.1895  0.0502
 6391TIP3   OH240587   5.085   6.538  12.905  0.3370  0.0276  0.9088
 6391TIP3    H140588   5.019   6.604  12.921 -0.7302 -0.6712 -0.3957
 6391TIP3    H240589   5.107   6.547  12.812  2.2362  0.3660  1.3485
 6392TIP3   OH240590   5.747   4.440   3.621  0.1342  0.0715  0.2939
 6392TIP3    H140591   5.820   4.467   3.565  0.0192 -0.0044  0.1081
 6392TIP3    H240592   5.753   4.497   3.697 -0.6974  1.3001 -0.5306
 6393TIP3   OH240593   3.736   3.136   3.912  0.1603 -0.2640 -0.1438
 6393TIP3    H140594   3.681   3.063   3.884 -0.9376  1.0593 -1.5959
 6393TIP3    H240595   3.749   3.122   4.006 -2.0165 -1.0511  0.0902
 6394TIP3   OH240596   6.751   2.517  14.693 -0.2056 -0.2848 -0.0165
 6394TIP3    H140597   6.818   2.553  14.636  0.1327 -0.6491  0.1397
 6394TIP3    H240598   6.673   2.569  14.676  0.7250  1.7219  1.5037
 6395TIP3   OH240599   1.839   0.252  14.394 -0.4359  0.0814  0.1265
 6395TIP3    H140600   1.917   0.198  14.406 -0.8973 -0.4430  0.9347
 6395TIP3    H240601   1.811   0.234  14.304 -0.5299 -0.9834  0.3536
 6396TIP3   OH240602   1.925   1.386   3.691 -0.2345  0.0070 -0.5701
 6396TIP3    H140603   1.913   1.477   3.664  2.5885  0.3325 -1.0346
 6396TIP3    H240604   1.947   1.392   3.784 -0.9024 -0.3000 -0.3877
 6397TIP3   OH240605   4.385   1.813   0.847 -0.2274  0.3632 -0.0310
 6397TIP3    H140606   4.480   1.798   0.850 -0.1762  0.6410 -0.2215
 6397TIP3    H240607   4.349   1.745   0.903  0.0004 -0.4085 -0.8076
 6398TIP3   OH240608   5.595   3.665   3.364 -0.1158 -0.0095  0.5021
 6398TIP3    H140609   5.574   3.613   3.442  1.1516 -1.9784 -0.4000
 6398TIP3    H240610   5.515   3.667   3.313 -0.7847  0.7790  1.5483
 6399TIP3   OH240611   3.070   4.683  12.181 -0.0678 -0.1712  0.5662
 6399TIP3    H140612   3.023   4.725  12.253  0.7266  0.2675  0.8410
 6399TIP3    H240613   3.020   4.706  12.103  0.1995  1.0985  0.7389
 6400TIP3   OH240614   5.775   0.291  14.215 -0.3982  0.6682  0.5260
 6400TIP3    H140615   5.740   0.222  14.270 -3.4098 -0.3670 -2.3371
 6400TIP3    H240616   5.811   0.246  14.139 -0.3062  2.1412 -0.3568
 6401TIP3   OH240617   3.176   5.838   6.624  0.3547 -0.1799 -0.5609
 6401TIP3    H140618   3.138   5.834   6.712  0.3526 -0.3665 -0.5695
 6401TIP3    H240619   3.112   5.887   6.573  0.1084 -0.5137 -0.5806
 6402TIP3   OH240620   5.044   2.587  13.968  0.5176  0.0402  0.0424
 6402TIP3    H140621   4.984   2.620  14.035 -0.1239  1.0372 -0.9899
 6402TIP3    H240622   4.988   2.540  13.906  0.8646  0.4946 -0.6318
 6403TIP3   OH240623   1.028   0.248  15.359 -0.7735  0.7087  0.7144
 6403TIP3    H140624   1.025   0.205  15.273 -1.0549  1.9535  0.0657
 6403TIP3    H240625   1.102   0.207  15.404  0.5040  1.2094 -0.8137
 6404TIP3   OH240626   1.372   1.697   0.716  0.1820 -0.3645  0.5640
 6404TIP3    H140627   1.454   1.745   0.732  0.0825  0.2167 -0.5511
 6404TIP3    H240628   1.358   1.646   0.796  0.3204  1.4404  1.8004
 6405TIP3   OH240629   6.190   1.498   0.231  0.2160 -0.3144 -0.1319
 6405TIP3    H140630   6.134   1.548   0.172 -0.8909 -0.3950  0.8089
 6405TIP3    H240631   6.164   1.527   0.319  1.6433 -0.3764  0.3357
 6406TIP3   OH240632   3.267   6.074  15.628  0.0183 -0.2779 -0.2038
 6406TIP3    H140633   3.239   6.003  15.571  0.6261 -0.9636  0.3413
 6406TIP3    H240634   3.337   6.117  15.580  2.1098 -2.2442  0.9082
 6407TIP3   OH240635   6.445   6.377   1.205  0.0373  0.0733  0.0988
 6407TIP3    H140636   6.373   6.314   1.211  0.7910 -0.9924 -1.4170
 6407TIP3    H240637   6.481   6.380   1.294 -0.7065 -0.7890  0.4444
 6408TIP3   OH240638   5.827   6.045   4.795  0.5579 -0.0829 -0.0802
 6408TIP3    H140639   5.871   5.971   4.837  2.5786 -0.2944 -2.3528
 6408TIP3    H240640   5.878   6.121   4.823  1.1136 -0.0872 -1.0113
 6409TIP3   OH240641   3.787   3.211  12.525 -0.8159 -0.0962 -0.4933
 6409TIP3    H140642   3.721   3.153  12.564 -0.6857 -1.0777 -1.6707
 6409TIP3    H240643   3.784   3.290  12.579 -1.3340 -1.0073  0.8695
 6410TIP3   OH240644   3.077   5.342  15.997  0.0506 -0.0312 -0.8913
 6410TIP3    H140645   3.113   5.281  15.933  1.6587 -0.5454  0.4388
 6410TIP3    H240646   3.118   5.317  16.080 -0.2208  2.0543 -0.0725
 6411TIP3   OH240647   1.553   0.532   2.500 -0.0573  0.4021 -0.3738
 6411TIP3    H140648   1.569   0.563   2.589 -0.2474  0.8693 -0.4970
 6411TIP3    H240649   1.617   0.462   2.486  0.1628  0.5219  0.0269
 6412TIP3   OH240650   0.130   0.132  16.406 -0.1887  0.0341 -0.6367
 6412TIP3    H140651   0.057   0.140  16.466  0.6568 -0.3256  0.4738
 6412TIP3    H240652   0.152   0.222  16.382  1.2324  0.4239  1.8212
 6413TIP3   OH240653   3.204   3.458   1.498 -0.0742  0.1640  0.4144
 6413TIP3    H140654   3.262   3.385   1.475 -0.0265  0.4091 -0.2620
 6413TIP3    H240655   3.253   3.536   1.472 -0.0819  0.4430  1.2365
 6414TIP3   OH240656   3.070   2.692  11.293 -0.1885  0.2539  0.2399
 6414TIP3    H140657   3.076   2.613  11.347 -3.4305 -1.5598 -1.6792
 6414TIP3    H240658   3.101   2.664  11.206  1.7432  2.1289  0.2558
 6415TIP3   OH240659   3.630   5.154   0.093 -0.5770  0.2039  0.5461
 6415TIP3    H140660   3.716   5.170   0.131  0.3466 -2.5418 -0.1739
 6415TIP3    H240661   3.604   5.238   0.056  1.8383  1.0899  0.6985
 6416TIP3   OH240662   4.108   1.034   3.297 -0.7432  0.3949 -0.6116
 6416TIP3    H140663   4.036   1.050   3.236 -1.2179  0.3135 -0.0834
 6416TIP3    H240664   4.065   1.009   3.379 -0.1573  1.7796  0.1502
 6417TIP3   OH240665   4.418   4.120  14.081  0.0500 -0.3134 -0.1901
 6417TIP3    H140666   4.407   4.209  14.046  1.7611  0.3672  0.8560
 6417TIP3    H240667   4.433   4.133  14.174 -2.1906 -1.9313  0.4682
 6418TIP3   OH240668   1.758   1.400  11.155 -0.1539 -0.1481 -0.1000
 6418TIP3    H140669   1.726   1.376  11.242 -1.4275  1.2568 -0.1513
 6418TIP3    H240670   1.844   1.439  11.171 -0.8194  1.0576  0.6658
 6419TIP3   OH240671   6.008   0.075  13.623  0.2182  0.0636 -0.0136
 6419TIP3    H140672   5.983   0.124  13.545 -0.3497 -1.5731 -0.8972
 6419TIP3    H240673   6.064   0.004  13.591 -0.5218 -1.0077  0.9675
 6420TIP3   OH240674   6.202   6.410  17.040 -0.4795 -0.4474 -0.2763
 6420TIP3    H140675   6.149   6.461  16.979 -2.8344  0.7870  2.5289
 6420TIP3    H240676   6.262   6.473  17.079 -2.2860  0.0294  2.0082
 6421TIP3   OH240677   5.393   1.257  12.881  0.0912 -0.1743 -0.1033
 6421TIP3    H140678   5.333   1.282  12.952 -0.7057 -1.6689 -0.2083
 6421TIP3    H240679   5.402   1.337  12.829  0.9566  1.0590  1.8259
 6422TIP3   OH240680   3.340   5.494   5.353  0.1398 -0.1599 -0.3207
 6422TIP3    H140681   3.388   5.439   5.291 -0.8080 -0.2156 -1.0371
 6422TIP3    H240682   3.368   5.583   5.333 -0.1832 -0.1752 -0.8606
 6423TIP3   OH240683   0.786   2.136   3.987  0.7664 -0.7301 -0.1260
 6423TIP3    H140684   0.835   2.071   3.936  1.5675  0.0535 -0.3859
 6423TIP3    H240685   0.801   2.110   4.078  1.5245 -0.6218 -0.2103
 6424TIP3   OH240686   2.422   4.721   3.046 -0.6447  0.5796 -0.1851
 6424TIP3    H140687   2.477   4.765   2.981  3.2663 -2.3282  0.6982
 6424TIP3    H240688   2.415   4.631   3.014  0.7673 -0.7624  2.8535
 6425TIP3   OH240689   6.185   1.808  16.905 -0.0088 -0.7530  0.9000
 6425TIP3    H140690   6.188   1.735  16.844  2.8923  0.8552 -1.0911
 6425TIP3    H240691   6.106   1.856  16.880  0.1236 -1.1537 -0.3512
 6426TIP3   OH240692   4.757   1.433   5.566  0.1656  0.0466  0.6717
 6426TIP3    H140693   4.671   1.416   5.527  0.6810 -1.1691  0.0423
 6426TIP3    H240694   4.748   1.406   5.657 -0.2326  0.2952  0.7081
 6427TIP3   OH240695   2.593   2.277   2.766 -0.3094  0.1534  0.0634
 6427TIP3    H140696   2.603   2.245   2.677  0.3412 -1.5093  0.6870
 6427TIP3    H240697   2.683   2.282   2.800 -0.6296 -1.0577  1.1878
 6428TIP3   OH240698   4.454   0.022   2.696  0.2514 -0.9904 -0.1909
 6428TIP3    H140699   4.460   0.082   2.621 -0.9620 -1.4182 -0.6513
 6428TIP3    H240700   4.528   0.046   2.751 -0.0721  0.8143 -0.4601
 6429TIP3   OH240701   2.816   4.991  13.995  0.5579  0.3456 -0.0984
 6429TIP3    H140702   2.785   5.022  14.080  0.8028  0.1553  0.0616
 6429TIP3    H240703   2.832   5.071  13.945  1.5623  0.5015  0.4499
 6430TIP3   OH240704   6.675   0.750   1.726 -0.8827  0.0278  0.0754
 6430TIP3    H140705   6.700   0.825   1.780  0.1713  0.0754 -0.4655
 6430TIP3    H240706   6.598   0.713   1.771  0.5606 -0.5471  2.2102
 6431TIP3   OH240707   1.635   0.337  14.543  0.2485 -0.4645 -0.8814
 6431TIP3    H140708   1.681   0.421  14.537 -0.4391  0.1387  1.2102
 6431TIP3    H240709   1.667   0.286  14.469  1.1372  1.4276 -1.8595
 6432TIP3   OH240710   5.661   1.618   4.109  0.0114  0.5732 -0.2509
 6432TIP3    H140711   5.593   1.570   4.063  0.2495 -1.6260  1.5199
 6432TIP3    H240712   5.613   1.670   4.175 -0.0265 -1.7525  1.6833
 6433TIP3   OH240713   3.876   1.629   4.235 -0.5362  0.5291 -0.3729
 6433TIP3    H140714   3.891   1.573   4.159  2.1288 -0.1226  0.5190
 6433TIP3    H240715   3.924   1.587   4.306 -1.1056  2.2832  1.1539
 6434TIP3   OH240716   3.253   3.310  14.591 -0.1356  0.0778  0.1975
 6434TIP3    H140717   3.335   3.355  14.609 -0.4567  1.1758 -0.9171
 6434TIP3    H240718   3.217   3.355  14.514 -1.9688 -0.1062  0.8825
 6435TIP3   OH240719   1.556   0.561   1.562  0.0183  0.0409 -0.0569
 6435TIP3    H140720   1.646   0.584   1.541 -0.8295  2.1873 -1.6599
 6435TIP3    H240721   1.515   0.544   1.478 -0.5691 -3.3718  0.7741
 6436TIP3   OH240722   4.486   6.521  12.371 -0.0768  0.0903  0.2352
 6436TIP3    H140723   4.502   6.432  12.339  1.6071 -0.2544  1.8799
 6436TIP3    H240724   4.403   6.514  12.419 -0.8212 -0.1685 -1.0245
 6437TIP3   OH240725   5.301   5.526  13.425 -0.0090 -0.2297  0.0854
 6437TIP3    H140726   5.353   5.448  13.406 -0.1654  0.0538 -1.6789
 6437TIP3    H240727   5.244   5.536  13.349 -1.8832  0.1172  1.4372
 6438TIP3   OH240728   1.910   3.176   1.311 -0.4777 -0.4115  0.8941
 6438TIP3    H140729   1.959   3.145   1.235  1.3974  0.8780  1.5015
 6438TIP3    H240730   1.829   3.212   1.274  1.2624  2.0744 -0.8132
 6439TIP3   OH240731   2.288   2.432  11.135  0.4481  0.1288 -0.3571
 6439TIP3    H140732   2.239   2.413  11.055 -1.1612  0.5053  0.4785
 6439TIP3    H240733   2.227   2.411  11.206  0.3890  3.3205  0.7158
 6440TIP3   OH240734   1.647   2.355  15.520  0.1170  0.2636  0.0074
 6440TIP3    H140735   1.710   2.420  15.491 -0.2395  0.6269  0.0430
 6440TIP3    H240736   1.682   2.324  15.604  0.7642 -0.2606 -0.4451
 6441TIP3   OH240737   5.781   2.729   2.867  0.5867  0.0686  0.1928
 6441TIP3    H140738   5.828   2.730   2.784 -2.8143 -1.3430 -1.9886
 6441TIP3    H240739   5.718   2.657   2.859 -1.5534  1.3809  2.9994
 6442TIP3   OH240740   2.896   1.149   3.099  0.1713  0.2645  0.3841
 6442TIP3    H140741   2.978   1.160   3.146  0.1394 -1.1786  0.8253
 6442TIP3    H240742   2.856   1.071   3.138 -0.5014 -0.1722 -1.1068
 6443TIP3   OH240743   1.032   3.018  15.109 -0.0187 -0.2396 -0.9720
 6443TIP3    H140744   1.080   2.953  15.160 -1.3712 -0.0926  0.5801
 6443TIP3    H240745   0.971   2.966  15.056 -0.3790 -0.3039 -0.5050
 6444TIP3   OH240746   5.698   2.080   5.081 -0.1048 -1.0017 -0.7300
 6444TIP3    H140747   5.608   2.094   5.112  0.0833 -0.0795 -0.5689
 6444TIP3    H240748   5.727   2.166   5.052  1.1829 -0.9920  0.4637
 6445TIP3   OH240749   3.451   4.386  16.863 -0.3522 -0.2993  0.0046
 6445TIP3    H140750   3.357   4.394  16.844 -0.7959  0.8089  2.2933
 6445TIP3    H240751   3.458   4.409  16.956  2.1200 -1.0145  0.0541
 6446TIP3   OH240752   3.631   1.344   0.083 -0.7257  0.6275  0.5135
 6446TIP3    H140753   3.677   1.427   0.068 -1.6192  1.2552  1.1410
 6446TIP3    H240754   3.701   1.281   0.103 -0.0880  1.4209  0.8376
 6447TIP3   OH240755   1.049   6.383  12.261  0.2950 -0.0036  0.2448
 6447TIP3    H140756   1.118   6.380  12.194  1.2235 -0.9560  1.2069
 6447TIP3    H240757   1.086   6.435  12.332 -0.4856  0.5622  0.2542
 6448TIP3   OH240758   6.302   1.526   0.709  0.2082 -0.3664 -0.5383
 6448TIP3    H140759   6.330   1.616   0.728 -1.3840 -0.0370  0.4345
 6448TIP3    H240760   6.223   1.537   0.657  0.3646 -1.2213 -0.9558
 6449TIP3   OH240761   4.066   5.832  13.357 -0.3031  0.1629  0.7268
 6449TIP3    H140762   3.988   5.776  13.355 -0.1054 -0.0941 -0.6979
 6449TIP3    H240763   4.038   5.910  13.405 -1.9744  0.8351 -1.2203
 6450TIP3   OH240764   6.410   2.968   5.531 -0.0995 -0.3955  0.3135
 6450TIP3    H140765   6.336   2.981   5.589 -0.0653  2.0044 -0.0841
 6450TIP3    H240766   6.373   2.970   5.443  0.2668 -0.7510  0.1422
 6451TIP3   OH240767   2.664   0.532  14.601  0.9080 -0.0524  0.2142
 6451TIP3    H140768   2.658   0.628  14.599  0.1075 -0.1086 -1.0992
 6451TIP3    H240769   2.649   0.510  14.693 -3.1725  0.8895 -0.0186
 6452TIP3   OH240770   4.641   0.223   2.526  0.1056  0.6288 -0.0916
 6452TIP3    H140771   4.617   0.288   2.593  0.3121 -0.0706  0.6797
 6452TIP3    H240772   4.735   0.208   2.541  0.1892  0.5794 -0.6479
 6453TIP3   OH240773   6.213   2.799  13.739 -0.0469  0.3563  0.5383
 6453TIP3    H140774   6.154   2.872  13.720  0.6124  0.8237  0.2398
 6453TIP3    H240775   6.301   2.836  13.728  0.2955 -0.5685  0.0766
 6454TIP3   OH240776   6.690   1.085   0.092  0.1175  0.4083  0.0526
 6454TIP3    H140777   6.611   1.103   0.040  0.6926  1.9685 -0.3324
 6454TIP3    H240778   6.728   1.008   0.051  0.5198  1.5522 -1.8782
 6455TIP3   OH240779   2.247   5.932   5.469  0.0882  0.0600 -0.2486
 6455TIP3    H140780   2.157   5.908   5.448 -0.2669  1.3181 -0.2655
 6455TIP3    H240781   2.299   5.854   5.448 -0.9394 -0.5302 -0.6485
 6456TIP3   OH240782   2.979   1.659  11.486 -0.1577 -0.5361 -0.7943
 6456TIP3    H140783   2.888   1.668  11.458  0.1889  0.2672 -1.7162
 6456TIP3    H240784   3.029   1.660  11.404  0.9444  2.4399 -0.1839
 6457TIP3   OH240785   1.591   5.489  11.704 -0.3425 -0.3576 -0.2124
 6457TIP3    H140786   1.521   5.425  11.711 -2.5539  1.9858  0.6885
 6457TIP3    H240787   1.647   5.472  11.780 -2.1958  0.1603  1.3525
 6458TIP3   OH240788   0.203   4.695   1.935  0.0250 -0.5805 -0.3329
 6458TIP3    H140789   0.202   4.783   1.974  1.5701 -0.6974  0.0360
 6458TIP3    H240790   0.273   4.699   1.870 -1.2313 -0.9677 -1.7727
 6459TIP3   OH240791   3.990   0.686   1.679 -0.0825  0.2536  0.0418
 6459TIP3    H140792   4.045   0.726   1.747 -0.0057 -0.3203  0.3228
 6459TIP3    H240793   3.993   0.592   1.698 -1.7779  0.2744  0.5357
 6460TIP3   OH240794   6.528   3.118  16.826 -0.5741  0.1355 -0.1679
 6460TIP3    H140795   6.607   3.101  16.775 -1.5887 -0.9343 -1.4147
 6460TIP3    H240796   6.474   3.174  16.770 -1.3577 -0.3972  0.0301
 6461TIP3   OH240797   5.894   3.895  14.384 -0.1598  0.0789 -0.5545
 6461TIP3    H140798   5.877   3.826  14.320 -0.3250 -1.1568  0.7775
 6461TIP3    H240799   5.854   3.863  14.465  0.6346  1.2858  0.3420
 6462TIP3   OH240800   2.088   6.042   0.322 -0.2492 -0.0404  0.0552
 6462TIP3    H140801   2.052   6.076   0.241 -1.1023  0.1632  0.5008
 6462TIP3    H240802   2.180   6.027   0.304 -0.5556 -0.5860 -1.1405
 6463TIP3   OH240803   2.540   3.875   5.258 -0.9001  0.4118 -0.1875
 6463TIP3    H140804   2.511   3.797   5.211  0.0368 -0.6885  1.0140
 6463TIP3    H240805   2.606   3.914   5.201  0.0378 -0.7712  0.0390
 6464TIP3   OH240806   2.521   0.020   0.445  0.1355 -0.3424  0.3898
 6464TIP3    H140807   2.583   0.054   0.509 -0.7509  0.5003  0.8228
 6464TIP3    H240808   2.521   0.084   0.374 -0.0696 -0.4562  0.2847
 6465TIP3   OH240809   0.279   0.945  15.198  1.0140 -0.4724 -0.7247
 6465TIP3    H140810   0.253   0.892  15.123 -0.9480  0.8460 -1.0347
 6465TIP3    H240811   0.258   0.891  15.274 -3.2569  0.5696 -0.9177
 6466TIP3   OH240812   1.965   0.851  15.575  0.0142  0.1101  0.1076
 6466TIP3    H140813   1.948   0.893  15.659 -1.5452  1.1817 -0.7113
 6466TIP3    H240814   2.046   0.892  15.544 -0.6924  1.4606  0.0013
 6467TIP3   OH240815   5.495   3.345   4.128  0.5256 -0.3068 -0.2860
 6467TIP3    H140816   5.529   3.373   4.043 -0.5617  1.9602 -0.0679
 6467TIP3    H240817   5.530   3.410   4.190 -1.1906 -0.0451  0.4714
 6468TIP3   OH240818   5.744   3.607   5.105 -0.1203  0.4552 -0.0747
 6468TIP3    H140819   5.703   3.643   5.184 -0.8247  1.8156 -1.0373
 6468TIP3    H240820   5.768   3.517   5.130 -1.3752  0.4676  1.3218
 6469TIP3   OH240821   5.477   3.376  12.527 -0.1374  0.1568  1.0488
 6469TIP3    H140822   5.425   3.442  12.480  2.2740  2.5268  1.4406
 6469TIP3    H240823   5.416   3.339  12.591 -1.5210  2.3823  1.1504
 6470TIP3   OH240824   4.168   2.195  15.600 -0.3935  0.6753 -0.0229
 6470TIP3    H140825   4.128   2.224  15.518 -0.7051  1.2629  0.3253
 6470TIP3    H240826   4.210   2.273  15.635 -1.8086  0.9201  1.2631
 6471TIP3   OH240827   1.234   4.245   0.272 -0.4100 -0.2866  0.1172
 6471TIP3    H140828   1.150   4.201   0.280 -0.1355 -0.7203  0.6271
 6471TIP3    H240829   1.279   4.228   0.355  0.1992 -0.1039 -0.1677
 6472TIP3   OH240830   5.211   4.429  13.934 -0.2994 -0.0835  0.2815
 6472TIP3    H140831   5.281   4.392  13.987  1.5668  1.2643 -1.1243
 6472TIP3    H240832   5.204   4.521  13.963  0.7938  0.6953 -1.7265
 6473TIP3   OH240833   5.071   3.603   5.155 -0.0799  0.3519  0.0882
 6473TIP3    H140834   5.118   3.669   5.105  1.2034 -0.8047 -0.2914
 6473TIP3    H240835   5.102   3.614   5.245 -1.7437  1.8582  0.5530
 6474TIP3   OH240836   6.599   3.299   4.626  0.2121 -0.1296 -0.3206
 6474TIP3    H140837   6.570   3.343   4.706 -0.2948  1.9545 -1.5677
 6474TIP3    H240838   6.659   3.231   4.656 -0.4943  0.1306  1.8544
 6475TIP3   OH240839   6.446   3.857  11.996  0.3374  0.0209 -0.5056
 6475TIP3    H140840   6.477   3.784  11.944 -0.0745 -0.4493 -0.1032
 6475TIP3    H240841   6.483   3.843  12.083  0.9414  0.7483 -0.6354
 6476TIP3   OH240842   3.390   6.093   0.185 -0.2476  0.6746 -0.5363
 6476TIP3    H140843   3.433   6.008   0.192 -0.2446  0.8064  1.4347
 6476TIP3    H240844   3.462   6.156   0.187 -0.2650  0.7585 -1.7748
 6477TIP3   OH240845   3.426   2.970   2.194  0.3299 -0.0052  0.1252
 6477TIP3    H140846   3.429   2.875   2.189 -2.1702 -0.2169  1.2094
 6477TIP3    H240847   3.333   2.991   2.207  0.7056  2.6310 -0.7087
 6478TIP3   OH240848   3.090   1.668   6.645  0.4227  0.1520 -0.3253
 6478TIP3    H140849   3.145   1.743   6.620 -0.5983  0.6609 -1.1242
 6478TIP3    H240850   3.119   1.596   6.590 -0.2077  0.6305 -1.3111
 6479TIP3   OH240851   3.974   2.410  16.519  0.7970  0.3327 -0.4869
 6479TIP3    H140852   3.924   2.438  16.596  0.3780  1.0712 -1.0084
 6479TIP3    H240853   3.908   2.372  16.460  0.9796  0.4987 -0.8022
 6480TIP3   OH240854   1.659   1.993   2.794 -0.1511 -0.0064  0.2730
 6480TIP3    H140855   1.613   2.048   2.857 -0.9730 -1.3844  0.9463
 6480TIP3    H240856   1.746   2.032   2.786 -0.2978  0.6656  1.6636
 6481TIP3   OH240857   0.840   0.960  15.548  0.7158  0.4215 -0.9644
 6481TIP3    H140858   0.927   0.998  15.543  0.1405  1.7007 -1.6247
 6481TIP3    H240859   0.855   0.865  15.546  2.1637  0.5690  0.4654
 6482TIP3   OH240860   4.054   3.825   1.488  0.2285  0.5802 -0.0396
 6482TIP3    H140861   4.115   3.854   1.555  2.2334 -0.3348 -1.3519
 6482TIP3    H240862   4.022   3.905   1.448 -0.4139  1.1103  1.4725
 6483TIP3   OH240863   4.574   6.514   2.734 -0.3680 -0.2235  0.3248
 6483TIP3    H140864   4.663   6.482   2.717  0.1665  0.8878  0.9220
 6483TIP3    H240865   4.518   6.455   2.684  0.8112  0.0658 -1.4633
 6484TIP3   OH240866   5.452   2.221   4.085  0.0229 -0.3160 -0.1110
 6484TIP3    H140867   5.464   2.128   4.106 -3.4539 -1.1727 -1.3194
 6484TIP3    H240868   5.486   2.229   3.996  1.3871 -0.1018  0.4056
 6485TIP3   OH240869   4.276   6.161  12.567 -0.0332  0.1687 -0.6645
 6485TIP3    H140870   4.367   6.183  12.586 -0.4192  1.6297 -0.3795
 6485TIP3    H240871   4.280   6.076  12.524  1.3805 -0.2441  0.2364
 6486TIP3   OH240872   4.627   3.385   1.919 -0.2342  0.8283 -0.2570
 6486TIP3    H140873   4.639   3.423   1.831  0.4021 -0.6928 -0.8724
 6486TIP3    H240874   4.556   3.322   1.908  0.0559  0.4097  0.2288
 6487TIP3   OH240875   2.968   5.561   1.058  0.4833 -0.3050 -0.0535
 6487TIP3    H140876   3.063   5.556   1.061  0.5251 -0.8914 -1.6335
 6487TIP3    H240877   2.940   5.483   1.009 -0.9208 -0.9333  1.6284
 6488TIP3   OH240878   1.518   0.688  13.636  0.3337 -0.2359  0.1408
 6488TIP3    H140879   1.532   0.596  13.657 -0.0364  0.0500  1.7541
 6488TIP3    H240880   1.599   0.731  13.661  0.4736 -0.0910 -0.5293
 6489TIP3   OH240881   5.974   0.293  16.595 -0.0970  0.3658  0.1607
 6489TIP3    H140882   5.978   0.387  16.578 -0.8831  0.3878  0.0797
 6489TIP3    H240883   6.042   0.256  16.539  1.1192  1.0055  1.1400
 6490TIP3   OH240884   6.687   2.644   6.627 -0.1364 -0.1419  0.1368
 6490TIP3    H140885   6.601   2.610   6.601 -0.4109  1.3261 -1.0023
 6490TIP3    H240886   6.749   2.583   6.586 -0.6143  0.4828 -1.6332
 6491TIP3   OH240887   2.180   5.235  14.128  0.3820 -0.0096 -0.5497
 6491TIP3    H140888   2.190   5.298  14.200  1.3235 -0.2834 -0.4258
 6491TIP3    H240889   2.168   5.151  14.172 -0.5855  0.0278 -0.7192
 6492TIP3   OH240890   0.832   2.054  16.918 -0.5078 -0.3488  0.2215
 6492TIP3    H140891   0.896   2.023  16.854  0.8623 -1.4069  1.9877
 6492TIP3    H240892   0.870   2.135  16.953 -1.0209 -0.0139  0.0062
 6493TIP3   OH240893   0.693   0.360   6.133 -0.1663 -0.1666  0.0423
 6493TIP3    H140894   0.730   0.274   6.155  0.5234  0.1902  0.2702
 6493TIP3    H240895   0.752   0.396   6.067 -0.8895 -0.1873 -0.6427
 6494TIP3   OH240896   0.626   1.345   2.730 -0.4325 -0.0129 -0.6258
 6494TIP3    H140897   0.638   1.334   2.824  0.9962  1.3574 -0.6045
 6494TIP3    H240898   0.647   1.437   2.714  0.7594 -0.5610 -2.4871
 6495TIP3   OH240899   3.431   6.173  14.620  0.2381 -0.0438 -0.4564
 6495TIP3    H140900   3.520   6.199  14.645 -1.0285  2.8730  1.4741
 6495TIP3    H240901   3.412   6.228  14.544 -0.0645 -0.3613 -0.6083
 6496TIP3   OH240902   2.504   3.531  14.359  0.2002 -0.5303  0.6730
 6496TIP3    H140903   2.524   3.595  14.291  1.5636 -0.7686  0.8200
 6496TIP3    H240904   2.589   3.506  14.394 -0.5154  0.9054  3.7105
 6497TIP3   OH240905   0.362   2.417  12.989  0.2430 -0.0631  0.1476
 6497TIP3    H140906   0.446   2.461  13.001 -0.6123  1.2969  1.4342
 6497TIP3    H240907   0.310   2.478  12.936  0.0983 -0.9791 -0.8097
 6498TIP3   OH240908   6.268   4.056   1.988  0.0391  0.2882 -0.2823
 6498TIP3    H140909   6.288   4.089   1.901 -0.2083 -0.7613 -0.7579
 6498TIP3    H240910   6.322   4.108   2.047  0.4135  0.8230 -1.0840
 6499TIP3   OH240911   0.942   3.562  15.534  0.6724 -0.4320  0.0263
 6499TIP3    H140912   0.959   3.631  15.598  0.2933  0.5095 -0.8736
 6499TIP3    H240913   1.024   3.554  15.485 -0.0864  1.2956 -1.6442
 6500TIP3   OH240914   3.183   0.163  11.905 -0.4392  0.0575 -0.0810
 6500TIP3    H140915   3.091   0.150  11.928 -0.3249  0.9139  0.8976
 6500TIP3    H240916   3.223   0.200  11.983  0.9095 -0.9732 -0.2541
 6501TIP3   OH240917   1.105   1.017   5.870 -0.5272 -0.5826 -0.9043
 6501TIP3    H140918   1.171   0.953   5.898  0.8869  0.9062 -0.6966
 6501TIP3    H240919   1.052   1.032   5.948  0.5266  0.1086 -0.2825
 6502TIP3   OH240920   3.934   0.501   5.205  0.4841  0.1174 -0.2668
 6502TIP3    H140921   3.960   0.495   5.113 -1.0216  2.6095 -0.9574
 6502TIP3    H240922   4.012   0.530   5.251  1.2340 -1.0921 -0.7455
 6503TIP3   OH240923   6.384   5.367  15.403 -0.5965 -0.1177 -0.4755
 6503TIP3    H140924   6.432   5.444  15.373 -1.3224  0.0616 -1.2082
 6503TIP3    H240925   6.328   5.342  15.329 -1.3580 -0.5422  0.2188
 6504TIP3   OH240926   3.490   0.411  15.097  0.5252 -0.6754  0.3103
 6504TIP3    H140927   3.400   0.416  15.129  0.1548 -0.2634 -0.7560
 6504TIP3    H240928   3.531   0.344  15.152 -0.3328 -0.6314  1.0288
 6505TIP3   OH240929   6.502   0.010   4.949  0.0668 -0.0083  0.2568
 6505TIP3    H140930   6.553   0.031   5.027  1.4378  0.5199 -0.7448
 6505TIP3    H240931   6.427   0.068   4.953 -0.4540 -0.7359  1.7193
 6506TIP3   OH240932   3.930   4.168  11.615 -0.5518 -0.7183  0.4153
 6506TIP3    H140933   3.988   4.153  11.690  1.4917  1.9506 -0.4372
 6506TIP3    H240934   3.988   4.206  11.548 -2.3215 -2.7379 -2.4785
 6507TIP3   OH240935   5.405   2.126   2.606 -0.2624 -0.1530  0.0595
 6507TIP3    H140936   5.493   2.161   2.593 -0.1603 -0.7080 -0.8254
 6507TIP3    H240937   5.419   2.038   2.640 -0.4207 -0.8692 -1.6464
 6508TIP3   OH240938   1.229   3.267  11.532  0.3804  0.2927  0.5320
 6508TIP3    H140939   1.182   3.189  11.563 -0.3947  0.9389  1.0149
 6508TIP3    H240940   1.166   3.338  11.541  1.3958  1.1609  1.0390
 6509TIP3   OH240941   6.103   3.794   5.867  0.3929 -0.0932  0.0119
 6509TIP3    H140942   6.135   3.766   5.953  2.2173  0.2724 -0.5127
 6509TIP3    H240943   6.043   3.724   5.840  0.5658 -0.7015  1.1448
 6510TIP3   OH240944   0.421   2.655   6.257  0.3715  0.0190 -0.1745
 6510TIP3    H140945   0.414   2.583   6.195 -1.6541  0.3673 -0.4179
 6510TIP3    H240946   0.371   2.726   6.218  1.2451  1.1514  0.6655
 6511TIP3   OH240947   5.533   5.287   4.671  0.3661 -0.1057 -0.1341
 6511TIP3    H140948   5.584   5.250   4.598 -0.5549  0.0274 -0.8672
 6511TIP3    H240949   5.593   5.348   4.713  1.2864 -1.0147 -0.0754
 6512TIP3   OH240950   3.179   0.505   1.803  0.4419 -0.4317  0.0536
 6512TIP3    H140951   3.111   0.491   1.736  0.5344 -0.7076  0.0180
 6512TIP3    H240952   3.252   0.543   1.755 -0.4409  1.9601  0.4266
 6513TIP3   OH240953   0.094   1.204  11.430 -0.3524  0.3274 -0.2618
 6513TIP3    H140954   0.116   1.199  11.523 -0.9051  0.8225 -0.1003
 6513TIP3    H240955   0.001   1.180  11.426  0.4440 -3.3022 -1.1006
 6514TIP3   OH240956   0.673   4.716  12.642  0.1156 -0.3889 -0.1029
 6514TIP3    H140957   0.667   4.649  12.575  2.7785 -1.0057  0.1670
 6514TIP3    H240958   0.719   4.789  12.599  2.6186 -1.1157  1.1813
 6515TIP3   OH240959   5.740   5.871  14.530  0.4302  0.4125  0.1148
 6515TIP3    H140960   5.718   5.895  14.440  0.2985 -0.1332 -0.0035
 6515TIP3    H240961   5.822   5.822  14.522  1.0902  1.4579  0.4308
 6516TIP3   OH240962   4.869   3.497   6.061  0.3601  0.2769  0.0910
 6516TIP3    H140963   4.874   3.450   6.144 -2.2663 -0.4475 -0.0849
 6516TIP3    H240964   4.911   3.582   6.079  1.9598 -0.7393  1.4291
 6517TIP3   OH240965   6.282   6.750  12.810 -0.2091  0.1728 -0.8040
 6517TIP3    H140966   6.368   6.711  12.827  0.2198  1.9020  1.5120
 6517TIP3    H240967   6.221   6.699  12.862 -0.2086  0.4117 -0.5694
 6518TIP3   OH240968   2.371   2.086  12.032 -0.2603 -0.3752 -0.0219
 6518TIP3    H140969   2.374   2.036  11.950 -2.4156 -1.7506  0.6766
 6518TIP3    H240970   2.463   2.091  12.060  0.3222 -1.3778 -1.6200
 6519TIP3   OH240971   2.944   3.593   5.942  0.2770  0.4835  0.3190
 6519TIP3    H140972   2.899   3.545   6.012  1.3811 -0.4961  0.3934
 6519TIP3    H240973   3.029   3.615   5.980  0.9986 -0.2903 -0.7766
 6520TIP3   OH240974   2.138   6.519   5.041 -0.2523 -0.2115  0.1911
 6520TIP3    H140975   2.184   6.600   5.065 -1.4442  0.1470  1.4100
 6520TIP3    H240976   2.197   6.474   4.981  0.3920  1.6232 -0.6167
 6521TIP3   OH240977   2.565   3.153  10.469 -0.0476  0.7292  0.5372
 6521TIP3    H140978   2.501   3.223  10.457 -0.6039 -0.0346 -1.4133
 6521TIP3    H240979   2.637   3.176  10.411  0.3336  0.3365  0.8541
 6522TIP3   OH240980   2.368   1.175   3.376 -0.0795  0.2486 -0.1801
 6522TIP3    H140981   2.275   1.191   3.361 -0.3610  1.0321  1.9695
 6522TIP3    H240982   2.412   1.249   3.333 -0.6891  1.4604  1.1830
 6523TIP3   OH240983   3.514   2.622  12.411  0.0561 -0.2274 -0.5738
 6523TIP3    H140984   3.481   2.712  12.403  0.0841 -0.0726  0.8447
 6523TIP3    H240985   3.583   2.616  12.346  1.4279  1.4426  0.6285
 6524TIP3   OH240986   4.515   4.798  17.062 -0.6647  0.0756  0.2600
 6524TIP3    H140987   4.575   4.799  17.137 -2.1743 -0.9238  1.5319
 6524TIP3    H240988   4.428   4.809  17.100 -1.4096  0.4734 -1.4547
 6525TIP3   OH240989   4.879   1.349   5.317 -0.4753 -0.1928  0.5987
 6525TIP3    H140990   4.862   1.345   5.411 -1.2801  1.0039  0.5238
 6525TIP3    H240991   4.814   1.411   5.283  0.9262  0.7690 -0.4677
 6526TIP3   OH240992   4.190   0.587   5.261 -0.1907 -0.6989  0.4313
 6526TIP3    H140993   4.198   0.596   5.356  1.1753 -0.3162  0.2984
 6526TIP3    H240994   4.190   0.676   5.228  0.5242 -0.8494 -0.0006
 6527TIP3   OH240995   3.210   4.652  13.248 -0.5539  0.2660  0.0933
 6527TIP3    H140996   3.229   4.576  13.302  0.3320  0.7179  0.4376
 6527TIP3    H240997   3.145   4.702  13.298 -0.3251  0.2872  0.3703
 6528TIP3   OH240998   0.317   2.932   0.357  0.7386  0.3820  0.6097
 6528TIP3    H140999   0.391   2.874   0.340  0.1723 -0.0580 -0.4330
 6528TIP3    H241000   0.321   2.997   0.287 -0.2619 -0.0659  0.1098
 6529TIP3   OH241001   0.133   0.056   1.702 -0.3164 -0.8983 -0.2804
 6529TIP3    H141002   0.121   0.121   1.771 -2.5443 -1.0899 -0.4153
 6529TIP3    H241003   0.186  -0.012   1.742 -0.8551 -0.5999  0.9753
 6530TIP3   OH241004   0.681   5.209   0.365 -0.0951  0.6066 -0.0940
 6530TIP3    H141005   0.715   5.278   0.309 -0.5581  1.0150  0.1285
 6530TIP3    H241006   0.690   5.129   0.312  0.9324  0.7412 -0.1519
 6531TIP3   OH241007   6.771   5.827   2.740 -0.6427 -0.1990  0.3767
 6531TIP3    H141008   6.756   5.743   2.783 -2.2813 -0.0606  0.1714
 6531TIP3    H241009   6.687   5.873   2.748 -0.2835  0.7626 -0.9210
 6532TIP3   OH241010   2.313   6.021  11.461 -0.3184 -0.0456 -0.0709
 6532TIP3    H141011   2.228   5.990  11.492  0.1811 -2.2016 -0.6684
 6532TIP3    H241012   2.342   6.082  11.529 -1.4911 -0.7420  1.1191
 6533TIP3   OH241013   0.555   3.624  15.286 -0.8361  0.0126  0.6422
 6533TIP3    H141014   0.646   3.654  15.290 -0.5709 -0.9085  2.3345
 6533TIP3    H241015   0.504   3.705  15.283  0.0294  0.5449 -1.5591
 6534TIP3   OH241016   2.721   3.102   0.870  0.4831 -0.5424 -0.0315
 6534TIP3    H141017   2.649   3.164   0.877 -1.2357 -2.3052 -1.0722
 6534TIP3    H241018   2.775   3.136   0.800  0.5619  0.6749  0.5888
 6535TIP3   OH241019   0.612   3.039  15.338  0.4931 -0.4327  0.6106
 6535TIP3    H141020   0.524   3.075  15.347  0.2660 -0.9860  0.6357
 6535TIP3    H241021   0.609   2.989  15.256  1.5427  1.6912 -0.8276
 6536TIP3   OH241022   2.291   6.159   5.850  0.2276  0.3582 -0.3724
 6536TIP3    H141023   2.383   6.181   5.863  0.6990 -1.4226 -0.3642
 6536TIP3    H241024   2.287   6.064   5.864 -1.8881  0.5963  1.1651
 6537TIP3   OH241025   5.168   0.464   3.487  0.0615  0.1764  0.1192
 6537TIP3    H141026   5.090   0.518   3.472 -0.7981 -0.9215  0.5033
 6537TIP3    H241027   5.176   0.410   3.409  0.8297  0.7229 -0.1956
 6538TIP3   OH241028   4.703   1.944  17.086  0.1817 -0.1844 -0.1499
 6538TIP3    H141029   4.611   1.919  17.097 -0.4361  2.2100  0.9634
 6538TIP3    H241030   4.700   2.025  17.034  1.5030  0.7345  1.1186
 6539TIP3   OH241031   4.507   4.794  11.204 -0.3377 -0.3712  0.0166
 6539TIP3    H141032   4.485   4.817  11.114 -0.3592  2.1125  0.5950
 6539TIP3    H241033   4.597   4.825  11.215 -0.0385 -1.4025  0.6523
 6540TIP3   OH241034   0.344   3.572   5.531 -1.1179  0.4385  0.5279
 6540TIP3    H141035   0.361   3.498   5.589 -2.1815  0.3281  0.7179
 6540TIP3    H241036   0.300   3.534   5.455 -2.9435  1.0195  1.2412
 6541TIP3   OH241037   3.418   0.600   4.065  0.1731  0.0780 -0.6130
 6541TIP3    H141038   3.451   0.689   4.059 -0.5824  0.9192  3.9463
 6541TIP3    H241039   3.482   0.554   4.119 -2.5948 -0.0147  2.9502
 6542TIP3   OH241040   1.950   3.410   0.734 -0.0221 -0.5187 -0.1216
 6542TIP3    H141041   1.881   3.388   0.672 -0.2881 -0.5767  0.1915
 6542TIP3    H241042   2.030   3.379   0.693 -0.1701 -0.3772 -0.5255
 6543TIP3   OH241043   2.489   2.265   4.115  0.0962 -0.1390  0.2258
 6543TIP3    H141044   2.525   2.176   4.109  0.2727 -0.0346 -0.2853
 6543TIP3    H241045   2.556   2.315   4.161  1.2618  0.3869 -1.9366
 6544TIP3   OH241046   0.688   2.640  13.549 -0.0290 -0.2459 -0.1637
 6544TIP3    H141047   0.630   2.582  13.599 -1.0819 -0.6621 -1.7827
 6544TIP3    H241048   0.629   2.705  13.512  0.8847  0.6800 -0.0039
 6545TIP3   OH241049   5.789   6.348  16.099 -0.4571 -0.3332 -0.3318
 6545TIP3    H141050   5.858   6.295  16.060  0.1911  0.3589 -0.1491
 6545TIP3    H241051   5.760   6.298  16.176  0.1855 -0.3963 -0.1277
 6546TIP3   OH241052   3.381   5.164   2.492  0.6069 -0.4759  0.1040
 6546TIP3    H141053   3.303   5.217   2.480 -0.4542 -2.0034 -0.0802
 6546TIP3    H241054   3.431   5.209   2.560 -0.0874  0.8945 -0.2709
 6547TIP3   OH241055   6.004   1.291   3.784  0.0823 -0.8769  0.2761
 6547TIP3    H141056   5.974   1.210   3.742  0.3236 -0.0184 -1.6640
 6547TIP3    H241057   6.096   1.273   3.805  0.2496 -1.0132 -0.4996
 6548TIP3   OH241058   4.776   1.924   0.661 -0.4401  0.0008 -0.3589
 6548TIP3    H141059   4.844   1.882   0.608 -1.5866  0.1146 -1.9945
 6548TIP3    H241060   4.796   2.017   0.655  1.0383 -0.0905  1.7790
 6549TIP3   OH241061   6.509   2.176  14.287  0.3486  0.1142 -0.7847
 6549TIP3    H141062   6.475   2.094  14.251  1.8370 -0.4600 -0.9264
 6549TIP3    H241063   6.437   2.238  14.277 -1.6007 -1.6451  1.1944
 6550TIP3   OH241064   6.210   3.519  17.284  0.7388  0.3663 -0.4481
 6550TIP3    H141065   6.214   3.442  17.341 -0.5285  1.1324  0.7669
 6550TIP3    H241066   6.219   3.593  17.345 -0.2810  1.2069 -1.2896
 6551TIP3   OH241067   6.160   0.592   4.335 -0.1384 -0.1458 -0.0971
 6551TIP3    H141068   6.170   0.501   4.308 -2.5121 -0.1158 -1.2394
 6551TIP3    H241069   6.111   0.633   4.265 -2.3164  1.1150  2.0284
 6552TIP3   OH241070   0.861   3.323   2.384 -0.8037 -0.6255  0.3337
 6552TIP3    H141071   0.943   3.325   2.335  0.0636 -0.5739  1.7314
 6552TIP3    H241072   0.800   3.275   2.328 -0.0794  0.0869 -1.0960
 6553TIP3   OH241073   0.546   5.253   5.450  0.1605  0.0725  0.1691
 6553TIP3    H141074   0.552   5.343   5.417  1.7119  0.3183  1.0049
 6553TIP3    H241075   0.528   5.263   5.543  0.6839 -0.4539  0.3349
 6554TIP3   OH241076   0.817   6.696  16.570 -0.7444  0.8143 -0.2298
 6554TIP3    H141077   0.889   6.708  16.631 -0.2801 -3.1042  0.2212
 6554TIP3    H241078   0.858   6.670  16.487 -1.5033  3.4169 -1.5345
 6555TIP3   OH241079   3.198   5.301  14.262 -0.2487  0.2969 -0.1070
 6555TIP3    H141080   3.109   5.296  14.298 -0.5718 -0.3700 -0.9602
 6555TIP3    H241081   3.251   5.337  14.333 -1.2823  1.1229  0.2669
 6556TIP3   OH241082   2.666   3.577  14.123 -0.0957  0.0161 -0.5866
 6556TIP3    H141083   2.695   3.508  14.063 -0.3028 -0.9832  0.4409
 6556TIP3    H241084   2.590   3.617  14.080 -0.5773 -1.0539 -0.7385
 6557TIP3   OH241085   5.727   0.966   3.086  0.6020 -0.1610 -0.0451
 6557TIP3    H141086   5.641   0.997   3.113  0.7535 -0.9756  1.4780
 6557TIP3    H241087   5.732   0.987   2.993 -0.0829  2.5019  0.4322
 6558TIP3   OH241088   6.638   3.950  13.435 -0.1005  0.0729  0.5482
 6558TIP3    H141089   6.626   3.938  13.529  0.0583 -0.4542  0.5048
 6558TIP3    H241090   6.686   3.872  13.407 -1.7686 -0.7099 -0.2893
 6559TIP3   OH241091   6.000   6.651  15.033  0.9971 -0.5781 -0.0965
 6559TIP3    H141092   5.954   6.701  15.100  0.2358 -0.0958 -0.9468
 6559TIP3    H241093   5.947   6.572  15.020  1.1078 -0.6409 -0.1646
 6560TIP3   OH241094   5.666   3.077  10.500 -0.4594 -0.3662  0.0772
 6560TIP3    H141095   5.687   3.098  10.591 -0.2450 -2.2053  0.4945
 6560TIP3    H241096   5.705   3.148  10.449  0.7008 -0.0703  1.3313
 6561TIP3   OH241097   6.044   5.977   6.521  0.0686 -0.1289  0.2552
 6561TIP3    H141098   5.991   6.056   6.514 -0.3934 -0.4113  0.5275
 6561TIP3    H241099   6.104   5.995   6.593 -0.7522 -0.4287  1.0357
 6562TIP3   OH241100   4.023   0.836  13.714 -0.5190 -0.1495 -0.9232
 6562TIP3    H141101   4.046   0.813  13.804 -1.0574  0.6302 -0.5698
 6562TIP3    H241102   3.930   0.857  13.718 -0.9305 -1.6328 -1.9871
 6563TIP3   OH241103   4.005   4.936  16.570 -0.2160 -0.4910  0.4513
 6563TIP3    H141104   4.060   5.002  16.528 -0.0764 -0.6153  0.4382
 6563TIP3    H241105   3.916   4.959  16.545 -0.1696 -0.2921  0.4664
 6564TIP3   OH241106   0.779   0.950   2.173 -0.0648 -0.1826 -0.0849
 6564TIP3    H141107   0.695   0.939   2.129  0.1657  0.3714 -0.6868
 6564TIP3    H241108   0.777   1.039   2.207  0.3381 -0.1054 -0.2491
 6565TIP3   OH241109   2.444   3.097  14.428  0.5833  0.5809  0.1985
 6565TIP3    H141110   2.412   3.121  14.515 -1.2837  0.4454 -0.4071
 6565TIP3    H241111   2.490   3.014  14.440 -1.0316 -0.2490  0.8144
 6566TIP3   OH241112   1.448   0.532   3.416  0.3177 -0.2313  0.1567
 6566TIP3    H141113   1.424   0.442   3.438  2.9641 -1.6168 -2.0636
 6566TIP3    H241114   1.366   0.571   3.385 -1.1047 -1.4748  2.0691
 6567TIP3   OH241115   6.334   4.076  16.354 -0.7647 -0.1560 -0.0604
 6567TIP3    H141116   6.391   4.022  16.409 -0.9863 -0.1564  0.1738
 6567TIP3    H241117   6.363   4.059  16.265 -0.0592  0.2434  0.0915
 6568TIP3   OH241118   1.906   2.217   4.831  0.0227  0.3396 -0.0641
 6568TIP3    H141119   1.948   2.168   4.761  0.6808  1.0819 -0.2104
 6568TIP3    H241120   1.964   2.292   4.845 -0.1727  0.2768  1.1725
 6569TIP3   OH241121   0.546   1.798  12.923 -0.2296  0.1235 -0.9523
 6569TIP3    H141122   0.603   1.873  12.941  0.2583 -0.0899 -1.5473
 6569TIP3    H241123   0.519   1.766  13.009 -0.0378  0.6792 -0.6847
 6570TIP3   OH241124   0.364   2.897   3.548  0.4786  0.1726  0.6157
 6570TIP3    H141125   0.437   2.954   3.571  0.2731  0.8254 -0.2731
 6570TIP3    H241126   0.304   2.902   3.622  0.7944  0.5497  0.8440
 6571TIP3   OH241127   4.919   2.690   5.532  0.2570  0.4594  0.2496
 6571TIP3    H141128   4.926   2.595   5.542 -0.1653  0.4418  0.4037
 6571TIP3    H241129   4.930   2.705   5.438  0.6445  0.2858  0.2690
 6572TIP3   OH241130   6.100   0.394   2.211  0.5518 -0.1614  0.3215
 6572TIP3    H141131   6.016   0.397   2.256  0.0693  0.4143 -0.5888
 6572TIP3    H241132   6.134   0.484   2.218 -0.3693  0.4461 -1.9582
 6573TIP3   OH241133   1.502   1.018  11.618  0.7516  0.0283 -0.4167
 6573TIP3    H141134   1.487   0.980  11.532 -0.7332  0.4916 -0.3876
 6573TIP3    H241135   1.527   1.109  11.600 -0.0505  0.2668 -0.3547
 6574TIP3   OH241136   6.167   0.675   2.235 -0.4312  0.3579  0.7216
 6574TIP3    H141137   6.248   0.683   2.185 -0.6820  0.8381  0.3831
 6574TIP3    H241138   6.121   0.758   2.220 -0.6502  0.3870  1.5023
 6575TIP3   OH241139   4.105   6.283  15.053 -0.1665  0.3705  0.6300
 6575TIP3    H141140   4.121   6.212  15.114 -1.0864 -0.5024 -0.1117
 6575TIP3    H241141   4.050   6.345  15.103 -0.2601  0.0428  0.9409
 6576TIP3   OH241142   4.793   0.539   5.071 -0.7729 -0.1480 -0.1408
 6576TIP3    H141143   4.778   0.489   5.151 -1.2547  0.9425  0.4663
 6576TIP3    H241144   4.758   0.626   5.089  1.9608  1.0938 -0.3926
 6577TIP3   OH241145   3.980   1.616  13.665 -0.3608  0.0409 -0.2884
 6577TIP3    H141146   3.939   1.702  13.660  1.2353  0.7989 -0.8888
 6577TIP3    H241147   4.056   1.629  13.721 -0.3556 -1.1117  0.0101
 6578TIP3   OH241148   6.289   3.188  17.074 -0.3977 -0.6371  0.4127
 6578TIP3    H141149   6.320   3.259  17.018  0.5915  0.0599  1.7820
 6578TIP3    H241150   6.196   3.207  17.087  0.3046  1.9888  2.8037
 6579TIP3   OH241151   4.269   0.118  17.306 -0.0755  0.1359  0.2905
 6579TIP3    H141152   4.207   0.103  17.235 -1.5309  1.0506  1.3076
 6579TIP3    H241153   4.313   0.034  17.318 -0.0126 -0.1190 -1.4529
 6580TIP3   OH241154   0.463   6.602  16.625  0.5567 -0.7261 -0.4521
 6580TIP3    H141155   0.513   6.654  16.687  2.2853 -1.2935 -1.3070
 6580TIP3    H241156   0.437   6.665  16.557 -3.2905  0.4143  1.7554
 6581TIP3   OH241157   2.451   0.788  17.051 -0.0246 -0.1982  0.5583
 6581TIP3    H141158   2.444   0.845  17.128 -2.3824  1.1508 -0.5430
 6581TIP3    H241159   2.364   0.749  17.042 -0.1594  0.5217 -1.9857
 6582TIP3   OH241160   0.942   2.012  11.879 -0.5006  0.5503  0.1751
 6582TIP3    H141161   0.986   2.093  11.851 -0.9494  1.0057  0.7684
 6582TIP3    H241162   0.954   1.952  11.805  1.4517  0.5220  0.4480
 6583TIP3   OH241163   6.524   4.042  12.564  0.0725  0.3935  0.1785
 6583TIP3    H141164   6.504   3.950  12.584 -0.7986  0.6625  0.6196
 6583TIP3    H241165   6.607   4.059  12.607  1.0478 -0.6106 -1.2115
 6584TIP3   OH241166   1.535   6.145  12.085 -0.2183  0.1350  0.1155
 6584TIP3    H141167   1.490   6.149  12.170  1.2610  1.1895  0.9083
 6584TIP3    H241168   1.627   6.161  12.107  0.0039  1.8706 -1.8502
 6585TIP3   OH241169   5.911   0.798  13.974 -0.2570 -0.1748 -0.8976
 6585TIP3    H141170   5.900   0.879  13.925 -0.6959  0.3006 -0.0440
 6585TIP3    H241171   6.004   0.778  13.967 -0.1583  0.3612 -1.1833
 6586TIP3   OH241172   3.820   3.903   1.689 -0.3414 -0.3281  0.2858
 6586TIP3    H141173   3.839   3.922   1.781  0.7489  0.0274  0.0061
 6586TIP3    H241174   3.862   3.819   1.673 -1.9907 -1.2362  0.5392
 6587TIP3   OH241175   6.194   3.599   0.302 -0.0094  0.0228  0.0611
 6587TIP3    H141176   6.198   3.517   0.253 -0.4397 -0.9431  1.5738
 6587TIP3    H241177   6.131   3.582   0.372  1.7915  0.7772  1.9578
 6588TIP3   OH241178   2.923   5.976  11.037 -0.3479  0.5265  0.8288
 6588TIP3    H141179   2.894   5.903  10.982  0.4488  0.6085  0.2887
 6588TIP3    H241180   2.851   6.038  11.035 -0.3209  0.5323 -0.1385
 6589TIP3   OH241181   4.448   3.509   2.549 -0.5483  0.5044  0.2248
 6589TIP3    H141182   4.441   3.482   2.641 -0.0640  0.5477  0.2763
 6589TIP3    H241183   4.445   3.605   2.552 -3.0723  0.5018 -0.0223
 6590TIP3   OH241184   1.027   5.236  14.110 -0.2115 -0.1707 -0.9115
 6590TIP3    H141185   1.070   5.282  14.037 -1.1002 -0.1848 -1.4613
 6590TIP3    H241186   1.013   5.147  14.078  0.6602 -0.5763 -0.1923
 6591TIP3   OH241187   0.309   6.359   5.174  0.1505  0.4732 -0.1958
 6591TIP3    H141188   0.276   6.388   5.088 -0.9494  1.9952  0.6740
 6591TIP3    H241189   0.243   6.297   5.205  0.2727  0.3306 -0.2201
 6592TIP3   OH241190   5.265   6.475   3.363  0.3620 -0.2725 -0.1572
 6592TIP3    H141191   5.203   6.450   3.431  0.5132  0.1757  0.1497
 6592TIP3    H241192   5.346   6.494   3.410  0.4512  0.0936 -0.4508
 6593TIP3   OH241193   3.459   3.593   3.474 -0.4600  0.1440  0.2611
 6593TIP3    H141194   3.433   3.673   3.519  0.9717  0.3388  0.8124
 6593TIP3    H241195   3.378   3.557   3.438 -1.2800  1.2424  0.9722
 6594TIP3   OH241196   0.468   5.477  12.379 -0.1081  0.6903 -0.3680
 6594TIP3    H141197   0.373   5.473  12.390  0.1589 -0.6205  2.2143
 6594TIP3    H241198   0.493   5.561  12.418 -0.1266  0.7281 -0.4368
 6595TIP3   OH241199   6.737   6.469  13.008  0.0516  0.0662 -0.3052
 6595TIP3    H141200   6.730   6.562  13.031 -1.1255 -0.3129  0.9778
 6595TIP3    H241201   6.765   6.426  13.088 -0.2496 -0.7968 -0.6490
 6596TIP3   OH241202   3.364   1.010  16.250  0.4082 -0.0193 -0.2385
 6596TIP3    H141203   3.395   0.978  16.165 -0.4898 -1.6775  0.0260
 6596TIP3    H241204   3.284   1.058  16.230 -0.9564 -2.1179 -0.2105
 6597TIP3   OH241205   5.490   3.666   4.224  0.2234 -0.4805 -0.5014
 6597TIP3    H141206   5.446   3.715   4.293  3.1218  1.4027  0.1725
 6597TIP3    H241207   5.558   3.615   4.270  1.3067 -0.2640 -1.7891
 6598TIP3   OH241208   1.557   1.515  12.550  0.7070  0.2750 -0.1743
 6598TIP3    H141209   1.643   1.518  12.591 -0.2635 -0.3923  2.0712
 6598TIP3    H241210   1.549   1.425  12.518  0.3810 -0.0474  0.7734
 6599TIP3   OH241211   0.171   2.448  13.657 -0.3990 -0.2179  0.4642
 6599TIP3    H141212   0.188   2.433  13.564  0.4042  1.8694  0.2135
 6599TIP3    H241213   0.181   2.542  13.668  1.5230 -0.6280  3.0814
 6600TIP3   OH241214   5.715   1.907  14.245 -0.1473  0.0650  0.1339
 6600TIP3    H141215   5.717   1.822  14.288 -1.8139 -0.1191 -0.0926
 6600TIP3    H241216   5.796   1.949  14.272  1.2101 -1.9620 -0.5496
 6601TIP3   OH241217   2.752   0.571   1.143  1.0280 -0.1112 -0.4751
 6601TIP3    H141218   2.807   0.642   1.110  0.2316  1.0207  0.5537
 6601TIP3    H241219   2.675   0.572   1.086  0.7451  0.2687 -0.0978
 6602TIP3   OH241220   0.485   2.860   2.213 -0.0586 -0.1689 -0.5169
 6602TIP3    H141221   0.397   2.885   2.241  0.6831  0.2041  1.6304
 6602TIP3    H241222   0.492   2.896   2.124 -0.7823  3.1040  0.6091
 6603TIP3   OH241223   2.325   1.750  12.582 -0.0677  0.1673 -0.5073
 6603TIP3    H141224   2.245   1.782  12.541 -0.2456  1.6419  0.8891
 6603TIP3    H241225   2.298   1.672  12.630 -0.5698  0.3485 -0.4894
 6604TIP3   OH241226   1.864   5.345  14.660 -0.4073  0.0463 -0.3842
 6604TIP3    H141227   1.821   5.380  14.581  0.9852  1.3240 -0.6199
 6604TIP3    H241228   1.920   5.274  14.628  0.0533  0.4745 -0.5395
 6605TIP3   OH241229   0.566   5.911   2.793  0.2051  0.9759  0.1594
 6605TIP3    H141230   0.593   5.829   2.751  1.1958  1.6117 -0.5228
 6605TIP3    H241231   0.603   5.906   2.881  0.1105  0.6178  0.1814
 6606TIP3   OH241232   1.205   2.772  11.353  0.5442 -0.1386 -0.4047
 6606TIP3    H141233   1.166   2.695  11.393 -0.3094  1.2917  1.6761
 6606TIP3    H241234   1.132   2.817  11.311  0.5756  0.7210  0.4297
 6607TIP3   OH241235   3.618   5.907   0.178  0.0208  0.4014  0.1115
 6607TIP3    H141236   3.687   5.959   0.138 -0.1511  0.8770  0.4239
 6607TIP3    H241237   3.600   5.837   0.114  0.1631  0.8003 -0.3688
 6608TIP3   OH241238   0.450   0.213   1.827  0.4571  0.5849 -0.4077
 6608TIP3    H141239   0.527   0.204   1.883  1.4199  0.6345 -1.6651
 6608TIP3    H241240   0.416   0.124   1.818 -0.3524  0.7121  1.0798
 6609TIP3   OH241241   5.844   5.440   3.013 -0.8536 -0.5086  0.3421
 6609TIP3    H141242   5.825   5.462   2.922 -0.9482  0.0850  0.5042
 6609TIP3    H241243   5.866   5.523   3.055  0.0895 -0.9060  0.6527
 6610TIP3   OH241244   0.399   2.397  15.106 -0.2646 -0.8476  0.2321
 6610TIP3    H141245   0.348   2.448  15.169  1.3325  0.1804  0.7569
 6610TIP3    H241246   0.367   2.426  15.021 -0.4218 -0.0603  0.5500
 6611TIP3   OH241247   0.604   1.736  15.787 -0.1117  0.7367  0.2482
 6611TIP3    H141248   0.573   1.668  15.846  1.1250  0.2796  0.3875
 6611TIP3    H241249   0.653   1.689  15.720  1.4797  1.5382  0.8020
 6612TIP3   OH241250   3.910   0.781   0.256 -0.0689 -0.6773 -0.0749
 6612TIP3    H141251   3.830   0.826   0.230 -0.1839 -0.2665  0.9236
 6612TIP3    H241252   3.952   0.841   0.319  1.7710 -0.2232 -1.6431
 6613TIP3   OH241253   6.690   0.731  13.567 -0.1306 -0.1247 -0.3688
 6613TIP3    H141254   6.770   0.749  13.517  0.5385  0.2603  0.8045
 6613TIP3    H241255   6.702   0.642  13.601 -0.5066 -0.3193 -0.7361
 6614TIP3   OH241256   0.765   1.520  12.295  0.9558 -0.7341  0.3786
 6614TIP3    H141257   0.846   1.497  12.341  3.4467  3.7928 -1.0812
 6614TIP3    H241258   0.731   1.596  12.342 -1.0988 -1.0471 -0.5086
 6615TIP3   OH241259   6.405   4.317   3.889  0.1956 -0.0374 -0.1446
 6615TIP3    H141260   6.430   4.404   3.861  0.2208 -0.6716 -2.2113
 6615TIP3    H241261   6.465   4.297   3.961  0.8544  1.2282 -0.3234
 6616TIP3   OH241262   0.936   2.667   2.931  0.0850  1.0644 -0.2022
 6616TIP3    H141263   0.991   2.735   2.891  2.9817 -1.2722 -0.5977
 6616TIP3    H241264   0.997   2.596   2.950 -2.4751 -0.7941  1.7585
 6617TIP3   OH241265   4.586   0.799  11.220 -0.1764  0.2223  0.4997
 6617TIP3    H141266   4.648   0.739  11.262 -0.4118  0.7285  1.6177
 6617TIP3    H241267   4.501   0.755  11.228 -0.2579  0.4274  0.7881
 6618TIP3   OH241268   4.475   6.674  16.328 -0.3529 -1.0261 -0.0794
 6618TIP3    H141269   4.439   6.586  16.316 -1.2004 -0.9321  1.5529
 6618TIP3    H241270   4.401   6.733  16.314 -0.5758 -0.7618  1.8519
 6619TIP3   OH241271   0.469   5.003   2.779  0.2208 -0.2878 -0.2421
 6619TIP3    H141272   0.438   4.982   2.867 -0.0942  0.4336 -0.1743
 6619TIP3    H241273   0.406   4.960   2.721 -0.2489  0.1970 -0.1050
 6620TIP3   OH241274   4.397   1.588  12.786  0.3445  0.6404 -0.1322
 6620TIP3    H141275   4.326   1.524  12.776  1.2038 -0.4059  0.2942
 6620TIP3    H241276   4.370   1.662  12.731 -1.0532  0.2572 -0.0177
 6621TIP3   OH241277   1.820   4.829  16.711  0.0056 -0.2800  0.4575
 6621TIP3    H141278   1.785   4.903  16.760  0.2721 -1.0763  1.9119
 6621TIP3    H241279   1.743   4.782  16.680 -0.1693 -0.0295  0.5080
 6622TIP3   OH241280   5.260   2.413  16.346  0.0931 -0.2042 -0.6247
 6622TIP3    H141281   5.287   2.322  16.335  2.0788  0.3565 -0.6694
 6622TIP3    H241282   5.216   2.435  16.264  0.1524 -0.9367 -0.8628
 6623TIP3   OH241283   0.835   2.136   6.180  0.4319 -0.1033 -0.1325
 6623TIP3    H141284   0.877   2.205   6.231  1.0012 -1.0486  0.7099
 6623TIP3    H241285   0.754   2.118   6.228  0.4802 -0.2996 -0.1266
 6624TIP3   OH241286   3.062   6.542   0.673 -0.5017 -0.3370  0.6782
 6624TIP3    H141287   3.040   6.470   0.732  2.3244 -1.3806  0.6054
 6624TIP3    H241288   3.108   6.501   0.600 -0.8514  1.3284 -0.5669
 6625TIP3   OH241289   1.159   5.183  13.425 -0.2233  0.0232 -0.9261
 6625TIP3    H141290   1.076   5.136  13.434 -0.3255  0.3957  0.1286
 6625TIP3    H241291   1.219   5.136  13.483  0.2405 -0.0790 -1.4789
 6626TIP3   OH241292   4.663   1.781  13.981 -0.7483 -0.3584 -0.3242
 6626TIP3    H141293   4.728   1.826  13.927 -0.8625  1.0035  0.6057
 6626TIP3    H241294   4.663   1.691  13.950  2.8230 -0.8679  0.7321
 6627TIP3   OH241295   2.442   0.520  11.809  0.2034 -0.4109  0.4204
 6627TIP3    H141296   2.372   0.474  11.856 -0.0582 -0.8690 -0.3875
 6627TIP3    H241297   2.419   0.613  11.816 -1.1757 -0.6027 -0.8332
 6628TIP3   OH241298   2.893   2.505  14.527 -0.1778  0.1659 -0.0380
 6628TIP3    H141299   2.882   2.537  14.616  0.0860  0.9137 -0.2640
 6628TIP3    H241300   2.931   2.579  14.480 -0.9404  0.0122 -0.9309
 6629TIP3   OH241301   5.132   1.950  15.023 -0.1204  0.7611  0.4022
 6629TIP3    H141302   5.094   1.973  14.938  0.0651  0.7000  0.2998
 6629TIP3    H241303   5.129   1.854  15.025  0.7914  0.7097  0.0246
 6630TIP3   OH241304   1.873   5.813   4.270  0.2759 -0.4175 -0.5453
 6630TIP3    H141305   1.795   5.758   4.277 -0.5368  0.5607 -1.4332
 6630TIP3    H241306   1.936   5.760   4.220  0.3496 -1.3724  0.5360
 6631TIP3   OH241307   0.059   3.020  17.025  0.2350 -0.2307 -0.4103
 6631TIP3    H141308  -0.013   3.083  17.025  1.2138  0.9630  1.1965
 6631TIP3    H241309   0.067   2.993  17.116  1.0134 -1.3181 -0.7856
 6632TIP3   OH241310   5.624   2.184   0.771  0.0942  0.3020 -0.0453
 6632TIP3    H141311   5.572   2.134   0.834 -1.5825  1.0386 -0.7899
 6632TIP3    H241312   5.560   2.220   0.709  1.5126  1.1004 -1.1215
 6633TIP3   OH241313   1.431   0.536   1.815  0.0797 -0.7169 -0.0009
 6633TIP3    H141314   1.366   0.605   1.827  0.7969 -0.0771  0.3019
 6633TIP3    H241315   1.474   0.556   1.732  0.6609 -0.4814  0.3511
 6634TIP3   OH241316   2.093   0.798   4.211  0.0210 -0.5063  0.2316
 6634TIP3    H141317   2.034   0.785   4.137  1.2871  1.3719 -1.1957
 6634TIP3    H241318   2.091   0.893   4.226  0.1194 -0.7947  2.3555
 6635TIP3   OH241319   5.826   0.731   3.013 -0.0761  0.0290 -0.0018
 6635TIP3    H141320   5.797   0.811   3.057 -1.1193 -0.3128 -0.0428
 6635TIP3    H241321   5.792   0.739   2.924  1.1237  0.2339 -0.4539
 6636TIP3   OH241322   5.652   1.572   5.436  0.3102 -0.4243  0.0273
 6636TIP3    H141323   5.620   1.612   5.517  0.2196  2.4522 -1.3191
 6636TIP3    H241324   5.589   1.501   5.418 -1.3143  0.7089  1.0148
 6637TIP3   OH241325   1.422   0.912  11.394  0.5591 -0.0147 -0.1195
 6637TIP3    H141326   1.479   0.897  11.319  1.3227 -0.6569  0.5751
 6637TIP3    H241327   1.345   0.857  11.377  1.7136 -1.9766  0.6075
 6638TIP3   OH241328   6.132   5.686   3.685 -0.1309  0.1811 -0.3499
 6638TIP3    H141329   6.064   5.748   3.711  1.2611  1.2690  0.8837
 6638TIP3    H241330   6.186   5.736   3.623 -0.3751 -0.6333 -1.2410
 6639TIP3   OH241331   4.653   5.502   3.836  0.1733 -0.1568 -0.0523
 6639TIP3    H141332   4.703   5.443   3.780  1.7913  1.6376 -0.6027
 6639TIP3    H241333   4.699   5.586   3.831 -2.1814  1.2844  0.4334
 6640TIP3   OH241334   5.657   0.311   3.995 -0.1321  0.6109 -0.4144
 6640TIP3    H141335   5.706   0.249   4.048 -2.9709  0.4936  2.3504
 6640TIP3    H241336   5.674   0.396   4.036 -1.9527  0.5880  0.4992
 6641TIP3   OH241337   2.696   4.162  12.822  0.7184  0.8723  0.3180
 6641TIP3    H141338   2.748   4.195  12.895  2.2525  0.6092 -0.6102
 6641TIP3    H241339   2.752   4.097  12.780 -0.4052  0.5101 -0.6748
 6642TIP3   OH241340   0.782   2.974  10.696  0.0856 -0.1568 -0.4374
 6642TIP3    H141341   0.828   2.940  10.773 -0.2575 -0.3739 -0.3255
 6642TIP3    H241342   0.782   3.069  10.708 -1.8352 -0.2614  0.9423
 6643TIP3   OH241343   6.750   5.918   1.979 -0.1077  0.3464  0.3069
 6643TIP3    H141344   6.822   5.924   2.042 -0.0532  0.0962  0.2680
 6643TIP3    H241345   6.679   5.875   2.027  0.5747 -1.6347 -0.3594
 6644TIP3   OH241346   4.662   2.053  14.456 -0.3692 -0.2652  0.0173
 6644TIP3    H141347   4.567   2.067  14.459 -0.4952 -0.9746 -0.4389
 6644TIP3    H241348   4.678   2.017  14.369  0.4462  0.6688 -0.2399
 6645TIP3   OH241349   1.147   0.887  13.064 -0.6033 -0.7861 -0.1533
 6645TIP3    H141350   1.137   0.875  12.969  1.7963  0.4669 -0.6442
 6645TIP3    H241351   1.142   0.981  13.077  0.8444 -0.7931  0.6927
 6646TIP3   OH241352   2.487   4.132  15.058 -0.3185 -0.0329  0.0208
 6646TIP3    H141353   2.577   4.147  15.027 -0.3765 -1.8467 -1.1445
 6646TIP3    H241354   2.433   4.186  15.001 -0.0726  0.0988 -0.0931
 6647TIP3   OH241355   6.187   0.722  12.193 -0.7518  0.0385 -0.3919
 6647TIP3    H141356   6.258   0.715  12.257 -1.3464  2.1541  0.6273
 6647TIP3    H241357   6.111   0.684  12.237 -1.3360  2.1337  0.5826
 6648TIP3   OH241358   0.145   3.997  16.050 -0.1141  0.1426  0.3471
 6648TIP3    H141359   0.177   3.929  16.109  0.5574  0.5526  0.4745
 6648TIP3    H241360   0.158   3.960  15.962 -1.8835 -0.7982  0.4430
 6649TIP3   OH241361   0.872   2.116   3.286  0.1089  0.1901 -0.7716
 6649TIP3    H141362   0.921   2.064   3.349  1.1528 -0.4259 -2.0424
 6649TIP3    H241363   0.799   2.152   3.336  0.1947 -1.2886  0.4930
 6650TIP3   OH241364   5.516   0.097   0.749  0.3435  0.0818  0.4017
 6650TIP3    H141365   5.499   0.042   0.672 -1.9397 -0.0102  0.8953
 6650TIP3    H241366   5.493   0.041   0.824 -2.4995  1.7317  0.8974
 6651TIP3   OH241367   2.450   4.412   0.165  0.6674  0.7489  0.4193
 6651TIP3    H141368   2.382   4.376   0.222  1.2482 -0.5577  0.3213
 6651TIP3    H241369   2.519   4.439   0.225  0.8108  0.4178  0.4017
 6652TIP3   OH241370   6.746   2.793  15.806  0.0732 -1.0434 -0.4899
 6652TIP3    H141371   6.752   2.699  15.785  1.7819 -0.4020 -3.4147
 6652TIP3    H241372   6.837   2.823  15.809 -0.4610  0.6728 -0.3103
 6653TIP3   OH241373   3.662   2.190   4.149  0.2681  0.1462  0.5134
 6653TIP3    H141374   3.634   2.263   4.094  0.2608  1.9743  2.7541
 6653TIP3    H241375   3.754   2.177   4.126  0.4362  1.2858  0.4507
 6654TIP3   OH241376   0.717   5.548   4.377  0.1603 -0.0873  0.1572
 6654TIP3    H141377   0.715   5.626   4.321  0.9471  0.9900  1.5397
 6654TIP3    H241378   0.727   5.583   4.466 -1.6663 -1.7041  1.0632
 6655TIP3   OH241379   2.350   3.593  12.600 -0.1481 -0.2483  0.3591
 6655TIP3    H141380   2.309   3.673  12.567 -1.2832 -0.4141  1.2778
 6655TIP3    H241381   2.302   3.522  12.558  0.9976 -0.4700 -0.6220
 6656TIP3   OH241382   0.143   0.805  16.314  0.4295 -0.7808  0.4007
 6656TIP3    H141383   0.136   0.796  16.409  0.3624 -0.5491  0.4162
 6656TIP3    H241384   0.097   0.886  16.294 -0.2909 -1.2548  0.0772
 6657TIP3   OH241385   3.425   0.550   0.607 -0.0159  0.1710  0.2290
 6657TIP3    H141386   3.334   0.578   0.598  0.0656  0.1574 -0.7039
 6657TIP3    H241387   3.450   0.520   0.520  0.7851 -0.1368  0.5538
 6658TIP3   OH241388   6.204   4.350   3.600 -0.0959  0.3378  0.2014
 6658TIP3    H141389   6.119   4.306   3.592 -1.2518  2.3236  0.8193
 6658TIP3    H241390   6.193   4.410   3.674  3.0644 -1.8879  2.7055
 6659TIP3   OH241391   6.340   1.271  16.686 -0.2887  0.6820 -0.2298
 6659TIP3    H141392   6.248   1.265  16.664  0.0239 -0.1411 -1.4118
 6659TIP3    H241393   6.374   1.341  16.630 -0.5177  2.2878  1.5046
 6660TIP3   OH241394   6.382   1.346  16.976 -0.4532  0.0727 -0.3859
 6660TIP3    H141395   6.441   1.418  16.955  0.4435 -0.8514 -1.1602
 6660TIP3    H241396   6.346   1.319  16.891  0.8159 -1.6966 -0.4129
 6661TIP3   OH241397   2.786   0.994   5.570  0.0180 -0.1691  0.4407
 6661TIP3    H141398   2.726   0.925   5.598  0.1662 -0.3672  0.2783
 6661TIP3    H241399   2.729   1.068   5.548 -0.3194 -0.9256 -1.3953
 6662TIP3   OH241400   2.863   4.402   2.949  0.0071 -0.3649  0.3375
 6662TIP3    H141401   2.807   4.431   3.021 -1.8924  0.0348 -1.2090
 6662TIP3    H241402   2.806   4.401   2.872  2.1563  0.1617 -1.3910
 6663TIP3   OH241403   6.213   2.962  11.276 -0.2135 -0.4570  0.1207
 6663TIP3    H141404   6.243   3.017  11.348 -0.2098  0.3069 -0.4552
 6663TIP3    H241405   6.129   3.000  11.250 -0.7536 -1.4054  0.4494
 6664TIP3   OH241406   3.281   5.620   2.038  0.0473  0.1706  0.2117
 6664TIP3    H141407   3.243   5.633   2.125  1.0892  0.8602  0.5848
 6664TIP3    H241408   3.365   5.576   2.055 -0.4597 -1.1521 -0.5781
 6665TIP3   OH241409   3.897   6.411   2.663 -0.3742  0.3879  0.0608
 6665TIP3    H141410   3.849   6.490   2.637 -0.5487  1.3655  3.0446
 6665TIP3    H241411   3.836   6.363   2.719  0.7279 -0.3808  0.6373
 6666TIP3   OH241412   4.233   3.791   1.172 -0.2542 -0.5152 -0.5009
 6666TIP3    H141413   4.262   3.876   1.139 -0.5982 -0.5272 -0.8419
 6666TIP3    H241414   4.298   3.767   1.238 -0.2652  0.0993 -0.2661
 6667TIP3   OH241415   3.936   1.859   3.705 -0.2007  0.3750  0.4829
 6667TIP3    H141416   3.890   1.776   3.719  0.4927 -0.0003  0.6072
 6667TIP3    H241417   3.925   1.877   3.612  0.3118 -0.2744  0.2868
 6668TIP3   OH241418   2.168   4.309   1.890  0.2476 -0.5236 -0.0623
 6668TIP3    H141419   2.183   4.399   1.859 -1.5733  0.6192  2.1067
 6668TIP3    H241420   2.093   4.278   1.839 -1.9529  0.9039  2.0706
 6669TIP3   OH241421   4.517   6.063  12.841  0.1339 -0.0173 -0.2056
 6669TIP3    H141422   4.493   6.057  12.933  1.9691 -0.4091  0.2843
 6669TIP3    H241423   4.586   5.998  12.830  1.3031  1.3558 -1.3800
 6670TIP3   OH241424   1.804   2.947  12.937 -0.2663 -0.1815 -0.1833
 6670TIP3    H141425   1.753   2.956  13.017  0.0579  1.2537 -0.1156
 6670TIP3    H241426   1.893   2.974  12.962  0.0886 -0.7781 -0.7666
 6671TIP3   OH241427   5.639   3.343  15.070 -0.3143 -0.0401  0.3769
 6671TIP3    H141428   5.616   3.280  15.139  2.3677 -3.0137 -1.1920
 6671TIP3    H241429   5.618   3.297  14.989  0.4346  1.7053 -0.8518
 6672TIP3   OH241430   1.544   3.324   3.656  0.1055 -0.3859  0.3618
 6672TIP3    H141431   1.634   3.336   3.685 -0.2935  0.0125  1.5169
 6672TIP3    H241432   1.519   3.408   3.619  0.4221 -0.7075 -0.5879
 6673TIP3   OH241433   1.978   2.803  11.306  0.6575 -0.3346  0.3895
 6673TIP3    H141434   1.996   2.727  11.251  1.2453 -0.9914  1.4518
 6673TIP3    H241435   2.024   2.785  11.388 -0.1258  0.6515  1.0782
 6674TIP3   OH241436   3.521   3.855   3.191  0.4638  0.7112 -0.2014
 6674TIP3    H141437   3.489   3.862   3.100 -0.8566  0.5507  0.2300
 6674TIP3    H241438   3.580   3.780   3.190 -1.2143 -0.6684 -0.5034
 6675TIP3   OH241439   1.490   2.398   0.041  0.2873 -0.0280  0.6674
 6675TIP3    H141440   1.566   2.452   0.061  1.3431 -1.3392  0.3210
 6675TIP3    H241441   1.526   2.314   0.012 -1.2806 -0.9781  1.2774
 6676TIP3   OH241442   3.509   0.122   4.135 -0.4615  0.2229  0.2659
 6676TIP3    H141443   3.544   0.048   4.184  2.5447  0.7470 -0.8700
 6676TIP3    H241444   3.541   0.199   4.182 -3.2773  0.9130  1.2523
 6677TIP3   OH241445   1.925   3.606   3.699  0.1996 -0.5480  0.1326
 6677TIP3    H141446   1.918   3.568   3.611 -1.1806 -0.2420  0.0961
 6677TIP3    H241447   1.960   3.534   3.753  3.0866 -0.1389 -1.0167
 6678TIP3   OH241448   4.660   0.528  11.239  0.2423 -0.4199 -0.1546
 6678TIP3    H141449   4.731   0.466  11.223 -0.2351 -0.8101 -0.8212
 6678TIP3    H241450   4.581   0.474  11.242 -0.2493  0.1953 -1.3397
 6679TIP3   OH241451   3.440   6.107  15.417 -0.0499  0.1565  0.2341
 6679TIP3    H141452   3.474   6.191  15.388  0.3955 -0.4859 -1.1477
 6679TIP3    H241453   3.431   6.055  15.338 -0.4237 -1.0754  1.0480
 6680TIP3   OH241454   2.799   2.121  13.014  0.4461  0.3037 -0.2886
 6680TIP3    H141455   2.707   2.109  12.990  0.3661 -0.4888  0.3484
 6680TIP3    H241456   2.838   2.035  12.998  1.0610  0.6126 -0.4689
 6681TIP3   OH241457   4.864   6.355  12.475 -0.0428  0.2731 -0.2793
 6681TIP3    H141458   4.916   6.346  12.555 -1.3655 -2.2846  0.3836
 6681TIP3    H241459   4.802   6.425  12.496 -1.2298 -1.2071  1.5350
 6682TIP3   OH241460   4.474   4.487  13.312 -0.4886 -0.1718  0.2737
 6682TIP3    H141461   4.411   4.485  13.240  0.1203 -0.0647 -0.2785
 6682TIP3    H241462   4.553   4.527  13.274 -0.7037  1.4857  1.4549
 6683TIP3   OH241463   4.178   5.272   3.025  0.2507 -0.4368 -0.1303
 6683TIP3    H141464   4.249   5.298   2.967  0.0230 -1.8911 -1.1128
 6683TIP3    H241465   4.207   5.190   3.064  0.1114  0.1801  1.3300
 6684TIP3   OH241466   2.722   3.087  12.101 -0.9106 -0.0649 -0.0917
 6684TIP3    H141467   2.679   3.024  12.043  1.8001  0.3587 -2.8142
 6684TIP3    H241468   2.651   3.145  12.129 -2.7751 -1.8322 -0.9009
 6685TIP3   OH241469   4.775   6.549  16.395  0.0041 -0.5784  0.1885
 6685TIP3    H141470   4.747   6.630  16.437 -0.6941 -0.6585 -0.1049
 6685TIP3    H241471   4.825   6.577  16.319 -3.9525 -0.2099 -2.6087
 6686TIP3   OH241472   2.661   5.000   4.741  0.3997 -0.8391 -0.1798
 6686TIP3    H141473   2.617   4.930   4.789  0.6579 -2.1316 -1.7026
 6686TIP3    H241474   2.717   4.954   4.678  0.7915  0.7469 -1.0570
 6687TIP3   OH241475   6.013   0.521  13.874  0.4401  0.1926  0.3734
 6687TIP3    H141476   6.035   0.479  13.791  1.8705  0.4399  0.6109
 6687TIP3    H241477   5.940   0.579  13.853 -0.6013 -1.2760 -0.2663
 6688TIP3   OH241478   2.283   2.649   3.813 -0.1400  0.0833 -0.2834
 6688TIP3    H141479   2.307   2.563   3.780  1.4132 -0.0392  1.0075
 6688TIP3    H241480   2.206   2.674   3.763 -0.1586 -1.7130 -1.2233
 6689TIP3   OH241481   3.835   1.403   2.483  0.7525  0.1453 -0.4800
 6689TIP3    H141482   3.747   1.424   2.517  1.2721 -0.4998  1.4269
 6689TIP3    H241483   3.861   1.481   2.434 -0.6203  0.6169 -0.5126
 6690TIP3   OH241484   5.820   5.724  11.981  0.1340  0.4487  0.1726
 6690TIP3    H141485   5.824   5.799  11.921  0.9609 -0.9553 -1.6349
 6690TIP3    H241486   5.886   5.663  11.947 -0.9246 -1.3510  1.2237
 6691TIP3   OH241487   6.623   1.040   1.046  0.9383  0.5713  0.1157
 6691TIP3    H141488   6.565   0.968   1.073  0.6157  0.8792  0.2498
 6691TIP3    H241489   6.711   1.003   1.053  0.7036 -0.4046 -1.5596
 6692TIP3   OH241490   0.375   5.442   0.371  0.2930 -0.0592  0.2558
 6692TIP3    H141491   0.358   5.536   0.380 -0.4023 -0.2807  1.4698
 6692TIP3    H241492   0.415   5.417   0.455 -0.7847 -1.0980  0.4836
 6693TIP3   OH241493   3.327   2.521   6.427  0.1076 -0.0407  0.2253
 6693TIP3    H141494   3.401   2.575   6.398  0.2483 -0.3163  0.0662
 6693TIP3    H241495   3.346   2.434   6.392  0.2511 -0.3748  1.1050
 6694TIP3   OH241496   2.486   5.496  13.293  0.2237  0.6677  0.1469
 6694TIP3    H141497   2.454   5.493  13.202  1.3935  2.1939 -0.3595
 6694TIP3    H241498   2.559   5.435  13.295  0.1468  0.5725  0.0903
 6695TIP3   OH241499   1.265   0.796  10.861  0.1998  0.5489  0.1289
 6695TIP3    H141500   1.264   0.851  10.782  0.2698 -0.3084 -0.4810
 6695TIP3    H241501   1.357   0.793  10.887 -0.0257  2.3288  1.3430
 6696TIP3   OH241502   2.385   4.400   3.750 -0.6299  0.2477 -0.3657
 6696TIP3    H141503   2.423   4.358   3.828 -0.8081 -1.0526 -0.9490
 6696TIP3    H241504   2.312   4.451   3.784  2.1685  3.7775  0.9594
 6697TIP3   OH241505   3.825   4.580   0.113  0.1429 -0.4276  0.3398
 6697TIP3    H141506   3.907   4.561   0.067 -0.6203 -2.6155 -0.2276
 6697TIP3    H241507   3.757   4.546   0.055 -1.1090  0.4144  1.2818
 6698TIP3   OH241508   4.786   4.015  13.413 -0.2273  0.0318  0.2474
 6698TIP3    H141509   4.717   3.967  13.367  0.8605 -3.0566  1.5855
 6698TIP3    H241510   4.739   4.075  13.471 -1.8193 -1.3287  0.4468
 6699TIP3   OH241511   6.665   0.685  15.114 -0.1642  0.2638  0.3288
 6699TIP3    H141512   6.654   0.591  15.130 -0.2552  0.1269 -0.4596
 6699TIP3    H241513   6.756   0.694  15.086 -0.2408  0.3587  0.1050
 6700TIP3   OH241514   6.373   3.685  15.516  0.0445 -0.2938  1.1158
 6700TIP3    H141515   6.337   3.770  15.543  0.2801  1.1503 -2.4973
 6700TIP3    H241516   6.466   3.690  15.539  0.3780  1.1516 -0.3243
 6701TIP3   OH241517   1.080   0.550  11.274 -0.0562  0.3726  0.3227
 6701TIP3    H141518   1.133   0.523  11.199 -0.4650  1.4979 -0.3929
 6701TIP3    H241519   1.052   0.639  11.253 -0.4237  0.6009  1.6850
 6702TIP3   OH241520   4.089   6.223   5.008 -0.5371 -0.4252  0.0421
 6702TIP3    H141521   3.997   6.240   5.027 -0.7567 -0.5945 -0.7982
 6702TIP3    H241522   4.137   6.283   5.065 -1.2268  1.3091 -1.0914
 6703TIP3   OH241523   4.086   2.241  12.613 -0.8936 -0.6050  0.2531
 6703TIP3    H141524   4.148   2.254  12.685 -0.1240 -1.4715 -0.2286
 6703TIP3    H241525   4.053   2.152  12.625 -0.3527 -0.9555 -0.7560
 6704TIP3   OH241526   1.703   1.262   4.808  0.4223 -0.4810  0.3567
 6704TIP3    H141527   1.719   1.312   4.888  0.9749 -1.4014  0.8387
 6704TIP3    H241528   1.717   1.170   4.834  2.1179 -0.6960 -1.1349
 6705TIP3   OH241529   2.277   0.894   3.166  0.1408  0.1525 -0.3825
 6705TIP3    H141530   2.235   0.815   3.198 -0.7391  0.8865  0.3487
 6705TIP3    H241531   2.324   0.929   3.242 -1.4843  1.5985  0.0253
 6706TIP3   OH241532   6.275   0.460  15.548 -0.3280 -0.0831  0.3320
 6706TIP3    H141533   6.266   0.553  15.569  0.3527 -0.6184  3.6258
 6706TIP3    H241534   6.362   0.452  15.509 -1.1565  0.8562 -1.8237
 6707TIP3   OH241535   0.589   0.971   3.321  0.2910  0.1453  0.2741
 6707TIP3    H141536   0.622   1.060   3.313 -0.4360  0.5296  1.2116
 6707TIP3    H241537   0.612   0.928   3.239  0.3665  1.2940 -0.3233
 6708TIP3   OH241538   0.610   0.942   6.601  0.4163 -0.1416 -0.1352
 6708TIP3    H141539   0.569   0.876   6.545 -0.0614  0.5364 -0.6044
 6708TIP3    H241540   0.697   0.906   6.621 -0.0774 -1.1961  0.1570
 6709TIP3   OH241541   6.573   4.627  15.614 -0.8392  0.0575 -0.0510
 6709TIP3    H141542   6.640   4.653  15.677 -0.3776 -0.9228 -0.1201
 6709TIP3    H241543   6.492   4.621  15.665 -0.5453 -0.3393  0.3726
 6710TIP3   OH241544   1.810   6.501   0.893  0.3348 -0.0029 -0.2564
 6710TIP3    H141545   1.762   6.582   0.907  1.5101  0.5994  0.5061
 6710TIP3    H241546   1.836   6.504   0.801  0.7522  0.7186 -0.1240
 6711TIP3   OH241547   4.201   5.253   0.621 -0.5068  0.4249  0.7883
 6711TIP3    H141548   4.160   5.190   0.681 -0.8538  0.1716  0.2918
 6711TIP3    H241549   4.269   5.203   0.576  0.2531  0.7997  1.4796
 6712TIP3   OH241550   3.833   4.228  16.163 -0.5857 -0.1974  0.0113
 6712TIP3    H141551   3.861   4.314  16.131 -1.2446 -0.3779 -1.1033
 6712TIP3    H241552   3.850   4.168  16.091 -0.1605 -1.0123  0.7660
 6713TIP3   OH241553   3.203   6.661  11.698 -0.4561 -0.4421  0.1968
 6713TIP3    H141554   3.275   6.724  11.698 -0.1252 -0.7702  1.9567
 6713TIP3    H241555   3.128   6.710  11.663  0.2740  0.3167 -0.3382
 6714TIP3   OH241556   6.133   1.037  15.599  0.0453 -0.0961 -0.3771
 6714TIP3    H141557   6.131   1.053  15.505  0.9896  0.7771 -0.2715
 6714TIP3    H241558   6.043   1.015  15.622  0.2299 -2.7829 -1.8610
 6715TIP3   OH241559   3.305   1.010   1.465 -0.2151  0.5052  0.1124
 6715TIP3    H141560   3.294   1.014   1.370  3.1438 -0.8361 -0.4705
 6715TIP3    H241561   3.370   1.078   1.484 -0.1261  0.1021  1.3002
 6716TIP3   OH241562   2.560   4.256  11.598 -0.0945  0.0240 -0.1647
 6716TIP3    H141563   2.580   4.349  11.609  0.3285 -0.2085  1.1065
 6716TIP3    H241564   2.542   4.247  11.504  0.4550  1.2673 -0.4088
 6717TIP3   OH241565   4.487   4.507  15.964  0.0870 -0.2255 -0.0822
 6717TIP3    H141566   4.422   4.571  15.935 -0.1229  0.4070  1.6348
 6717TIP3    H241567   4.500   4.528  16.057  0.4425 -2.3179  0.3810
 6718TIP3   OH241568   1.498   5.546  12.694  0.2214 -0.5002  0.2718
 6718TIP3    H141569   1.503   5.516  12.604  1.3750 -1.9013  0.7549
 6718TIP3    H241570   1.438   5.620  12.692  0.1256 -0.5895 -1.6085
 6719TIP3   OH241571   3.227   0.481   5.163  0.4507  0.2631  0.2186
 6719TIP3    H141572   3.245   0.548   5.097  4.3674  0.2607  1.0440
 6719TIP3    H241573   3.256   0.399   5.122  0.4855 -0.1353  1.0129
 6720TIP3   OH241574   0.159   3.795   5.010 -0.2001 -0.0713  0.1736
 6720TIP3    H141575   0.233   3.756   4.963  1.3754  0.2385  2.2612
 6720TIP3    H241576   0.157   3.886   4.981  0.7598  0.1162  0.6304
 6721TIP3   OH241577   1.542   5.937   2.423  0.4471 -0.0032  0.3968
 6721TIP3    H141578   1.578   6.002   2.363  0.5888 -0.1028  0.3725
 6721TIP3    H241579   1.613   5.920   2.485  1.2029 -1.7342 -0.8651
 6722TIP3   OH241580   3.543   5.322   2.760 -0.8980 -0.3111  0.0025
 6722TIP3    H141581   3.597   5.372   2.699 -0.3507 -1.5109 -0.5241
 6722TIP3    H241582   3.582   5.338   2.846  0.7501 -1.6941 -0.4414
 6723TIP3   OH241583   5.568   6.135  13.800  0.3808  0.4399 -0.3110
 6723TIP3    H141584   5.554   6.045  13.772  0.6383  0.7572 -1.5556
 6723TIP3    H241585   5.640   6.166  13.744  1.3401  0.9528  1.1493
 6724TIP3   OH241586   0.363   3.140  15.457 -0.1989  0.6573  0.6231
 6724TIP3    H141587   0.394   3.229  15.439 -3.4067  1.6001 -0.9776
 6724TIP3    H241588   0.296   3.151  15.524 -1.7477 -0.2608 -0.6918
 6725TIP3   OH241589   4.844   0.071   3.480  0.1460 -0.1934 -0.5841
 6725TIP3    H141590   4.925   0.120   3.472  0.2621 -0.0057  1.3352
 6725TIP3    H241591   4.802   0.079   3.394  2.1030 -0.2460 -1.5825
 6726TIP3   OH241592   0.836   1.366  13.612  0.0879  0.3087 -0.0747
 6726TIP3    H141593   0.898   1.421  13.564 -1.7976  0.9635 -1.8979
 6726TIP3    H241594   0.766   1.426  13.639 -0.4463 -0.6465  0.7259
 6727TIP3   OH241595   0.181   5.832  16.058  0.5743 -0.2201  0.0263
 6727TIP3    H141596   0.222   5.900  16.111  0.8767 -2.2381  2.6114
 6727TIP3    H241597   0.089   5.856  16.054  0.4334 -0.2545  2.0348
 6728TIP3   OH241598   4.510   3.068  14.858 -0.2268 -0.0104 -0.0067
 6728TIP3    H141599   4.533   3.040  14.946 -1.1341 -2.2127 -0.3884
 6728TIP3    H241600   4.583   3.039  14.803 -0.9509 -1.3014 -0.3379
 6729TIP3   OH241601   1.587   6.113  16.561  0.1729  0.5569  0.2013
 6729TIP3    H141602   1.559   6.021  16.567 -0.7056  0.8593  0.9666
 6729TIP3    H241603   1.673   6.114  16.604  1.1413 -0.2657 -1.6283
 6730TIP3   OH241604   6.403   2.948  16.213 -0.0637 -0.1398  0.0448
 6730TIP3    H141605   6.493   2.918  16.213  0.4368  1.2816  0.4453
 6730TIP3    H241606   6.355   2.883  16.161  1.3205 -0.4954 -0.8222
 6731TIP3   OH241607   5.605   3.951   5.515 -0.3145 -0.1748  0.4949
 6731TIP3    H141608   5.514   3.974   5.494  0.4475  1.2342 -1.5891
 6731TIP3    H241609   5.656   4.028   5.490  1.6138 -1.4280  0.3487
 6732TIP3   OH241610   3.475   3.609   0.220  0.4091  0.4512  0.0604
 6732TIP3    H141611   3.484   3.695   0.261  0.1679  0.9161 -0.8537
 6732TIP3    H241612   3.383   3.606   0.192 -0.5747 -1.3996  2.9402
 6733TIP3   OH241613   6.638   6.445   2.596  0.4186 -0.2332 -0.3778
 6733TIP3    H141614   6.635   6.531   2.555 -0.6616  0.9625  2.0206
 6733TIP3    H241615   6.564   6.397   2.558  0.7485  0.0186 -1.3784
 6734TIP3   OH241616   6.663   4.462   1.525 -0.0588 -0.3855  0.6612
 6734TIP3    H141617   6.731   4.519   1.489 -0.7973 -1.0385 -1.9981
 6734TIP3    H241618   6.607   4.521   1.575  0.1272  0.9539 -0.6192
 6735TIP3   OH241619   2.637   1.792  12.577  0.1433 -0.4854  0.4830
 6735TIP3    H141620   2.553   1.752  12.556 -0.0285  1.3575 -3.1077
 6735TIP3    H241621   2.622   1.886  12.566  2.5846 -0.0849 -0.0375
 6736TIP3   OH241622   1.860   5.059  11.615  0.5688  0.5108 -0.3883
 6736TIP3    H141623   1.780   5.007  11.629  0.2926  1.5037  2.4647
 6736TIP3    H241624   1.852   5.092  11.526 -2.0930  0.3417 -0.2953
 6737TIP3   OH241625   6.006   1.623   0.041  0.5446 -0.0339 -0.4735
 6737TIP3    H141626   5.911   1.630   0.041  0.5339  0.0609 -1.6113
 6737TIP3    H241627   6.033   1.655  -0.045  1.5723 -0.5079 -0.3514
 6738TIP3   OH241628   1.628   6.130  12.868  0.0436 -0.8380  0.2808
 6738TIP3    H141629   1.665   6.051  12.907 -1.0646 -1.6303 -0.2034
 6738TIP3    H241630   1.587   6.100  12.787 -2.9373 -0.3252  1.4841
 6739TIP3   OH241631   0.845   6.023  13.161 -0.4755 -0.0648  0.0741
 6739TIP3    H141632   0.841   5.974  13.243 -1.6344 -2.7264 -1.4469
 6739TIP3    H241633   0.798   6.104  13.179 -2.0425 -1.2528  1.6691
 6740TIP3   OH241634   3.507   2.128   0.014 -0.5373  0.5881 -0.2562
 6740TIP3    H141635   3.459   2.153  -0.065 -1.0228  2.4155  0.5586
 6740TIP3    H241636   3.473   2.185   0.082  0.7787 -0.0542  1.0077
 6741TIP3   OH241637   1.085   1.148  13.046  0.5173  0.3896  0.2633
 6741TIP3    H141638   1.118   1.216  13.105 -1.2534  1.4515  0.1087
 6741TIP3    H241639   1.069   1.194  12.964  1.6796 -0.7943 -0.6757
 6742TIP3   OH241640   0.272   3.834  14.050 -0.2167  0.5224  0.4930
 6742TIP3    H141641   0.261   3.740  14.063 -0.1310  0.4403  0.0065
 6742TIP3    H241642   0.327   3.841  13.972 -0.0329  0.9755  0.6580
 6743TIP3   OH241643   1.239   2.737   3.547  0.0802  0.1398 -0.5181
 6743TIP3    H141644   1.265   2.661   3.495  0.1878 -0.0622 -0.1714
 6743TIP3    H241645   1.150   2.716   3.577 -0.3213  0.6373 -1.3384
 6744TIP3   OH241646   6.100   6.641  14.757  0.7505  0.1002  0.1578
 6744TIP3    H141647   6.082   6.615  14.847 -0.4223  0.8947  0.1792
 6744TIP3    H241648   6.014   6.662  14.721  1.4069  1.9352 -0.4608
 6745TIP3   OH241649   4.543   5.845   4.916  0.0061  0.2939  0.2548
 6745TIP3    H141650   4.516   5.917   4.974 -2.6990 -0.0429 -0.4309
 6745TIP3    H241651   4.574   5.889   4.837  0.7966  0.7118  0.7807
 6746TIP3   OH241652   1.795   4.944   5.816  0.0494 -0.1232  0.2232
 6746TIP3    H141653   1.708   4.916   5.786  0.0212 -0.4201  0.5661
 6746TIP3    H241654   1.786   4.953   5.911  0.1171  0.8722  0.1436
 6747TIP3   OH241655   6.092   5.774  13.135 -0.1470 -0.0967 -0.3028
 6747TIP3    H141656   6.011   5.822  13.153 -1.8034 -2.0282 -1.9974
 6747TIP3    H241657   6.063   5.695  13.090  2.7833 -0.5133 -1.6970
 6748TIP3   OH241658   4.880   2.194  15.500  0.3273  0.1634 -0.3507
 6748TIP3    H141659   4.920   2.154  15.577  0.7555  1.7896  0.3117
 6748TIP3    H241660   4.807   2.136  15.478 -1.0830  0.6488  2.5168
 6749TIP3   OH241661   2.315   2.902  16.723 -0.5017  0.0979  1.0060
 6749TIP3    H141662   2.299   2.875  16.814  0.9422  1.7035  1.8020
 6749TIP3    H241663   2.269   2.985  16.714 -0.2514  0.1762  0.4285
 6750TIP3   OH241664   1.161   3.961  17.198  0.6658 -0.6353 -0.2981
 6750TIP3    H141665   1.087   3.928  17.146  0.5525 -0.7664 -0.0558
 6750TIP3    H241666   1.145   4.055  17.206 -0.4282 -0.9140  1.2506
 6751TIP3   OH241667   4.779   0.810   4.904 -0.4043  0.1383  0.2250
 6751TIP3    H141668   4.792   0.898   4.870  0.0665  0.7321  1.8297
 6751TIP3    H241669   4.692   0.784   4.873 -0.0427  0.6366 -1.3056
 6752TIP3   OH241670   2.240   5.851   4.309 -0.2465  0.2102  0.0958
 6752TIP3    H141671   2.228   5.825   4.218 -2.0615  1.5463 -0.0960
 6752TIP3    H241672   2.323   5.899   4.309  0.1580 -0.4694 -0.6931
 6753TIP3   OH241673   0.433   3.340  14.221  0.9715 -0.0083 -0.9921
 6753TIP3    H141674   0.398   3.365  14.306  0.4708 -2.1575 -0.5042
 6753TIP3    H241675   0.415   3.246  14.214  2.8262 -0.3163 -2.5903
 6754TIP3   OH241676   2.605   4.530  11.614  0.0008 -0.1033 -0.7522
 6754TIP3    H141677   2.555   4.611  11.606  2.1673  1.1533 -2.9599
 6754TIP3    H241678   2.696   4.559  11.619  0.7999 -2.3886 -1.0741
 6755TIP3   OH241679   0.405   0.581  12.314  0.2510  0.6168  0.3669
 6755TIP3    H141680   0.373   0.671  12.311 -0.7962  0.2326 -1.0873
 6755TIP3    H241681   0.409   0.560  12.408 -2.6135  1.1131  0.6708
 6756TIP3   OH241682   2.880   0.105  11.184 -0.2359 -0.5520 -0.4598
 6756TIP3    H141683   2.829   0.035  11.144  0.3403 -0.3613 -1.5695
 6756TIP3    H241684   2.938   0.061  11.245 -1.5259 -0.7981  0.6434
 6757TIP3   OH241685   2.307   2.768  12.673 -0.3550  0.1971 -0.2091
 6757TIP3    H141686   2.281   2.836  12.611  2.3960 -0.0158 -1.7670
 6757TIP3    H241687   2.339   2.816  12.749  1.1944  0.7033 -1.1355
 6758TIP3   OH241688   1.385   4.780   1.348 -0.0417 -0.2653  0.4390
 6758TIP3    H141689   1.389   4.840   1.422  2.1665 -1.2627  1.2159
 6758TIP3    H241690   1.469   4.793   1.303 -0.7118 -0.7744 -1.0211
 6759TIP3   OH241691   0.447   4.345   3.318  0.0078  0.3855 -0.3355
 6759TIP3    H141692   0.512   4.367   3.251  1.3443 -1.7795  0.1293
 6759TIP3    H241693   0.487   4.272   3.366 -2.3535 -0.3407  0.6609
 6760TIP3   OH241694   2.725   1.911  11.396 -0.4279 -0.6837  0.0408
 6760TIP3    H141695   2.693   1.941  11.481  1.6541 -0.9787  0.9640
 6760TIP3    H241696   2.797   1.969  11.375 -0.3088 -1.2101 -1.0928
 6761TIP3   OH241697   3.205   4.207  15.364  0.0215 -0.7868 -0.0371
 6761TIP3    H141698   3.149   4.260  15.421  1.2481 -0.2919  0.7798
 6761TIP3    H241699   3.152   4.130  15.342 -1.4993  0.3707 -0.5682
 6762TIP3   OH241700   0.659   2.170   0.840 -0.0081  0.5259 -0.4343
 6762TIP3    H141701   0.589   2.113   0.808  1.9399 -2.9005  0.8575
 6762TIP3    H241702   0.709   2.193   0.762  0.4762 -1.5580 -0.7910
 6763TIP3   OH241703   1.123   4.354   5.319  0.1682  0.1187  0.0026
 6763TIP3    H141704   1.083   4.440   5.306  0.1059  0.2527  1.0031
 6763TIP3    H241705   1.099   4.329   5.408 -0.7608 -1.4610 -0.6403
 6764TIP3   OH241706   2.588   1.267   3.947  0.5769 -0.2634  0.2615
 6764TIP3    H141707   2.647   1.335   3.980  0.3014  1.3779 -2.3464
 6764TIP3    H241708   2.643   1.213   3.889  0.2251 -0.7049  0.3327
 6765TIP3   OH241709   4.827   1.468  15.005 -0.2025  0.1793 -0.3483
 6765TIP3    H141710   4.820   1.548  14.953 -1.2333 -0.4788 -1.2612
 6765TIP3    H241711   4.749   1.417  14.982 -0.4555 -0.3393  1.5062
 6766TIP3   OH241712   4.933   4.647   2.425 -0.5083  0.3139  0.2159
 6766TIP3    H141713   4.882   4.722   2.394 -1.4253 -1.0210 -1.6442
 6766TIP3    H241714   5.022   4.664   2.393 -1.1814 -0.4408 -2.2182
 6767TIP3   OH241715   1.005   0.417   0.156  0.3204 -0.2585  0.2474
 6767TIP3    H141716   1.077   0.381   0.104  0.4478  0.1815  0.1128
 6767TIP3    H241717   1.025   0.390   0.246  0.0909 -1.0373  0.0752
 6768TIP3   OH241718   1.811   1.146   5.243 -0.0586  0.1389  0.4972
 6768TIP3    H141719   1.812   1.052   5.227 -0.1050  0.2860 -0.3805
 6768TIP3    H241720   1.902   1.168   5.263  0.1772  0.1188 -0.5420
 6769TIP3   OH241721   1.386   0.829   5.514  0.3643 -0.7183 -0.4020
 6769TIP3    H141722   1.339   0.755   5.551  2.0001 -1.0767  1.1021
 6769TIP3    H241723   1.434   0.867   5.588 -1.3088  2.6225 -0.8509
 6770TIP3   OH241724   1.583   2.942   1.913  0.3060 -0.7399 -0.3889
 6770TIP3    H141725   1.509   2.884   1.896 -0.3434  0.2082 -0.8680
 6770TIP3    H241726   1.644   2.888   1.963  0.7489 -2.5603 -2.7014
 6771TIP3   OH241727   5.867   2.361   6.098  0.6714 -0.2899 -0.1937
 6771TIP3    H141728   5.956   2.385   6.126  0.4096 -1.1190  1.5417
 6771TIP3    H241729   5.840   2.431   6.040  2.3047  0.2057 -0.4056
 6772TIP3   OH241730   0.542   2.018   3.739  0.1504 -0.2111 -0.1616
 6772TIP3    H141731   0.468   2.060   3.783 -0.5513 -2.1230  0.5579
 6772TIP3    H241732   0.572   1.951   3.801  2.2587  0.2571 -0.6051
 6773TIP3   OH241733   4.160   2.580  11.059  0.0739 -0.0757  0.3180
 6773TIP3    H141734   4.188   2.666  11.090 -0.2522 -0.6450  2.3269
 6773TIP3    H241735   4.076   2.596  11.015  1.4326  1.0225 -2.1115
 6774TIP3   OH241736   4.277   1.623  13.796  0.3814 -0.1470 -0.0632
 6774TIP3    H141737   4.295   1.715  13.777  3.2013 -0.3623  1.1849
 6774TIP3    H241738   4.359   1.578  13.776 -0.4778 -2.1905  0.7622
 6775TIP3   OH241739   6.107   2.871   2.636  0.4636  0.1855 -0.1946
 6775TIP3    H141740   6.140   2.937   2.575  2.4746 -0.2634  0.3152
 6775TIP3    H241741   6.185   2.821   2.660 -0.6026 -0.8195  1.3075
 6776TIP3   OH241742   5.619   0.621  15.249  0.2370 -0.3975  0.4687
 6776TIP3    H141743   5.563   0.569  15.307 -0.9091  0.9807  0.6704
 6776TIP3    H241744   5.576   0.616  15.164  1.4833 -1.7643 -0.1244
 6777TIP3   OH241745   4.800   1.421   4.174  0.3838  0.2800  0.0337
 6777TIP3    H141746   4.850   1.450   4.099 -0.0833  2.6922  0.5710
 6777TIP3    H241747   4.714   1.398   4.138  0.6479 -0.0825 -0.3690
 6778TIP3   OH241748   5.377   2.344  15.611 -0.0733 -0.5076 -0.1125
 6778TIP3    H141749   5.429   2.335  15.691 -0.7669  1.0020  0.5530
 6778TIP3    H241750   5.428   2.402  15.555 -0.8264  0.7039  0.4058
 6779TIP3   OH241751   0.824   4.470  16.099 -0.3716 -0.0954 -0.4730
 6779TIP3    H141752   0.796   4.558  16.125  1.2464 -0.4424  3.1842
 6779TIP3    H241753   0.743   4.427  16.071 -1.8338  1.5736  0.8758
 6780TIP3   OH241754   1.397   2.040  13.521  0.0576  0.0266 -0.2759
 6780TIP3    H141755   1.372   1.993  13.601  0.3017  0.0568 -0.1791
 6780TIP3    H241756   1.404   2.131  13.548 -2.1031  0.4136 -0.8475
 6781TIP3   OH241757   5.463   4.571  14.893  0.0850 -0.1944  0.4951
 6781TIP3    H141758   5.520   4.642  14.922 -0.8641  0.3290  1.1390
 6781TIP3    H241759   5.435   4.597  14.805  3.2328 -1.9420 -1.2030
 6782TIP3   OH241760   5.851   5.782  15.956 -0.3203 -0.3478 -0.1457
 6782TIP3    H141761   5.783   5.751  15.896  0.3020  1.0478 -1.6507
 6782TIP3    H241762   5.921   5.812  15.898  1.5377 -1.6003  1.3615
 6783TIP3   OH241763   4.385   1.316   2.374 -0.1579  0.4838  0.4669
 6783TIP3    H141764   4.368   1.237   2.322  0.2421  2.0532 -2.2160
 6783TIP3    H241765   4.298   1.354   2.389 -0.1635  0.9247 -0.6112
 6784TIP3   OH241766   1.059   5.281   0.114  0.2641  0.0857 -0.0375
 6784TIP3    H141767   1.142   5.233   0.123 -0.4006 -0.9345  1.0054
 6784TIP3    H241768   1.084   5.366   0.077  1.6495 -0.5621 -0.6735
 6785TIP3   OH241769   2.040   2.461   5.244 -0.2622  0.1718 -0.8745
 6785TIP3    H141770   2.020   2.370   5.267 -1.5775  0.3496 -1.1905
 6785TIP3    H241771   1.999   2.512   5.314  1.0813  0.5139 -0.3106
 6786TIP3   OH241772   0.339   5.354   2.848  0.2368  0.1826 -0.1812
 6786TIP3    H141773   0.379   5.382   2.766  1.2468 -0.4868  0.0606
 6786TIP3    H241774   0.313   5.435   2.891 -2.3153  0.4954 -2.0757
 6787TIP3   OH241775   2.851   0.759  16.534 -0.1730  0.2644  0.5381
 6787TIP3    H141776   2.865   0.760  16.440 -1.4249  0.6871  0.3347
 6787TIP3    H241777   2.915   0.696  16.567  0.7241  0.5903 -0.5007
 6788TIP3   OH241778   2.539   4.504  14.542 -0.2451 -0.2531 -0.3589
 6788TIP3    H141779   2.623   4.463  14.519 -0.5623 -2.2289  1.5795
 6788TIP3    H241780   2.495   4.518  14.458  0.4683 -2.7907 -1.2505
 6789TIP3   OH241781   3.178   0.054   5.720 -0.1229  0.6101  0.0392
 6789TIP3    H141782   3.186   0.150   5.720  1.1940  0.5808 -2.4403
 6789TIP3    H241783   3.100   0.036   5.669  0.6490  0.3733 -1.0986
 6790TIP3   OH241784   5.102   3.502   4.041  0.2392  1.1154 -0.2027
 6790TIP3    H141785   5.136   3.487   4.129  0.0823  2.1496  0.0560
 6790TIP3    H241786   5.114   3.419   3.996 -0.2768  0.3659  0.9870
 6791TIP3   OH241787   5.388   6.693  13.007 -0.0120 -0.5133  0.2512
 6791TIP3    H141788   5.311   6.716  12.955 -0.2846  0.3791  1.0140
 6791TIP3    H241789   5.461   6.734  12.960  0.4620 -3.4977 -1.9322
 6792TIP3   OH241790   3.186   3.177   2.687  0.3278 -0.0055 -0.4189
 6792TIP3    H141791   3.232   3.233   2.750  0.5930 -0.1718 -0.4621
 6792TIP3    H241792   3.256   3.136   2.636  0.2522 -1.7399  0.7592
 6793TIP3   OH241793   6.571   5.106   2.352  0.2851  0.0594 -0.0191
 6793TIP3    H141794   6.596   5.184   2.304 -1.0471  0.4470 -0.1167
 6793TIP3    H241795   6.480   5.089   2.326  0.1621 -0.8316  0.8989
 6794TIP3   OH241796   6.254   1.727   4.148 -0.0400 -0.3136 -0.5013
 6794TIP3    H141797   6.265   1.669   4.223  1.3268  0.8145  0.2170
 6794TIP3    H241798   6.213   1.806   4.183  0.9350  0.3689 -0.8356
 6795TIP3   OH241799   3.688   0.363   0.132 -0.3629 -0.4150 -0.2078
 6795TIP3    H141800   3.622   0.425   0.099 -0.3361 -1.2068 -1.8645
 6795TIP3    H241801   3.644   0.278   0.130  0.0559 -0.6639  0.6907
 6796TIP3   OH241802   6.706   6.106  16.361  0.3325  0.1923 -0.1474
 6796TIP3    H141803   6.789   6.117  16.407  0.9643  0.6966 -1.3512
 6796TIP3    H241804   6.709   6.170  16.290 -1.3665  0.6515  0.1442
 6797TIP3   OH241805   4.311   1.410   5.409  0.1973 -0.7470 -0.5609
 6797TIP3    H141806   4.270   1.326   5.428  0.3667 -0.7555 -0.2207
 6797TIP3    H241807   4.241   1.474   5.418  0.3748 -0.6936  0.6025
 6798TIP3   OH241808   6.402   4.244  13.481 -0.2398 -0.1126 -0.0114
 6798TIP3    H141809   6.356   4.199  13.410  1.0952  0.0427 -0.9934
 6798TIP3    H241810   6.356   4.327  13.490  0.8383  0.7811 -2.1497
 6799TIP3   OH241811   0.385   0.391  15.936 -0.2266 -0.0326 -0.0045
 6799TIP3    H141812   0.457   0.391  15.998  0.6768  1.4143 -0.9820
 6799TIP3    H241813   0.425   0.369  15.852 -1.4702 -2.2716 -0.0971
 6800TIP3   OH241814   1.756   4.365   1.803  0.4074  0.5245  0.0987
 6800TIP3    H141815   1.748   4.384   1.896  1.9873  2.1525 -0.0449
 6800TIP3    H241816   1.773   4.450   1.762 -2.8439  0.3326 -2.0822
 6801TIP3   OH241817   5.751   5.841   5.262  0.4084  0.3464 -0.0949
 6801TIP3    H141818   5.763   5.790   5.183  1.3684  0.2636  0.0919
 6801TIP3    H241819   5.760   5.932   5.234 -0.2449  0.3695 -0.2444
 6802TIP3   OH241820   6.272   3.848   2.159  0.0517  0.4521 -0.2033
 6802TIP3    H141821   6.255   3.940   2.137 -0.2335  0.7209  1.0463
 6802TIP3    H241822   6.199   3.800   2.119 -0.5609  0.9410  0.3047
 6803TIP3   OH241823   0.977   4.932   1.519  0.4364 -0.0719  0.2004
 6803TIP3    H141824   0.881   4.932   1.513  0.4265 -1.1482  0.2520
 6803TIP3    H241825   1.007   4.951   1.430  0.1792 -0.4427  0.0339
 6804TIP3   OH241826   0.386   2.740  13.926  0.0634 -0.0634  0.0051
 6804TIP3    H141827   0.448   2.806  13.895  0.3403 -0.4023 -0.1729
 6804TIP3    H241828   0.408   2.727  14.018  0.6614 -0.6154 -0.2038
 6805TIP3   OH241829   0.900   4.784   4.592 -0.0961 -0.0887 -0.5322
 6805TIP3    H141830   0.838   4.712   4.600  0.2990 -0.4234 -0.4143
 6805TIP3    H241831   0.980   4.750   4.632  0.2396  0.2380 -0.9174
 6806TIP3   OH241832   1.171   5.175  16.825  0.2781  0.3648 -0.2337
 6806TIP3    H141833   1.111   5.233  16.873 -0.0132  0.0480 -0.2077
 6806TIP3    H241834   1.114   5.127  16.765  0.1758 -1.4221  1.2056
 6807TIP3   OH241835   3.611   1.288  16.989  0.0387 -0.2257 -0.6132
 6807TIP3    H141836   3.593   1.381  16.981 -0.2950 -0.3480 -1.2612
 6807TIP3    H241837   3.542   1.244  16.940 -0.7133 -0.8910  0.9712
 6808TIP3   OH241838   4.000   5.031  16.823  0.1169 -0.5922 -0.1744
 6808TIP3    H141839   4.001   5.008  16.730  0.3018 -2.6895  0.2924
 6808TIP3    H241840   3.907   5.031  16.847 -0.0213  1.2054 -0.6095
 6809TIP3   OH241841   6.522   2.585  14.236  0.5659 -0.2161 -0.0586
 6809TIP3    H141842   6.556   2.632  14.160 -0.5296  0.2958 -0.2425
 6809TIP3    H241843   6.473   2.651  14.286  0.6646 -0.7112  0.7140
 6810TIP3   OH241844   1.767   5.489  11.926  0.2987  0.4047 -0.6384
 6810TIP3    H141845   1.802   5.547  11.994 -0.5445  0.3157 -0.1290
 6810TIP3    H241846   1.703   5.434  11.970  0.7473 -0.6160 -1.2189
 6811TIP3   OH241847   4.846   4.686   1.457 -0.1320 -0.3180 -0.1322
 6811TIP3    H141848   4.783   4.614   1.459  2.8520 -3.1325  0.5604
 6811TIP3    H241849   4.887   4.685   1.544 -0.6627  2.9910  0.2838
 6812TIP3   OH241850   0.974   3.530  14.921 -0.0468  0.5634 -0.4637
 6812TIP3    H141851   0.928   3.465  14.869  1.8602 -0.7591 -0.5949
 6812TIP3    H241852   0.999   3.484  15.001 -0.5235  1.7676  0.4065
 6813TIP3   OH241853   2.799   3.961   0.242 -0.1388  0.6574  0.5324
 6813TIP3    H141854   2.861   3.974   0.170  1.8978 -0.0348  2.0417
 6813TIP3    H241855   2.738   3.894   0.210  0.1439  1.0482 -0.8662
 6814TIP3   OH241856   4.402   1.852   2.119 -0.2765 -0.0432 -0.4260
 6814TIP3    H141857   4.467   1.861   2.189 -0.1943  0.5586 -0.5794
 6814TIP3    H241858   4.418   1.765   2.083 -0.2901 -0.3459  0.2711
 6815TIP3   OH241859   1.401   4.694  15.925 -0.7405 -0.1142  0.5372
 6815TIP3    H141860   1.372   4.641  15.851  1.9188 -0.4263 -0.3879
 6815TIP3    H241861   1.373   4.783  15.903  1.9407  0.2157 -2.1037
 6816TIP3   OH241862   2.089   3.744  12.305  0.6404  0.4421  0.0816
 6816TIP3    H141863   2.118   3.824  12.262 -0.2202  1.3510  1.1370
 6816TIP3    H241864   2.114   3.756  12.397 -2.9048  1.2936  1.0941
 6817TIP3   OH241865   2.221   2.347   4.003  0.4204  0.1107 -0.6890
 6817TIP3    H141866   2.307   2.310   4.026  0.9803  1.1354 -1.0480
 6817TIP3    H241867   2.213   2.332   3.909  0.2261  0.0567 -0.6637
 6818TIP3   OH241868   0.408   0.503  10.631  0.1735  0.3919  0.2568
 6818TIP3    H141869   0.501   0.484  10.616  0.2010 -0.1810  1.0844
 6818TIP3    H241870   0.401   0.597  10.616  1.1275  0.6535  1.2912
 6819TIP3   OH241871   1.768   3.050  13.673 -0.3719  0.5723  0.0596
 6819TIP3    H141872   1.791   3.014  13.759  1.5927  1.8030  0.1011
 6819TIP3    H241873   1.826   3.126  13.662 -0.7038  0.5596 -2.2873
 6820TIP3   OH241874   3.735   3.071  13.444  0.1919  0.2080 -0.9972
 6820TIP3    H141875   3.819   3.112  13.425  0.1613  1.2803  0.9536
 6820TIP3    H241876   3.690   3.133  13.502 -1.8432 -0.4592 -1.7664
 6821TIP3   OH241877   3.505   4.009   0.034 -0.2602 -0.2775 -0.1245
 6821TIP3    H141878   3.416   3.973   0.031 -0.4660  0.2725 -0.9251
 6821TIP3    H241879   3.495   4.094   0.077 -0.3143  0.2654 -1.1655
 6822TIP3   OH241880   3.604   4.531   1.646  0.6030 -0.1814  0.1813
 6822TIP3    H141881   3.646   4.505   1.727 -2.6134  0.1227  2.1505
 6822TIP3    H241882   3.515   4.497   1.653 -2.0058  5.4085  0.0655
 6823TIP3   OH241883   5.682   2.382   3.211  0.0736 -0.5681  0.1415
 6823TIP3    H141884   5.607   2.431   3.177  0.1818 -0.4264  0.1091
 6823TIP3    H241885   5.679   2.396   3.306  1.6057  1.6607 -0.0524
 6824TIP3   OH241886   2.031   3.763   5.240  0.6063  0.5104  0.8219
 6824TIP3    H141887   2.065   3.675   5.259  0.3312  0.2436  0.1439
 6824TIP3    H241888   1.936   3.752   5.245  0.5256  0.4669 -0.4448
 6825TIP3   OH241889   2.919   0.033   2.106 -0.7787 -0.0528  0.1764
 6825TIP3    H141890   3.003   0.045   2.151 -0.9477 -0.6062  0.6549
 6825TIP3    H241891   2.863  -0.009   2.171 -1.3116 -0.0395 -0.2662
 6826TIP3   OH241892   2.715   1.216  17.021 -0.0181 -0.0314 -0.1026
 6826TIP3    H141893   2.772   1.139  17.016 -0.8693 -0.6718 -0.1372
 6826TIP3    H241894   2.745   1.262  17.100  1.1716  0.1679 -0.6437
 6827TIP3   OH241895   0.155   3.239   5.073  0.5449  0.6428 -0.1965
 6827TIP3    H141896   0.154   3.331   5.047 -1.3210  0.7241  0.0573
 6827TIP3    H241897   0.070   3.224   5.114  0.7267 -1.2541 -0.4090
 6828TIP3   OH241898   0.904   6.239  17.109 -0.2342 -0.3255  0.1589
 6828TIP3    H141899   0.808   6.235  17.108 -0.3291  1.0152  0.7055
 6828TIP3    H241900   0.925   6.274  17.195  0.8040 -1.2981  0.3203
 6829TIP3   OH241901   0.492   2.826  11.649  0.2978  0.3591 -0.0480
 6829TIP3    H141902   0.498   2.919  11.670  2.9097  0.1750  0.3443
 6829TIP3    H241903   0.476   2.783  11.733  2.3893  0.2709  0.3707
 6830TIP3   OH241904   6.167   3.142  11.481 -0.0010 -0.5086 -0.3298
 6830TIP3    H141905   6.121   3.074  11.530 -0.0288  0.1857  0.6360
 6830TIP3    H241906   6.105   3.215  11.477  0.4123 -0.1586 -0.4411
 6831TIP3   OH241907   6.705   3.222  15.121 -0.4491 -0.1715  0.2224
 6831TIP3    H141908   6.768   3.170  15.170 -0.4451 -1.0194 -0.6591
 6831TIP3    H241909   6.642   3.251  15.187 -0.9109 -1.9819  0.6236
 6832TIP3   OH241910   1.117   2.402   5.270 -0.1153 -0.9563  0.2688
 6832TIP3    H141911   1.205   2.368   5.288 -0.5138 -1.0014  2.3196
 6832TIP3    H241912   1.058   2.341   5.314 -1.0023  0.6563  1.4027
 6833TIP3   OH241913   4.641   4.512   6.413 -0.1125 -0.0406 -0.2217
 6833TIP3    H141914   4.675   4.428   6.443 -0.7292 -0.0276  0.5565
 6833TIP3    H241915   4.676   4.523   6.325  3.7248  0.9891  1.2147
 6834TIP3   OH241916   6.638   2.878   1.414 -0.7294 -0.1354 -0.0388
 6834TIP3    H141917   6.582   2.874   1.491  0.1942 -3.6792  0.6318
 6834TIP3    H241918   6.577   2.867   1.340 -1.2598 -0.9031  0.4870
 6835TIP3   OH241919   0.007   6.381   0.396 -0.0013  0.0144  0.0934
 6835TIP3    H141920   0.039   6.444   0.461  0.2275  1.3138 -1.2137
 6835TIP3    H241921  -0.010   6.301   0.445 -0.3239  1.1082  1.8323
 6836TIP3   OH241922   1.390   5.693   4.763 -0.2325 -0.4749 -0.2718
 6836TIP3    H141923   1.413   5.767   4.819 -0.5789  0.4156 -1.2639
 6836TIP3    H241924   1.463   5.632   4.772  0.0995  0.0213  0.5013
 6837TIP3   OH241925   6.082   3.241  12.266 -0.2812  0.3465  0.0111
 6837TIP3    H141926   6.033   3.237  12.349 -2.1130 -2.5089 -1.0667
 6837TIP3    H241927   6.029   3.299  12.211  0.6371  1.7832  0.5737
 6838TIP3   OH241928   5.148   5.266  14.991 -0.0970  0.2670 -0.2651
 6838TIP3    H141929   5.121   5.353  14.962 -1.3371 -0.5020 -1.5336
 6838TIP3    H241930   5.067   5.225  15.022  0.4814 -0.4229  0.3725
 6839TIP3   OH241931   6.065   0.605  15.794 -0.1474  0.6825  0.7054
 6839TIP3    H141932   6.136   0.658  15.759  1.0388 -1.1431  0.1741
 6839TIP3    H241933   6.092   0.584  15.883 -0.1907  0.2914  0.6309
 6840TIP3   OH241934   5.291   4.676   3.529  0.4943  0.1377  0.2579
 6840TIP3    H141935   5.205   4.668   3.488  1.6755  1.8525 -2.9309
 6840TIP3    H241936   5.319   4.586   3.545 -2.1302 -0.4503  2.1888
 6841TIP3   OH241937   4.234   2.310  13.608  0.5737 -0.4721 -0.2630
 6841TIP3    H141938   4.219   2.364  13.530 -0.1547 -0.4986 -0.1497
 6841TIP3    H241939   4.214   2.367  13.682 -0.5022 -0.9686 -0.1486
 6842TIP3   OH241940   2.241   2.985   3.692  1.0210 -0.0804 -0.1070
 6842TIP3    H141941   2.316   2.934   3.660  0.7505 -0.8774  0.4937
 6842TIP3    H241942   2.277   3.039   3.762  1.2701  0.4163 -0.6123
 6843TIP3   OH241943   3.335   3.315   2.926 -0.0023 -0.1209 -0.6835
 6843TIP3    H141944   3.413   3.347   2.970  0.2474  0.7920 -1.7317
 6843TIP3    H241945   3.331   3.222   2.947  1.2195 -0.1215 -0.4101
 6844TIP3   OH241946   1.462   6.007  12.680  0.3887  0.5872 -0.1055
 6844TIP3    H141947   1.376   6.046  12.694  0.4298  0.2249  1.3317
 6844TIP3    H241948   1.460   5.926  12.731  1.8297  0.9666  0.6179
 6845TIP3   OH241949   3.115   6.318  12.779  0.0057  0.1587 -0.3269
 6845TIP3    H141950   3.042   6.350  12.831  0.7097  1.0635  0.1189
 6845TIP3    H241951   3.147   6.241  12.827  0.1706  0.5352  0.1705
 6846TIP3   OH241952   0.606   0.275   0.963  0.3267  0.0325  0.2499
 6846TIP3    H141953   0.661   0.337   1.011 -0.7362  2.0826 -1.0105
 6846TIP3    H241954   0.558   0.228   1.030  1.0573  0.7009  1.2684
 6847TIP3   OH241955   3.705   1.591  13.910  0.5900  0.1714  0.5538
 6847TIP3    H141956   3.790   1.548  13.902 -0.3558 -1.6116 -0.3035
 6847TIP3    H241957   3.641   1.520  13.915 -0.9986  1.4370 -0.4579
 6848TIP3   OH241958   5.087   4.718   5.931  0.4304 -0.3956  0.2698
 6848TIP3    H141959   5.002   4.722   5.975  0.8975  0.3886  1.1195
 6848TIP3    H241960   5.106   4.808   5.906  0.0699 -0.8461 -1.8001
 6849TIP3   OH241961   1.764   2.342   3.966 -0.1104  0.1173 -0.2702
 6849TIP3    H141962   1.808   2.259   3.987  0.8969 -0.1302 -2.8887
 6849TIP3    H241963   1.833   2.397   3.929 -1.2089  1.2537 -0.7034
 6850TIP3   OH241964   4.109   4.884  12.466  0.2269  0.2928  0.5386
 6850TIP3    H141965   4.056   4.807  12.445 -1.4085  1.5615 -0.2845
 6850TIP3    H241966   4.133   4.873  12.558 -1.8261 -0.1637  1.0601
 6851TIP3   OH241967   2.935   1.877  15.397 -0.1285  0.2613 -0.4912
 6851TIP3    H141968   2.973   1.793  15.421  1.0844  0.9867  0.2441
 6851TIP3    H241969   2.841   1.866  15.412 -0.0219 -1.0621 -0.7438
 6852TIP3   OH241970   1.357   0.596  12.072 -0.2050 -0.0404  0.2775
 6852TIP3    H141971   1.346   0.671  12.014 -0.8930  1.2810  2.0432
 6852TIP3    H241972   1.391   0.633  12.153  0.2359 -1.7627  0.9238
 6853TIP3   OH241973   0.620   3.922   3.179 -0.0455 -0.1771 -0.4836
 6853TIP3    H141974   0.563   3.854   3.142  0.9031 -1.5443  0.5065
 6853TIP3    H241975   0.674   3.950   3.105  1.8385 -2.8904 -0.2400
 6854TIP3   OH241976   3.233   3.655  15.607  0.8137 -0.8170 -0.2108
 6854TIP3    H141977   3.225   3.619  15.695  0.9495  0.6804  0.4267
 6854TIP3    H241978   3.218   3.579  15.550 -0.1290 -1.6513  1.0719
 6855TIP3   OH241979   4.745   2.205   1.701  0.1631 -0.0822  0.0163
 6855TIP3    H141980   4.825   2.181   1.748  0.6906  0.4451 -0.6015
 6855TIP3    H241981   4.700   2.265   1.759 -1.1693 -2.4356  1.5968
 6856TIP3   OH241982   0.586   6.749   4.853 -0.0813  0.2984 -0.5734
 6856TIP3    H141983   0.503   6.791   4.831 -1.2838 -1.6650 -0.0007
 6856TIP3    H241984   0.648   6.783   4.787 -0.6541  3.6521  0.4174
 6857TIP3   OH241985   2.753   3.017   1.173 -0.5671  0.3939  0.0776
 6857TIP3    H141986   2.838   3.051   1.204  0.1892 -0.3440 -1.1084
 6857TIP3    H241987   2.703   3.003   1.253  1.3814 -1.6344  1.0802
 6858TIP3   OH241988   5.062   0.435   4.116 -0.8564  0.3512 -0.2694
 6858TIP3    H141989   4.986   0.398   4.070  0.1508  0.3898 -2.0342
 6858TIP3    H241990   5.087   0.367   4.179 -0.2548 -1.1961 -2.0846
 6859TIP3   OH241991   5.153   4.613  14.962  0.1848  0.4642  0.2798
 6859TIP3    H141992   5.142   4.623  15.057  2.4145  0.3149  0.5938
 6859TIP3    H241993   5.115   4.527  14.943 -0.6787  0.6839  0.9388
 6860TIP3   OH241994   2.381   4.748  12.244  0.4262 -0.2589 -0.4670
 6860TIP3    H141995   2.425   4.785  12.167  1.4496 -1.4645 -0.4994
 6860TIP3    H241996   2.449   4.696  12.287 -0.8150 -1.7214 -0.1911
 6861TIP3   OH241997   4.584   0.200  10.977 -0.0318 -0.1018 -0.4968
 6861TIP3    H141998   4.570   0.278  10.923 -1.4180 -0.8219 -1.2169
 6861TIP3    H241999   4.588   0.128  10.915 -1.1209 -0.8850  0.3189
 6862TIP3   OH242000   1.147   6.471  10.730 -0.6665 -0.0702  0.2982
 6862TIP3    H142001   1.082   6.541  10.735 -1.6711 -0.7731 -1.6780
 6862TIP3    H242002   1.226   6.514  10.698 -1.6698  0.0348 -2.2856
 6863TIP3   OH242003   6.593   5.844  12.755 -0.2388  0.9413  0.6607
 6863TIP3    H142004   6.520   5.792  12.790  1.7533 -2.4003  0.2484
 6863TIP3    H242005   6.575   5.851  12.661 -0.0647  0.1626  0.5666
 6864TIP3   OH242006   4.605   3.387  16.442 -0.0085 -0.4050 -0.1839
 6864TIP3    H142007   4.694   3.362  16.466 -0.1299 -0.1864  0.5438
 6864TIP3    H242008   4.561   3.400  16.526 -0.8080 -0.7928 -0.5369
 6865TIP3   OH242009   1.988   2.687  13.618 -0.3107  0.1573 -0.4252
 6865TIP3    H142010   1.922   2.627  13.654  1.5736 -0.6944  1.9238
 6865TIP3    H242011   1.961   2.703  13.528 -2.2945 -2.1811 -0.3267
 6866TIP3   OH242012   2.146   0.407  12.608 -0.3510  0.5027  0.2900
 6866TIP3    H142013   2.237   0.395  12.581 -0.2069  0.2984  0.8431
 6866TIP3    H242014   2.135   0.347  12.682 -1.8084 -1.7793 -1.6282
 6867TIP3   OH242015   4.654   0.929   5.993  0.8119 -0.1152 -0.0882
 6867TIP3    H142016   4.587   0.869   6.023 -0.3169  0.4013 -1.4694
 6867TIP3    H242017   4.705   0.879   5.929  0.7391 -0.0351 -0.2109
 6868TIP3   OH242018   5.832   0.169   4.977  0.6234 -0.1022  0.0864
 6868TIP3    H142019   5.816   0.205   4.890  1.5227  1.5828  0.5751
 6868TIP3    H242020   5.766   0.210   5.033  0.2574 -0.9272  0.2790
 6869TIP3   OH242021   5.920   4.472  16.418  0.3551  0.8734  0.5111
 6869TIP3    H142022   5.918   4.469  16.513 -1.1991 -0.6473  0.4736
 6869TIP3    H242023   5.831   4.450  16.391  0.2143  3.1655 -1.2977
 6870TIP3   OH242024   5.157   5.783  16.188  0.0090  0.4910 -0.0353
 6870TIP3    H142025   5.245   5.791  16.226  0.1427 -1.3871  0.1228
 6870TIP3    H242026   5.102   5.838  16.244  1.0451  1.6106 -0.0664
 6871TIP3   OH242027   1.099   0.580  10.851  0.4060 -0.3347  0.0782
 6871TIP3    H142028   1.170   0.643  10.837 -0.6468  0.9908  0.4907
 6871TIP3    H242029   1.120   0.538  10.934 -0.2305  1.4437  1.2135
 6872TIP3   OH242030   4.927   6.610  15.045 -0.0345  0.5058  0.2189
 6872TIP3    H142031   4.851   6.667  15.030  0.8165  1.4532 -0.6380
 6872TIP3    H242032   4.960   6.590  14.958  1.2683  0.8956  0.5989
 6873TIP3   OH242033   0.039   2.535   2.551  0.1761  0.0097 -0.3806
 6873TIP3    H142034  -0.043   2.515   2.505  1.1455 -0.1111 -2.1234
 6873TIP3    H242035   0.018   2.612   2.604 -0.8665  0.4664 -1.4024
 6874TIP3   OH242036   3.975   0.698  11.999 -0.4973 -0.3580 -0.3357
 6874TIP3    H142037   4.061   0.700  12.042 -1.5026  2.0574  1.7657
 6874TIP3    H242038   3.953   0.605  11.996  1.5005 -0.9216  0.4762
 6875TIP3   OH242039   6.152   2.468   1.793 -0.0446 -0.1288  0.6031
 6875TIP3    H142040   6.236   2.431   1.765  0.0495  0.9162 -0.5982
 6875TIP3    H242041   6.123   2.410   1.863  1.5671 -0.6405  0.8975
 6876TIP3   OH242042   2.843   3.648  12.841  0.0141  0.4327  0.7458
 6876TIP3    H142043   2.756   3.686  12.853  0.2863  0.6560  2.1427
 6876TIP3    H242044   2.903   3.713  12.878  0.8703  0.6129 -0.8396
 6877TIP3   OH242045   6.693   5.279  12.383  0.1291  0.0530  0.4207
 6877TIP3    H142046   6.606   5.247  12.360  0.7402 -1.5132  0.2106
 6877TIP3    H242047   6.722   5.326  12.305 -0.4415  0.4474  0.4323
 6878TIP3   OH242048   5.496   3.382  11.614 -0.0324  0.2186  0.2009
 6878TIP3    H142049   5.482   3.476  11.609  0.5567  0.3595  1.0369
 6878TIP3    H242050   5.444   3.346  11.541  1.8217  1.3715 -1.7931
 6879TIP3   OH242051   5.642   0.710  14.092  0.3760  0.2490  0.0076
 6879TIP3    H142052   5.624   0.639  14.030 -2.6094  2.0738 -1.4069
 6879TIP3    H242053   5.703   0.767  14.046  0.3564  0.1652 -0.1232
 6880TIP3   OH242054   6.463   1.646  14.251 -0.0520 -0.4278 -0.1095
 6880TIP3    H142055   6.549   1.641  14.293  0.1153 -1.8221 -0.5735
 6880TIP3    H242056   6.462   1.573  14.189 -1.2116  0.1522 -0.8054
 6881TIP3   OH242057   4.991   4.088  15.925 -0.0048  0.0977  0.1825
 6881TIP3    H142058   4.903   4.065  15.895 -0.2721  0.4853  0.6602
 6881TIP3    H242059   5.050   4.046  15.862 -0.5345 -0.0022 -0.2486
 6882TIP3   OH242060   2.137   5.424   0.993 -0.2752 -0.4874 -0.4393
 6882TIP3    H142061   2.075   5.393   0.928  1.9927 -2.2514 -1.9148
 6882TIP3    H242062   2.189   5.347   1.016  0.5737  0.6195  1.6784
 6883TIP3   OH242063   6.148   0.494  16.970 -0.0439 -0.1418 -0.0385
 6883TIP3    H142064   6.157   0.400  16.956 -0.3388  0.0951 -2.2951
 6883TIP3    H242065   6.139   0.504  17.064  0.8444 -2.2919  0.3256
 6884TIP3   OH242066   3.020   0.042  13.037 -0.4799 -0.7389  0.7633
 6884TIP3    H142067   3.022   0.119  13.095  0.4116 -1.1809  1.3427
 6884TIP3    H242068   3.111   0.030  13.011 -0.6229 -1.5698  0.6407
 6885TIP3   OH242069   4.408   1.953  15.225  0.3403  0.2298  0.6476
 6885TIP3    H142070   4.463   1.886  15.266  1.4667 -0.4106 -1.7279
 6885TIP3    H242071   4.435   1.953  15.133 -1.5814  2.0286  0.0071
 6886TIP3   OH242072   2.900   1.282   2.679 -0.3855  1.2218 -0.1634
 6886TIP3    H142073   2.816   1.236   2.677  0.1084  0.3000 -1.9418
 6886TIP3    H242074   2.903   1.331   2.597  2.0573 -1.2759 -1.7479
 6887TIP3   OH242075   1.580   5.436  12.441 -0.0023  0.3803 -0.4687
 6887TIP3    H142076   1.564   5.489  12.363  0.9996  2.1464  0.4748
 6887TIP3    H242077   1.674   5.441  12.455 -0.0624 -0.5977  0.3885
 6888TIP3   OH242078   5.277   1.553  15.730 -0.2369  0.3435 -1.0291
 6888TIP3    H142079   5.184   1.560  15.750 -0.4787 -2.0272 -0.9617
 6888TIP3    H242080   5.320   1.604  15.798 -1.3628 -2.1043  1.7503
 6889TIP3   OH242081   1.657   6.586  13.051  0.7210 -0.0045 -0.3700
 6889TIP3    H142082   1.620   6.498  13.048  0.0473  0.2242  0.6416
 6889TIP3    H242083   1.730   6.584  12.989 -0.1681 -0.8524 -1.4262
 6890TIP3   OH242084   0.040   6.516  16.537 -0.6367 -0.1821 -0.0331
 6890TIP3    H142085   0.098   6.453  16.494 -0.2501 -0.1085  0.3802
 6890TIP3    H242086   0.020   6.581  16.469 -0.1146 -0.1233 -0.1317
 6891TIP3   OH242087   4.155   4.513   1.986  0.5905 -0.0155 -0.0641
 6891TIP3    H142088   4.085   4.558   1.938  0.1118  1.8287  2.1883
 6891TIP3    H242089   4.124   4.423   1.992 -0.2573  0.1395 -1.4622
 6892TIP3   OH242090   2.485   5.252  14.836 -0.3945 -0.2439  0.4438
 6892TIP3    H142091   2.459   5.196  14.909  1.0267 -0.7175  0.6226
 6892TIP3    H242092   2.404   5.295  14.808 -1.7147 -2.8537 -0.1347
 6893TIP3   OH242093   1.112   6.458   0.397  0.4802  0.8205  0.0856
 6893TIP3    H142094   1.069   6.509   0.328 -0.5949 -0.0079  0.1193
 6893TIP3    H242095   1.201   6.444   0.364 -0.0286  0.3854 -1.1639
 6894TIP3   OH242096   0.142   0.165  13.976 -0.6066 -0.2664  0.3300
 6894TIP3    H142097   0.054   0.194  13.951  0.3025  0.9314 -1.8421
 6894TIP3    H242098   0.161   0.214  14.056 -2.3577 -1.5319  1.5849
 6895TIP3   OH242099   3.025   3.385   5.269 -0.0225 -0.3465 -0.6891
 6895TIP3    H142100   2.984   3.433   5.198 -1.0185 -0.3200 -0.1079
 6895TIP3    H242101   3.033   3.449   5.340  2.1532  0.0070 -1.1505
 6896TIP3   OH242102   0.694   2.638   0.546  0.0782 -0.4366 -0.5280
 6896TIP3    H142103   0.753   2.714   0.545 -0.6048  0.0995 -1.9145
 6896TIP3    H242104   0.629   2.659   0.612 -1.5578  1.3867 -2.5832
 6897TIP3   OH242105   5.852   4.323   1.063 -0.0928  0.5408 -0.1785
 6897TIP3    H142106   5.926   4.272   1.097 -0.0854  0.9210  0.3981
 6897TIP3    H242107   5.839   4.291   0.974  1.6050  1.3507 -0.7610
 6898TIP3   OH242108   4.359   3.440   0.859 -0.6885 -0.0588 -0.3930
 6898TIP3    H142109   4.428   3.378   0.833 -0.3618 -0.3050  0.9811
 6898TIP3    H242110   4.397   3.489   0.932 -2.4281 -1.1939  1.3862
 6899TIP3   OH242111   0.882   6.197   2.281 -0.3687 -0.2501  0.3230
 6899TIP3    H142112   0.944   6.180   2.351 -1.8879  1.1883  2.1483
 6899TIP3    H242113   0.834   6.114   2.270  0.0332 -0.5527  0.8381
 6900TIP3   OH242114   6.478   5.154  12.275  0.1778 -0.0450  0.3736
 6900TIP3    H142115   6.503   5.163  12.183 -0.8545 -1.4259 -0.0669
 6900TIP3    H242116   6.400   5.208  12.284  0.3669  0.2134  0.4949
 6901TIP3   OH242117   2.197   2.777   4.213 -0.1608 -0.0806 -0.1659
 6901TIP3    H142118   2.139   2.789   4.289  0.7079  0.5372  0.4287
 6901TIP3    H242119   2.210   2.683   4.207  1.4459 -0.0757  1.8239
 6902TIP3   OH242120   4.147   5.333  16.990  0.1122  0.1197 -0.2585
 6902TIP3    H142121   4.089   5.336  16.914  1.4957  0.7353 -1.3498
 6902TIP3    H242122   4.148   5.241  17.016 -0.9173  0.0144 -0.5575
 6903TIP3   OH242123   3.835   0.166   0.551 -0.1066 -0.0842 -0.6083
 6903TIP3    H142124   3.845   0.256   0.581 -0.4309 -0.5636  1.0955
 6903TIP3    H242125   3.762   0.169   0.490  0.2466  0.8909 -1.0038
 6904TIP3   OH242126   3.493   5.626  15.745 -0.6711 -0.7232 -0.2977
 6904TIP3    H142127   3.448   5.698  15.789  1.9268  1.0858 -0.3603
 6904TIP3    H242128   3.508   5.657  15.656  0.4984 -1.3178 -0.3326
 6905TIP3   OH242129   3.346   1.161   1.142  0.5378  0.2447 -0.2803
 6905TIP3    H142130   3.301   1.079   1.162  2.1027 -0.4451  0.5670
 6905TIP3    H242131   3.320   1.180   1.051  0.1336 -1.1827 -0.4982
 6906TIP3   OH242132   3.797   6.085   2.641  0.2799  0.4462  0.0938
 6906TIP3    H142133   3.757   6.122   2.719  0.3452 -0.4385  0.5631
 6906TIP3    H242134   3.811   6.160   2.583 -2.2731  0.7972 -0.1862
 6907TIP3   OH242135   2.152   3.340   2.451 -0.3121  0.6724 -0.2296
 6907TIP3    H142136   2.218   3.334   2.382  1.8590 -1.7781  1.8315
 6907TIP3    H242137   2.102   3.259   2.443  0.2109  0.1625  1.1775
 6908TIP3   OH242138   1.135   4.189  14.530 -0.6703  0.2019 -0.0836
 6908TIP3    H142139   1.094   4.268  14.492 -1.6246 -0.4267 -0.3951
 6908TIP3    H242140   1.207   4.169  14.470 -1.6909 -0.3318 -1.1886
 6909TIP3   OH242141   4.369   1.096  15.676  0.0254  0.2989  0.4637
 6909TIP3    H142142   4.427   1.146  15.733 -0.5917  2.2393 -0.5309
 6909TIP3    H242143   4.364   1.147  15.596 -3.6291  0.6891  0.7431
 6910TIP3   OH242144   4.764   3.207   2.077 -0.1611 -0.2410 -0.1839
 6910TIP3    H142145   4.808   3.271   2.132  1.5647  0.6743 -2.4832
 6910TIP3    H242146   4.736   3.256   2.000 -2.0315 -1.5705 -0.4210
 6911TIP3   OH242147   0.437   6.368   3.012  0.0060 -0.0757  0.1540
 6911TIP3    H142148   0.459   6.453   2.976  1.3174 -0.6937 -0.5497
 6911TIP3    H242149   0.344   6.357   2.991 -0.1098  1.0384 -0.0018
 6912TIP3   OH242150   3.817   4.071  17.079 -0.9505 -0.0796 -0.0958
 6912TIP3    H142151   3.770   4.091  17.160  0.1396 -0.4330  0.6343
 6912TIP3    H242152   3.820   3.975  17.076  0.6611 -0.0784  0.4463
 6913TIP3   OH242153   6.727   5.108   1.869  0.0327 -0.6062  0.5046
 6913TIP3    H142154   6.736   5.193   1.827 -0.3556 -1.1477 -0.7127
 6913TIP3    H242155   6.706   5.048   1.798 -2.2787 -1.2847  1.6443
 6914TIP3   OH242156   0.573   6.737  15.638  0.0360  0.1843  0.1527
 6914TIP3    H142157   0.634   6.799  15.677  0.3309 -0.5195  0.8418
 6914TIP3    H242158   0.501   6.730  15.701 -1.0107  1.3457 -0.8549
 6915TIP3   OH242159   0.855   5.038  15.455 -0.1618  0.1250 -0.3145
 6915TIP3    H142160   0.825   5.092  15.529  0.2537 -0.5355  0.3455
 6915TIP3    H242161   0.932   5.084  15.422  1.7626 -1.3297  1.8693
 6916TIP3   OH242162   4.714   4.176   0.824 -0.6128 -0.0877 -0.2812
 6916TIP3    H142163   4.697   4.210   0.911 -0.9402  0.8830 -0.7201
 6916TIP3    H242164   4.721   4.253   0.768  2.1199 -0.5164 -0.7026
 6917TIP3   OH242165   4.448   4.550  13.572 -0.3453  0.3237  0.4994
 6917TIP3    H142166   4.396   4.473  13.596 -0.9888  0.7929  0.6526
 6917TIP3    H242167   4.455   4.547  13.477  3.0000 -2.0603  0.6526
 6918TIP3   OH242168   1.139   1.899   1.633  0.2664  0.3058  0.2139
 6918TIP3    H142169   1.075   1.855   1.690  0.1055 -1.7101 -1.4049
 6918TIP3    H242170   1.221   1.853   1.650  0.8704  1.6040  0.8738
 6919TIP3   OH242171   2.087   3.635   4.402 -0.3797  0.4675  0.6704
 6919TIP3    H142172   2.172   3.597   4.382 -0.5872 -0.8240  2.0107
 6919TIP3    H242173   2.106   3.724   4.431  0.3972  0.5275 -0.0004
 6920TIP3   OH242174   5.321   3.831   0.632 -0.3128 -0.1713 -0.7907
 6920TIP3    H142175   5.300   3.828   0.538 -0.0152  0.8871 -0.8973
 6920TIP3    H242176   5.295   3.919   0.660  0.5080 -0.1418 -0.0964
 6921TIP3   OH242177   2.854   3.594  12.554 -0.2734 -0.0840  0.1034
 6921TIP3    H142178   2.837   3.575  12.646  0.7857  0.1523  0.3607
 6921TIP3    H242179   2.888   3.511  12.518  1.0319  0.3012  0.3820
 6922TIP3   OH242180   5.418   3.610  11.537 -0.1164 -0.1036 -0.5961
 6922TIP3    H142181   5.362   3.685  11.558  0.1555  0.2480 -1.1165
 6922TIP3    H242182   5.410   3.600  11.442 -0.7121 -1.1845 -0.4453
 6923TIP3   OH242183   0.941   2.339  16.008 -0.5059 -0.0857  0.2403
 6923TIP3    H142184   0.903   2.365  16.092 -2.8801  0.8462 -1.0311
 6923TIP3    H242185   0.909   2.249  15.995  1.0478 -0.7781  0.9305
 6924TIP3   OH242186   0.927   4.502   6.031 -0.0977  0.5157 -0.2148
 6924TIP3    H142187   1.008   4.542   6.000  0.1808 -0.3156 -0.5679
 6924TIP3    H242188   0.869   4.503   5.955  0.2572 -0.6551 -0.5139
 6925TIP3   OH242189   0.033   6.551   4.761 -0.0465  0.0505 -0.2384
 6925TIP3    H142190  -0.029   6.495   4.714  0.8548  0.3526 -1.8804
 6925TIP3    H242191  -0.015   6.634   4.773 -0.2233  0.0493 -0.8670
 6926TIP3   OH242192   3.249   2.721   0.416  0.0975  0.7693 -0.3702
 6926TIP3    H142193   3.218   2.639   0.377  0.7497  0.9653 -1.3361
 6926TIP3    H242194   3.261   2.780   0.342 -0.7577  1.8933  0.3501
 6927TIP3   OH242195   0.280   6.695   5.416  0.2713  0.0590 -0.0405
 6927TIP3    H142196   0.217   6.751   5.372  0.4624  0.1889 -0.1484
 6927TIP3    H242197   0.298   6.739   5.499  2.0793  1.3074 -1.0447
 6928TIP3   OH242198   0.799   4.688  16.444 -0.0181 -0.1903 -0.0356
 6928TIP3    H142199   0.735   4.653  16.382  0.0507 -1.7494  0.7466
 6928TIP3    H242200   0.876   4.708  16.389 -0.3907 -0.3645 -0.6343
 6929TIP3   OH242201   1.920   5.629  12.127 -0.2842 -0.2313 -0.1914
 6929TIP3    H142202   1.864   5.665  12.196 -0.9811 -1.5213 -0.0630
 6929TIP3    H242203   2.009   5.656  12.151 -0.5305 -0.5935  1.1600
 6930TIP3   OH242204   4.711   0.204  14.609 -0.0613 -0.1567  0.3081
 6930TIP3    H142205   4.662   0.239  14.683  1.5369 -0.1232  1.4158
 6930TIP3    H242206   4.802   0.199  14.641  0.2658 -2.5776 -0.7662
 6931TIP3   OH242207   3.951   4.650   1.867  0.2491 -0.2137  0.1704
 6931TIP3    H142208   3.996   4.695   1.797 -1.2526  0.5024 -0.3870
 6931TIP3    H242209   3.916   4.720   1.922  2.0329 -0.7529  2.1203
 6932TIP3   OH242210   5.052   5.260   0.449  0.1336 -0.2689 -0.1637
 6932TIP3    H142211   5.091   5.331   0.500  0.1952  0.2688 -0.9455
 6932TIP3    H242212   5.024   5.301   0.368  1.1623 -1.3415 -1.0949
 6933TIP3   OH242213   0.315   1.951   1.418  0.4220  0.2297 -0.0495
 6933TIP3    H142214   0.344   1.860   1.412  1.1697  0.2586  2.1210
 6933TIP3    H242215   0.396   2.002   1.408 -0.0531  0.7263 -1.7109
 6934TIP3   OH242216   2.264   2.129  14.332 -0.1051  0.4774 -0.0086
 6934TIP3    H142217   2.206   2.091  14.398 -1.2020 -0.4655 -1.4453
 6934TIP3    H242218   2.280   2.218  14.363 -1.0794  0.2582  1.2169
 6935TIP3   OH242219   6.703   2.804   4.966  0.7743  0.2705  0.1164
 6935TIP3    H142220   6.780   2.860   4.967  0.3128  0.9334 -0.5359
 6935TIP3    H242221   6.734   2.722   4.925  1.0426  0.6739 -0.5042
 6936TIP3   OH242222   0.046   5.927  12.275  0.3075 -0.1694  0.4638
 6936TIP3    H142223   0.058   6.018  12.305 -1.3737  0.6887 -1.2779
 6936TIP3    H242224   0.088   5.925  12.189  0.5491 -1.1496  0.5970
 6937TIP3   OH242225   3.580   6.151   4.614  0.1800  0.6586 -0.4186
 6937TIP3    H142226   3.522   6.104   4.554 -0.1660 -0.4381  0.7255
 6937TIP3    H242227   3.522   6.212   4.659 -0.1632 -0.5066  0.7963
 6938TIP3   OH242228   6.461   4.063   5.196  0.9269  0.2887 -0.3633
 6938TIP3    H142229   6.534   4.059   5.258 -0.2716  3.7933  1.5963
 6938TIP3    H242230   6.490   4.126   5.129  0.8623 -0.7438 -1.3801
 6939TIP3   OH242231   2.301   4.384   3.203 -0.4557  0.0746  0.3486
 6939TIP3    H142232   2.347   4.378   3.120 -2.7712  0.5520 -1.0650
 6939TIP3    H242233   2.285   4.293   3.228  1.0995 -0.0900  0.8126
 6940TIP3   OH242234   0.334   6.194  17.279 -0.3757 -0.3897  0.1599
 6940TIP3    H142235   0.352   6.102  17.300 -1.6300 -0.3028  1.8531
 6940TIP3    H242236   0.344   6.240  17.363 -0.2517  0.9433 -0.5577
 6941TIP3   OH242237   4.405   4.324   3.458  0.1002  0.4113 -0.3451
 6941TIP3    H142238   4.403   4.340   3.364  1.0668 -0.4902 -0.5359
 6941TIP3    H242239   4.464   4.391   3.493 -2.2146  2.4082  0.0231
 6942TIP3   OH242240   4.941   2.712  14.891  0.2314 -0.1866 -0.0176
 6942TIP3    H142241   4.916   2.655  14.818  1.0051 -1.4390  0.6604
 6942TIP3    H242242   4.970   2.793  14.849  1.0822 -1.0453 -1.1471
 6943TIP3   OH242243   4.229   2.394   5.741  0.3089 -0.3949  0.0267
 6943TIP3    H142244   4.156   2.406   5.680  0.8810  1.2097 -0.3928
 6943TIP3    H242245   4.192   2.411   5.827  0.2173  0.6483 -0.2077
 6944TIP3   OH242246   1.049   3.663   6.053 -0.1112  0.4939 -0.2596
 6944TIP3    H142247   0.957   3.649   6.078  0.4588  0.8019  2.2742
 6944TIP3    H242248   1.097   3.593   6.097  1.1211  1.7549  0.4677
 6945TIP3   OH242249   2.311   4.531   2.307 -0.2573 -0.7483 -0.5790
 6945TIP3    H142250   2.363   4.584   2.247  1.4230 -0.5935  0.9337
 6945TIP3    H242251   2.231   4.582   2.321 -0.4185 -0.5166 -2.1867
 6946TIP3   OH242252   3.977   1.719  11.259  0.2413  0.1043  0.2303
 6946TIP3    H142253   3.903   1.676  11.216  0.0150 -0.6967  1.4015
 6946TIP3    H242254   4.051   1.700  11.202  0.0488 -1.4297  0.4523
 6947TIP3   OH242255   1.599   2.565  14.670  0.0542 -0.4107  0.8803
 6947TIP3    H142256   1.648   2.603  14.597  1.4596 -0.3351  1.8181
 6947TIP3    H242257   1.526   2.518  14.629  0.1108  0.6421 -0.4805
 6948TIP3   OH242258   1.212   1.318  13.234  0.1663 -0.1139  0.1635
 6948TIP3    H142259   1.270   1.385  13.195 -0.4709  2.0391  2.6537
 6948TIP3    H242260   1.272   1.252  13.267  1.1871  1.3586  1.4085
 6949TIP3   OH242261   6.681   3.209  12.291 -0.2567  0.4760 -0.6787
 6949TIP3    H142262   6.768   3.186  12.323 -0.4004  0.7609 -0.0651
 6949TIP3    H242263   6.621   3.167  12.353 -0.5931 -0.8151 -1.8464
 6950TIP3   OH242264   2.717   0.510  13.351  0.0202  0.6200 -0.2846
 6950TIP3    H142265   2.770   0.586  13.329  0.3995  0.9480  1.5995
 6950TIP3    H242266   2.777   0.436  13.339  0.0981  0.7423 -0.6819
 6951TIP3   OH242267   0.620   2.361  15.852 -0.6720  0.1739  0.0368
 6951TIP3    H142268   0.599   2.430  15.915  0.0805  0.6888 -0.2519
 6951TIP3    H242269   0.579   2.390  15.770 -1.8152 -0.5909  0.3192
 6952TIP3   OH242270   5.133   2.903  14.773  0.5959  0.0213 -0.5429
 6952TIP3    H142271   5.148   2.997  14.783 -1.0225  0.1786  0.9592
 6952TIP3    H242272   5.130   2.889  14.678  2.3682  1.1908 -0.8155
 6953TIP3   OH242273   5.753   5.259   3.890 -0.2576  0.1811 -0.7294
 6953TIP3    H142274   5.703   5.220   3.818 -3.0308 -0.7038  1.4978
 6953TIP3    H242275   5.767   5.187   3.952  2.6352  0.7513 -0.5506
 6954TIP3   OH242276   4.614   5.768  16.990 -0.9069 -0.7244  0.2847
 6954TIP3    H142277   4.686   5.722  16.948 -1.1186 -1.2199  0.4640
 6954TIP3    H242278   4.651   5.853  17.014 -0.7000 -0.5503 -0.6159
 6955TIP3   OH242279   1.504   0.620  12.709 -0.1664  0.3097 -0.0172
 6955TIP3    H142280   1.598   0.601  12.707  0.1394  1.7149 -1.3026
 6955TIP3    H242281   1.465   0.550  12.657  0.3123  0.3116 -0.3930
 6956TIP3   OH242282   2.284   0.766   5.008 -0.1230 -0.2315 -0.4502
 6956TIP3    H142283   2.378   0.779   5.018 -0.1641 -0.8816  0.8714
 6956TIP3    H242284   2.250   0.854   4.989  0.4544  0.4971  1.6035
 6957TIP3   OH242285   5.408   6.290   4.012 -0.6229  0.1473 -0.6682
 6957TIP3    H142286   5.405   6.366   3.954  0.9912  1.1560  0.4998
 6957TIP3    H242287   5.495   6.293   4.051 -2.0008  0.2165  2.7106
 6958TIP3   OH242288   0.261   0.802  15.476  0.2875  0.1009  0.3402
 6958TIP3    H142289   0.189   0.753  15.437 -0.9939  0.4972  2.1121
 6958TIP3    H242290   0.240   0.807  15.570  3.4882 -1.3152  1.2824
 6959TIP3   OH242291   0.035   2.171  16.086 -0.0533  0.1050  0.0355
 6959TIP3    H142292   0.072   2.084  16.101  3.4638  1.1814 -1.4547
 6959TIP3    H242293   0.080   2.227  16.149 -1.3842  1.0737  0.1529
 6960TIP3   OH242294   0.655   1.666   2.776 -0.1996  0.2066  0.2943
 6960TIP3    H142295   0.665   1.761   2.782  1.4166  0.3700 -2.8430
 6960TIP3    H242296   0.601   1.642   2.852 -0.6146  3.5812  1.2082
 6961TIP3   OH242297   6.600   6.644  15.242 -0.2775 -0.7782  0.2057
 6961TIP3    H142298   6.558   6.692  15.313 -0.1039 -0.2346 -0.0565
 6961TIP3    H242299   6.682   6.613  15.280  1.4030  2.2211 -0.5895
 6962TIP3   OH242300   0.883   1.360   1.127  0.0560 -0.0814  0.1846
 6962TIP3    H142301   0.938   1.432   1.096  0.0428  0.1040  0.5806
 6962TIP3    H242302   0.890   1.293   1.059  0.3207  0.1671 -0.0365
 6963TIP3   OH242303   3.024   0.312  14.717  0.9805  0.3360 -0.4695
 6963TIP3    H142304   3.094   0.313  14.782  2.1089  0.0085 -1.6289
 6963TIP3    H242305   3.066   0.277  14.638 -0.6188 -0.3297 -1.0660
 6964TIP3   OH242306   4.466   6.173  11.908  0.7009  0.2103  0.5122
 6964TIP3    H142307   4.466   6.253  11.855  1.2576 -0.0086  0.1710
 6964TIP3    H242308   4.390   6.182  11.966  1.4334  1.5051  1.2854
 6965TIP3   OH242309   3.361   2.716  11.036 -0.0072  0.1548  0.4667
 6965TIP3    H142310   3.413   2.638  11.014  0.8788  0.6721  0.6711
 6965TIP3    H242311   3.275   2.681  11.061  0.4909 -0.7875  0.9219
 6966TIP3   OH242312   3.162   6.297   4.181 -0.0413  0.0015 -0.1337
 6966TIP3    H142313   3.213   6.352   4.121 -0.5071  0.1869 -0.3685
 6966TIP3    H242314   3.219   6.283   4.256  1.1478 -1.5235 -1.2749
 6967TIP3   OH242315   4.065   6.538  13.485  0.1813 -0.2730 -0.1192
 6967TIP3    H142316   4.024   6.530  13.399 -1.0970  1.5003  0.2634
 6967TIP3    H242317   4.149   6.580  13.468 -0.1089  0.1619 -0.4883
 6968TIP3   OH242318   0.361   2.662  11.428 -0.4394  0.1541  0.0001
 6968TIP3    H142319   0.373   2.708  11.345  0.4430  0.0990  0.0832
 6968TIP3    H242320   0.408   2.716  11.492 -1.0711  0.1694  0.4546
 6969TIP3   OH242321   6.165   5.668  16.940 -0.5772  0.1716  0.2291
 6969TIP3    H142322   6.218   5.632  16.869 -1.4983 -2.6373  0.8206
 6969TIP3    H242323   6.187   5.761  16.942  3.1048 -0.5400 -0.5381
 6970TIP3   OH242324   5.194   2.020   3.992 -0.1821  0.3571  0.0520
 6970TIP3    H142325   5.144   1.996   4.070  0.3626  2.0887  0.9893
 6970TIP3    H242326   5.278   1.975   4.003 -0.0830  0.6451  0.5119
 6971TIP3   OH242327   2.174   1.512   2.754 -0.6345 -0.5298 -0.7840
 6971TIP3    H142328   2.086   1.545   2.774 -0.0340  1.1788 -0.7394
 6971TIP3    H242329   2.172   1.421   2.782 -2.2098 -0.3711 -0.2276
 6972TIP3   OH242330   1.917   1.738  15.006 -0.3169 -0.0666  0.2965
 6972TIP3    H142331   1.986   1.799  15.033  0.9377 -0.7587 -1.1702
 6972TIP3    H242332   1.847   1.793  14.971  0.1941  0.5846  0.2973
 6973TIP3   OH242333   4.596   6.341  15.989 -0.6793 -0.0529 -0.1851
 6973TIP3    H142334   4.688   6.364  15.976 -0.3123 -0.3119  1.7183
 6973TIP3    H242335   4.594   6.245  15.988 -1.1522 -0.0492 -1.4803
 6974TIP3   OH242336   1.170   2.542   2.982  0.5904  0.5565 -0.0932
 6974TIP3    H142337   1.175   2.458   3.027 -1.5289  1.0325  1.1795
 6974TIP3    H242338   1.192   2.522   2.891 -0.2920 -1.4751  0.0864
 6975TIP3   OH242339   0.407   3.766   2.996 -0.1746  0.3758 -0.0716
 6975TIP3    H142340   0.326   3.815   3.004 -0.5204 -0.3022  0.6077
 6975TIP3    H242341   0.411   3.711   3.074  0.5389 -0.1836 -0.4801
 6976TIP3   OH242342   2.545   1.931   3.327 -0.5114 -0.1794 -0.8206
 6976TIP3    H142343   2.559   1.957   3.236 -0.0309  0.1304 -0.6598
 6976TIP3    H242344   2.451   1.914   3.333 -0.2609 -2.2387 -1.8969
 6977TIP3   OH242345   3.605   4.147   1.401 -0.1724  0.1654 -0.8703
 6977TIP3    H142346   3.597   4.054   1.380  0.7392  0.0173 -0.6147
 6977TIP3    H242347   3.647   4.148   1.488  2.8950  0.7987 -2.2062
 6978TIP3   OH242348   2.446   3.937   2.798 -0.0163 -0.0456 -0.3391
 6978TIP3    H142349   2.391   3.918   2.874 -0.1567  0.9869 -0.1616
 6978TIP3    H242350   2.495   3.857   2.782  0.7790  0.0532  1.4739
 6979TIP3   OH242351   0.364   5.855   5.085  0.2239  0.6700  0.1975
 6979TIP3    H142352   0.379   5.844   5.179 -1.9317  1.2018  0.6464
 6979TIP3    H242353   0.300   5.787   5.063 -1.2803  2.1845 -0.2941
 6980TIP3   OH242354   0.518   5.849  13.524  0.9285  0.0080  0.0313
 6980TIP3    H142355   0.467   5.885  13.597 -1.1672  0.8347 -1.7633
 6980TIP3    H242356   0.582   5.918  13.504  2.4667 -0.7756  1.8713
 6981TIP3   OH242357   1.385   3.091  12.500 -0.7066  0.4346  0.1651
 6981TIP3    H142358   1.390   3.073  12.406 -1.4169  1.8237 -0.1665
 6981TIP3    H242359   1.392   3.187  12.507 -2.2192  0.5007  1.3878
 6982TIP3   OH242360   5.547   2.769  13.977  0.4206  0.7839  1.0628
 6982TIP3    H142361   5.586   2.681  13.974  1.8385  1.4221 -0.7306
 6982TIP3    H242362   5.454   2.755  13.956  0.7334 -0.2389  0.2732
 6983TIP3   OH242363   3.114   0.364   0.329  0.2508 -0.1543  0.4219
 6983TIP3    H142364   3.137   0.293   0.269  0.6454  0.6216 -0.3600
 6983TIP3    H242365   3.048   0.414   0.283 -1.2901 -0.9482  1.6636
 6984TIP3   OH242366   1.206   2.356  16.361 -0.0167  0.2066  0.6266
 6984TIP3    H142367   1.129   2.300  16.372  1.1755 -1.6224  0.1676
 6984TIP3    H242368   1.235   2.340  16.271  0.3157  1.6898  0.4375
 6985TIP3   OH242369   0.908   2.249  13.800 -0.3749  0.4218 -0.4686
 6985TIP3    H142370   0.846   2.263  13.872 -0.0661  0.9764 -0.3053
 6985TIP3    H242371   0.924   2.337  13.766 -1.0738  0.0961 -1.6894
 6986TIP3   OH242372   2.289   5.227   4.632  0.5516 -0.0469  0.3737
 6986TIP3    H142373   2.309   5.316   4.661  2.0198 -0.4938  0.8354
 6986TIP3    H242374   2.267   5.236   4.539 -0.8428  0.9679  0.7592
 6987TIP3   OH242375   4.413   3.448  11.767 -0.7096  0.1927 -0.1788
 6987TIP3    H142376   4.475   3.428  11.837  0.8758  0.3649 -1.4690
 6987TIP3    H242377   4.417   3.370  11.710 -1.5953  0.2621 -0.3448
 6988TIP3   OH242378   2.739   1.017   1.351  0.7832 -0.4282 -0.2852
 6988TIP3    H142379   2.828   1.000   1.383  1.5150  0.4167 -1.7473
 6988TIP3    H242380   2.701   1.075   1.416  1.1330 -1.1691  0.5994
 6989TIP3   OH242381   6.336   1.845  17.196 -0.0953  0.0230 -0.3255
 6989TIP3    H142382   6.364   1.926  17.238 -2.0768  0.4184  0.3848
 6989TIP3    H242383   6.367   1.852  17.106 -0.0715  1.4862 -0.2277
 6990TIP3   OH242384   0.431   3.063   3.927 -0.0895 -0.2795 -0.1831
 6990TIP3    H142385   0.435   3.124   3.853 -0.8628  0.4775  0.3825
 6990TIP3    H242386   0.373   2.993   3.896 -1.1061  0.4654 -0.0007
 6991TIP3   OH242387   5.357   0.798   0.069  0.2821  0.3662  0.3910
 6991TIP3    H142388   5.281   0.765   0.022 -0.5070  0.8567  1.3019
 6991TIP3    H242389   5.371   0.735   0.140  1.5125 -0.4139 -0.4953
 6992TIP3   OH242390   5.416   3.968  11.561  0.0152 -0.5960 -0.2166
 6992TIP3    H142391   5.461   3.998  11.640  1.8586 -1.2386 -0.9832
 6992TIP3    H242392   5.360   3.897  11.592  0.9781 -1.0831  0.4780
 6993TIP3   OH242393   0.693   3.963   5.373 -0.0887 -0.2402  0.8931
 6993TIP3    H142394   0.723   4.053   5.361 -0.2025 -0.2193  0.7630
 6993TIP3    H242395   0.773   3.912   5.384 -0.0596  0.1238  2.7618
 6994TIP3   OH242396   4.309   1.262   5.077  0.4274 -0.4332  0.6068
 6994TIP3    H142397   4.285   1.337   5.131 -2.2017  1.0149 -2.2605
 6994TIP3    H242398   4.233   1.204   5.078  1.0325 -1.2835 -0.0513
 6995TIP3   OH242399   1.371   0.149  12.885 -0.0773  0.1319 -0.4215
 6995TIP3    H142400   1.392   0.066  12.928  0.6790 -0.4346 -1.8221
 6995TIP3    H242401   1.451   0.200  12.891 -0.3674  0.5524 -0.0672
 6996TIP3   OH242402   5.147   5.430  11.905  0.8347  0.1780 -0.5238
 6996TIP3    H142403   5.145   5.513  11.858 -0.6375  0.2538 -0.3556
 6996TIP3    H242404   5.059   5.395  11.896  1.6925 -1.9091 -1.5512
 6997TIP3   OH242405   2.712   6.461  15.206 -0.5988  0.0755  0.1690
 6997TIP3    H142406   2.648   6.459  15.134 -0.3684  1.4171 -0.0891
 6997TIP3    H242407   2.775   6.528  15.180  0.5313 -0.7295  0.7636
 6998TIP3   OH242408   3.046   5.340   4.521  0.2164 -0.1215 -0.1025
 6998TIP3    H142409   2.978   5.273   4.525  0.0366  0.1012  1.2464
 6998TIP3    H242410   3.117   5.300   4.472  0.2778 -1.4792  1.0280
 6999TIP3   OH242411   2.732   1.857   0.101  0.5323  0.0281 -0.1187
 6999TIP3    H142412   2.716   1.831   0.192  0.5108 -0.3659 -0.2304
 6999TIP3    H242413   2.686   1.940   0.091  0.6451  0.1377  0.2668
 7000TIP3   OH242414   1.845   0.033   3.492 -0.4672 -0.1361 -0.4446
 7000TIP3    H142415   1.777   0.098   3.508 -0.0495  0.1997  0.0136
 7000TIP3    H242416   1.878   0.012   3.580  2.1075  1.9600 -0.7898
 7001TIP3   OH242417   1.357   5.712   2.433  0.3952 -0.0773 -0.3182
 7001TIP3    H142418   1.433   5.655   2.429  1.9251  1.8013  0.5426
 7001TIP3    H242419   1.393   5.801   2.433 -1.8323  0.8910 -0.5864
 7002TIP3   OH242420   0.842   5.366   1.242 -0.1746  0.0980  0.0830
 7002TIP3    H142421   0.765   5.414   1.272 -0.7851 -1.0644  0.4382
 7002TIP3    H242422   0.846   5.383   1.148 -0.8070  0.2327  0.0774
 7003TIP3   OH242423   3.738   4.236   2.560  0.2813  0.4012  0.0158
 7003TIP3    H142424   3.763   4.325   2.535  1.9032  0.3961  1.4179
 7003TIP3    H242425   3.716   4.243   2.653 -0.1258 -0.5586 -0.0059
 7004TIP3   OH242426   4.044   2.347   2.949 -0.0429 -0.3952  0.4197
 7004TIP3    H142427   4.027   2.312   3.036  0.6629  0.8719  1.1002
 7004TIP3    H242428   4.102   2.283   2.908  0.6080 -0.4218  1.3547
 7005TIP3   OH242429   0.165   4.610  11.842  0.1024 -0.3313  0.0324
 7005TIP3    H142430   0.149   4.597  11.749  1.4911 -0.2975 -0.2345
 7005TIP3    H242431   0.123   4.535  11.884 -0.3609 -0.4559 -0.6389
 7006TIP3   OH242432   3.728   4.530   2.509 -0.0009 -0.5916 -0.1458
 7006TIP3    H142433   3.799   4.574   2.554  1.0851 -0.2524 -2.0799
 7006TIP3    H242434   3.650   4.579   2.534  0.8082  0.6995 -0.0837
 7007TIP3   OH242435   3.227   1.127   0.417 -0.2920  0.2377  0.6437
 7007TIP3    H142436   3.254   1.042   0.454 -0.2028 -0.3488 -0.7002
 7007TIP3    H242437   3.291   1.189   0.450  1.3274 -0.7140 -0.5465
 7008TIP3   OH242438   6.610   6.558  17.024  0.1813 -0.0116 -0.6371
 7008TIP3    H142439   6.632   6.467  17.044  2.6869  0.7620  0.4423
 7008TIP3    H242440   6.614   6.563  16.929  0.9321 -0.8238 -0.6593
 7009TIP3   OH242441   3.983   3.098   4.376  0.2623  0.6439  0.2450
 7009TIP3    H142442   4.013   3.083   4.466 -0.1698  1.7183  0.5777
 7009TIP3    H242443   4.061   3.086   4.323  0.6531  0.5993  0.8185
 7010TIP3   OH242444   6.205   0.324   4.533 -0.5898  0.0426  0.7941
 7010TIP3    H142445   6.216   0.405   4.583  0.4980  0.1753  0.3744
 7010TIP3    H242446   6.277   0.326   4.469 -2.0531 -0.0018 -0.9335
 7011TIP3   OH242447   6.380   3.232   3.796  0.4070  0.0977 -0.8503
 7011TIP3    H142448   6.285   3.233   3.787  0.5020  0.9560 -1.8976
 7011TIP3    H242449   6.395   3.187   3.879 -0.8949 -0.2922 -0.7930
 7012TIP3   OH242450   3.751   4.276   5.520  0.1808  0.3011 -0.5183
 7012TIP3    H142451   3.677   4.222   5.491 -1.0087  0.6822  1.5838
 7012TIP3    H242452   3.819   4.213   5.541 -0.3888 -0.2314 -0.2354
 7013TIP3   OH242453   3.278   5.775  12.171  0.1453  0.1432 -0.3771
 7013TIP3    H142454   3.356   5.720  12.165  1.1613  1.2818  1.3079
 7013TIP3    H242455   3.214   5.734  12.113  1.3678 -1.8908 -0.3660
 7014TIP3   OH242456   0.603   6.343   5.181 -0.5480  0.1995  0.1481
 7014TIP3    H142457   0.562   6.413   5.232  0.3161  0.7799  0.0753
 7014TIP3    H242458   0.536   6.316   5.118 -1.1845  0.3581  0.7436
 7015TIP3   OH242459   2.080   1.379  13.627  0.6881 -0.7074 -0.1078
 7015TIP3    H142460   2.044   1.446  13.570  0.3272 -1.3592 -0.6504
 7015TIP3    H242461   2.172   1.373  13.601  0.9063  0.0678  0.4293
 7016TIP3   OH242462   6.567   6.729   0.029  0.4639 -0.3494  1.0093
 7016TIP3    H142463   6.526   6.651  -0.008  0.8294 -1.0126  1.9411
 7016TIP3    H242464   6.505   6.800   0.012 -0.0499 -0.9182  0.4767
 7017TIP3   OH242465   3.075   4.096  16.667 -0.0530  0.1584  0.5000
 7017TIP3    H142466   3.094   4.189  16.683 -0.4446  0.3954 -0.3360
 7017TIP3    H242467   3.157   4.051  16.684  0.4219  0.7930 -0.0634
 7018TIP3   OH242468   6.037   2.178  15.308 -0.5552  0.0383 -0.1301
 7018TIP3    H142469   6.092   2.253  15.330 -0.6030  0.2097 -0.5812
 7018TIP3    H242470   5.977   2.170  15.382 -0.3970  0.2986  0.0294
 7019TIP3   OH242471   0.023   4.443  12.084  0.0629  0.4364  0.4078
 7019TIP3    H142472   0.016   4.385  12.160  0.8977 -0.2295 -0.0091
 7019TIP3    H242473  -0.054   4.423  12.032  0.3093 -0.2607  0.2998
 7020TIP3   OH242474   0.911   4.824  16.803 -0.0962  0.1813 -0.5797
 7020TIP3    H142475   0.918   4.911  16.763 -0.2653  0.5668  0.2129
 7020TIP3    H242476   0.831   4.787  16.764 -0.5681  0.7711 -0.1938
 7021TIP3   OH242477   5.672   1.335   1.941 -0.2038 -0.1199 -0.6582
 7021TIP3    H142478   5.701   1.419   1.979  0.0826  0.4291 -2.0375
 7021TIP3    H242479   5.612   1.300   2.006 -0.5869  1.3255 -0.1815
 7022TIP3   OH242480   4.698   3.064  11.929  0.1994 -0.2078  0.4755
 7022TIP3    H142481   4.677   3.052  11.836  0.7518  1.0380  0.1650
 7022TIP3    H242482   4.623   3.029  11.976  0.0394 -1.1277 -0.4235
 7023TIP3   OH242483   4.416   4.641  14.557 -0.1393  0.2592 -0.2029
 7023TIP3    H142484   4.348   4.625  14.491  0.7601 -1.9848 -0.6679
 7023TIP3    H242485   4.373   4.694  14.624 -2.9720 -2.6238  0.4675
 7024TIP3   OH242486   3.536   4.833  16.545  0.0197 -0.6617 -0.3772
 7024TIP3    H142487   3.558   4.919  16.511  1.3332 -0.9579 -0.3477
 7024TIP3    H242488   3.457   4.807  16.497  0.7059 -0.2561 -1.7763
 7025TIP3   OH242489   5.064   1.891   4.846 -0.2527 -0.0265  0.7268
 7025TIP3    H142490   5.009   1.857   4.916  1.4729 -1.9685  1.2285
 7025TIP3    H242491   5.120   1.818   4.821  0.9669  1.3709 -0.8942
 7026TIP3   OH242492   0.432   4.379  17.072  0.3925 -0.3718 -0.0509
 7026TIP3    H142493   0.466   4.331  17.147 -1.1407  0.3241  1.1244
 7026TIP3    H242494   0.500   4.369  17.005 -0.2171 -5.0297 -0.3026
 7027TIP3   OH242495   6.420   0.586   5.918  0.0794 -0.0080  0.2381
 7027TIP3    H142496   6.490   0.600   5.982  0.5352  2.5790 -0.7205
 7027TIP3    H242497   6.352   0.648   5.942 -1.2158 -1.3556  0.1679
 7028TIP3   OH242498   2.251   5.058  14.349  0.3845 -0.4362 -0.6077
 7028TIP3    H142499   2.227   5.097  14.433 -1.2655 -0.1837 -1.1511
 7028TIP3    H242500   2.264   4.965  14.368 -1.8029 -0.7358 -0.3569
 7029TIP3   OH242501   0.085   4.938   0.788  0.0032 -0.1561 -0.0623
 7029TIP3    H142502   0.140   4.862   0.769 -0.7995 -1.1687  1.5065
 7029TIP3    H242503   0.129   4.983   0.860  0.0872  0.4664 -0.4944
 7030TIP3   OH242504   1.554   6.386  15.910  0.0182  0.1378 -0.0217
 7030TIP3    H142505   1.553   6.388  16.005  0.9588  0.3518 -0.0058
 7030TIP3    H242506   1.562   6.477  15.883  1.3525 -0.0245 -0.2536
 7031TIP3   OH242507   0.333   2.432   2.819  0.7034  0.0152 -0.5905
 7031TIP3    H142508   0.333   2.436   2.723  0.9191  0.9687 -0.5601
 7031TIP3    H242509   0.377   2.349   2.839 -1.9176 -1.6527 -1.3220
 7032TIP3   OH242510   4.900   2.343  14.325  0.4657  0.2195  0.0973
 7032TIP3    H142511   4.809   2.351  14.297  0.2808  1.0450  0.8730
 7032TIP3    H242512   4.947   2.313  14.247 -0.4744 -0.2845 -0.2925
 7033TIP3   OH242513   3.069   0.765  12.725 -0.6828  0.7313  0.1286
 7033TIP3    H142514   3.064   0.737  12.634  1.8901 -3.0987  0.9128
 7033TIP3    H242515   3.160   0.792  12.738 -0.4514 -0.6694  1.9162
 7034TIP3   OH242516   5.966   6.040  12.902 -0.4006  0.1716 -0.6966
 7034TIP3    H142517   5.898   5.974  12.913 -0.3615  0.2145 -0.2122
 7034TIP3    H242518   6.001   6.054  12.989  1.3214 -1.0127 -1.1549
 7035TIP3   OH242519   4.876   0.004  11.042  0.2813 -0.9537  0.3659
 7035TIP3    H142520   4.959  -0.029  11.076  1.6310  0.5208 -1.3416
 7035TIP3    H242521   4.896   0.091  11.009 -1.5525 -1.1978 -1.5973
 7036TIP3   OH242522   4.080   1.514  15.589 -0.3518 -0.1998 -0.7608
 7036TIP3    H142523   4.167   1.521  15.551 -0.4365  1.2959 -0.7548
 7036TIP3    H242524   4.093   1.462  15.668  0.5423  0.0161 -0.7497
 7037TIP3   OH242525   3.008   1.789  10.995 -0.4031  0.0781  0.0910
 7037TIP3    H142526   3.062   1.831  10.928  0.3324 -0.7043  0.1706
 7037TIP3    H242527   2.983   1.705  10.957  0.9542 -0.8679  1.1873
 7038TIP3   OH242528   0.954   0.840   0.499  0.0564 -0.0769  0.0248
 7038TIP3    H142529   1.041   0.821   0.463  1.3926  1.1785  2.3199
 7038TIP3    H242530   0.957   0.806   0.589  0.8044  5.5488  2.5973
 7039TIP3   OH242531   1.051   4.235   0.029 -0.3703 -0.9100 -0.2265
 7039TIP3    H142532   1.049   4.293   0.105 -0.3492 -0.5126 -0.5276
 7039TIP3    H242533   1.099   4.284  -0.038 -0.3705 -1.2661 -0.4900
 7040TIP3   OH242534   5.339   6.781   2.885  0.4592 -0.0663 -0.1769
 7040TIP3    H142535   5.372   6.694   2.865 -0.0984 -0.0810 -1.0512
 7040TIP3    H242536   5.413   6.825   2.928  0.4678 -1.2372  1.0605
 7041TIP3   OH242537   6.634   3.686   1.368 -0.4094  0.2128  0.1962
 7041TIP3    H142538   6.647   3.720   1.279 -3.1338  0.0936 -0.3329
 7041TIP3    H242539   6.721   3.656   1.395  0.5381  0.4087 -2.3549
 7042TIP3   OH242540   0.971   3.819  16.989 -0.3588 -0.1511  0.1925
 7042TIP3    H142541   1.063   3.821  16.964 -0.2581  0.8216  0.6161
 7042TIP3    H242542   0.953   3.726  17.006  0.4692 -0.3799 -0.1251
 7043TIP3   OH242543   4.096   0.249  16.080 -0.3891 -0.1196 -0.3201
 7043TIP3    H142544   4.095   0.230  15.986  1.9343 -1.8344 -0.0810
 7043TIP3    H242545   4.056   0.173  16.121 -0.0331 -0.0551  0.1604
 7044TIP3   OH242546   1.037   5.050   3.472 -0.3577  0.6193  0.1453
 7044TIP3    H142547   1.066   5.118   3.533 -0.5297  0.6929  0.1456
 7044TIP3    H242548   0.968   5.092   3.421  1.2804  1.3034 -1.6473
 7045TIP3   OH242549   2.355   6.672  13.236 -0.0976 -0.5921  0.4746
 7045TIP3    H142550   2.388   6.607  13.174  0.7155  1.5684 -1.5076
 7045TIP3    H242551   2.427   6.685  13.298  0.4304 -0.3245 -0.1818
 7046TIP3   OH242552   4.376   5.157   4.121  0.0286 -0.0052 -0.4232
 7046TIP3    H142553   4.390   5.213   4.197  1.0303 -1.2076  0.3160
 7046TIP3    H242554   4.410   5.208   4.047 -2.7744  2.0149 -0.4638
 7047TIP3   OH242555   6.135   1.690   5.875  0.0531 -0.4722 -0.1366
 7047TIP3    H142556   6.158   1.768   5.925  1.4681  0.3945 -2.0289
 7047TIP3    H242557   6.115   1.624   5.942 -0.8146  1.3492  1.5195
 7048TIP3   OH242558   2.944   5.842  15.432  0.1598 -0.3688  0.6024
 7048TIP3    H142559   2.879   5.904  15.398 -0.3792 -0.6979  1.0247
 7048TIP3    H242560   2.908   5.814  15.516 -0.4861 -2.6193 -0.3672
 7049TIP3   OH242561   6.402   4.436   6.408  0.3165 -0.4865 -0.0245
 7049TIP3    H142562   6.358   4.404   6.329  0.1947  1.7290 -0.9044
 7049TIP3    H242563   6.445   4.358   6.444  0.4140 -1.5708 -2.2915
 7050TIP3   OH242564   1.014   2.766   0.083  0.3710 -0.5949  0.3040
 7050TIP3    H142565   0.984   2.857   0.083 -1.4728 -1.0907  2.7399
 7050TIP3    H242566   0.990   2.732  -0.003 -3.9915 -0.1656  1.1358
 7051TIP3   OH242567   0.440   6.066   1.630 -0.5553  0.3838 -0.2198
 7051TIP3    H142568   0.406   5.995   1.685 -1.4333  0.4003 -0.7184
 7051TIP3    H242569   0.485   6.124   1.692 -0.5374 -0.1803  0.3103
 7052TIP3   OH242570   2.614   2.510  11.710  0.1807 -0.0076 -0.3395
 7052TIP3    H142571   2.582   2.550  11.630  0.6768  2.5698  0.6423
 7052TIP3    H242572   2.536   2.477  11.754 -1.0128  3.6533  0.6879
 7053TIP3   OH242573   3.401   0.622  15.292  0.1321  0.0075  0.2051
 7053TIP3    H142574   3.469   0.563  15.325 -0.6088 -0.3032  1.2496
 7053TIP3    H242575   3.445   0.675  15.226  0.8994 -1.4997 -0.5560
 7054TIP3   OH242576   1.116   2.802   3.160 -0.5329  0.6657  0.1460
 7054TIP3    H142577   1.098   2.715   3.126  1.7874 -0.7189  2.1254
 7054TIP3    H242578   1.046   2.818   3.224 -0.9462  0.2379 -0.1951
 7055TIP3   OH242579   4.803   4.094  15.700 -0.1375  0.1275 -0.8890
 7055TIP3    H142580   4.793   4.180  15.658 -2.0902 -1.1679 -3.3338
 7055TIP3    H242581   4.873   4.051  15.651  1.6553  0.6242  1.0729
 7056TIP3   OH242582   0.737   3.414   2.611  0.3612 -0.4011 -0.3865
 7056TIP3    H142583   0.784   3.399   2.529 -1.6472 -0.6774 -1.5584
 7056TIP3    H242584   0.667   3.474   2.587 -1.8054 -2.4082  0.4889
 7057TIP3   OH242585   2.109   2.702  11.534  0.6408 -0.3782 -0.6609
 7057TIP3    H142586   2.148   2.615  11.537  1.1836 -0.1324  1.5658
 7057TIP3    H242587   2.165   2.755  11.591 -1.0209  0.8200 -0.0536
 7058TIP3   OH242588   0.311   1.936  14.160  0.1939 -0.6822 -0.4358
 7058TIP3    H142589   0.316   1.841  14.160  1.2172 -0.6404 -0.1200
 7058TIP3    H242590   0.397   1.965  14.131 -0.3266  0.1493 -1.2054
 7059TIP3   OH242591   2.630   5.396   0.511 -0.2418  0.3109 -0.2445
 7059TIP3    H142592   2.721   5.423   0.524 -0.3542  1.6554 -1.9071
 7059TIP3    H242593   2.579   5.467   0.550 -0.5391  1.1356 -2.0328
 7060TIP3   OH242594   3.368   1.355   2.896  0.0791 -0.0979 -0.2553
 7060TIP3    H142595   3.283   1.357   2.853  0.1874  1.3563 -0.4670
 7060TIP3    H242596   3.358   1.414   2.971  0.3501 -1.3826  0.8328
 7061TIP3   OH242597   4.068   2.919   1.078  0.2497  0.2920 -0.5657
 7061TIP3    H142598   4.148   2.937   1.127 -0.1017  4.1131 -1.0202
 7061TIP3    H242599   4.003   2.977   1.118 -1.5147 -0.6023 -2.0130
 7062TIP3   OH242600   5.098   2.887  15.968  0.0144  0.3077  0.2901
 7062TIP3    H142601   5.159   2.813  15.977 -1.8703 -1.6528 -1.6664
 7062TIP3    H242602   5.109   2.917  15.878 -0.6414  1.1026  0.4633
 7063TIP3   OH242603   3.375   1.130   4.602  0.1564  0.2588 -0.1681
 7063TIP3    H142604   3.291   1.156   4.639  0.7556 -1.8051  3.0844
 7063TIP3    H242605   3.429   1.209   4.605  0.2254  0.2602  3.9892
 7064TIP3   OH242606   4.838   6.348   2.717 -0.0230  0.2325 -0.1525
 7064TIP3    H142607   4.876   6.412   2.778  1.3470  0.8958 -1.6226
 7064TIP3    H242608   4.899   6.275   2.717  0.8747  0.9187 -1.8632
 7065TIP3   OH242609   1.930   6.397  15.618  0.8075 -0.1655 -0.2931
 7065TIP3    H142610   1.919   6.367  15.528 -0.2585 -0.4619 -0.0857
 7065TIP3    H242611   1.890   6.484  15.619  1.0357 -0.0621 -0.1627
 7066TIP3   OH242612   2.758   3.321  15.120 -0.0138  0.4174 -0.1114
 7066TIP3    H142613   2.848   3.354  15.115 -0.3542  1.5600  0.8932
 7066TIP3    H242614   2.716   3.376  15.185 -1.4237 -0.1876 -0.4771
 7067TIP3   OH242615   3.601   2.997  13.225  0.0182 -0.6126 -0.0642
 7067TIP3    H142616   3.654   3.029  13.298  0.8178  0.5839 -1.1171
 7067TIP3    H242617   3.661   2.945  13.172 -0.2548 -0.5321 -0.4614
 7068TIP3   OH242618   5.921   1.415   5.442  0.6963 -0.0698 -0.3045
 7068TIP3    H142619   5.939   1.473   5.517  0.8081 -1.7731  1.0369
 7068TIP3    H242620   5.826   1.405   5.443  0.7695 -0.7756  0.1607
 7069TIP3   OH242621   0.976   0.724  15.361  0.1716  0.0168 -0.2063
 7069TIP3    H142622   0.985   0.648  15.304 -1.4791 -0.9230  0.6885
 7069TIP3    H242623   0.940   0.688  15.443 -0.9129  1.7800  0.1526
 7070TIP3   OH242624   3.113   1.439   0.039  0.3544  0.8863  0.0143
 7070TIP3    H142625   3.108   1.392   0.122 -0.7923  0.2819 -0.3616
 7070TIP3    H242626   3.196   1.486   0.042  0.8229  0.0300  1.0519
 7071TIP3   OH242627   6.185   1.255   0.527  0.6831 -0.5102  0.1362
 7071TIP3    H142628   6.244   1.283   0.598 -0.4938 -1.1317  1.4184
 7071TIP3    H242629   6.098   1.284   0.556  0.0660 -1.5197 -0.6581
 7072TIP3   OH242630   3.357   0.256  12.100 -0.2023 -0.7529 -0.1625
 7072TIP3    H142631   3.370   0.287  12.189 -0.4073  1.2288 -0.7858
 7072TIP3    H242632   3.432   0.200  12.083  2.1605  2.1854 -0.1497
 7073TIP3   OH242633   5.208   3.503   1.571 -0.3604 -0.0007 -0.3028
 7073TIP3    H142634   5.227   3.586   1.616  3.0430 -2.2652  3.0146
 7073TIP3    H242635   5.287   3.484   1.521 -0.2448 -2.0321  0.5358
 7074TIP3   OH242636   4.155   2.403  14.796 -0.4085  0.2144  0.3957
 7074TIP3    H142637   4.205   2.338  14.846 -1.4780  0.4807  1.9087
 7074TIP3    H242638   4.219   2.444  14.739  0.4456 -1.6178 -0.0343
 7075TIP3   OH242639   5.591   6.290  13.427 -0.1694 -0.1832  0.1194
 7075TIP3    H142640   5.530   6.226  13.463 -0.3588 -0.1239 -0.0991
 7075TIP3    H242641   5.605   6.263  13.337  2.4307 -1.9555  0.9246
 7076TIP3   OH242642   3.285   2.427  15.894 -0.0898  0.2645  0.3668
 7076TIP3    H142643   3.254   2.518  15.902  0.5047  0.4545  0.5374
 7076TIP3    H242644   3.340   2.428  15.815  0.6885  0.2715  0.9046
 7077TIP3   OH242645   2.461   4.232  14.199  0.5766 -0.4291 -0.2761
 7077TIP3    H142646   2.496   4.318  14.222 -0.4848  0.6204 -2.2983
 7077TIP3    H242647   2.420   4.201  14.280  2.7385 -0.0258  1.0860
 7078TIP3   OH242648   5.394   5.473  16.307  0.2655  0.1879  0.6434
 7078TIP3    H142649   5.353   5.536  16.248  0.4670  0.5950  0.9305
 7078TIP3    H242650   5.326   5.452  16.371 -0.6523 -1.8029 -0.8412
 7079TIP3   OH242651   3.714   0.519  14.868 -0.2166  0.3567 -0.0871
 7079TIP3    H142652   3.750   0.431  14.867 -0.4650  0.2542 -0.2734
 7079TIP3    H242653   3.632   0.511  14.918  0.2616  0.6881  0.7801
 7080TIP3   OH242654   4.638   6.533  16.764  0.2963  0.8294  0.0721
 7080TIP3    H142655   4.592   6.466  16.713 -0.5240  1.2502  0.2395
 7080TIP3    H242656   4.568   6.586  16.803  0.9290  1.8892 -0.1884
 7081TIP3   OH242657   5.995   6.432   5.509  0.2605 -0.2372  0.3115
 7081TIP3    H142658   6.070   6.397   5.462 -0.2999 -1.0110 -0.0275
 7081TIP3    H242659   5.980   6.369   5.580  0.8402  0.6943  1.2953
 7082TIP3   OH242660   1.277   4.086  15.825 -0.0359 -0.0552  0.0336
 7082TIP3    H142661   1.206   4.151  15.821 -0.0200 -0.0971 -1.3293
 7082TIP3    H242662   1.300   4.082  15.918 -0.7396  1.1303  0.2830
 7083TIP3   OH242663   4.722   1.869   2.600  0.1761 -0.3339 -0.0559
 7083TIP3    H142664   4.724   1.962   2.624  0.6502 -0.2977 -0.2367
 7083TIP3    H242665   4.808   1.836   2.624 -0.6719 -1.2375  1.9934
 7084TIP3   OH242666   6.205   1.838   0.194  0.4517 -0.1027  0.4784
 7084TIP3    H142667   6.119   1.877   0.211  1.1840  2.8036 -1.7592
 7084TIP3    H242668   6.197   1.800   0.107  1.2517 -0.4877  0.5669
 7085TIP3   OH242669   0.053   6.572  15.989  0.3919 -0.0085  0.0042
 7085TIP3    H142670   0.112   6.523  15.932  0.6097 -0.1424  0.3389
 7085TIP3    H242671  -0.011   6.610  15.930  1.2605  0.7791 -0.4591
 7086TIP3   OH242672   0.423   3.805   3.484 -0.9342 -0.1105 -0.1860
 7086TIP3    H142673   0.478   3.809   3.562 -0.9202 -0.2265 -0.1890
 7086TIP3    H242674   0.358   3.874   3.496 -1.5346 -0.7641  0.3881
 7087TIP3   OH242675   1.929   0.244  14.679  0.0612  0.5275 -0.0710
 7087TIP3    H142676   1.961   0.331  14.703 -1.0862  0.7011  0.9122
 7087TIP3    H242677   1.839   0.258  14.651 -0.1036 -0.3354  0.0022
 7088TIP3   OH242678   1.946   4.838  16.271 -0.0117  0.5056  0.2046
 7088TIP3    H142679   1.952   4.913  16.212  0.4930 -1.0118 -1.7898
 7088TIP3    H242680   1.852   4.823  16.281 -0.2273 -0.9361 -2.7026
 7089TIP3   OH242681   2.363   0.460   5.566 -0.3530 -0.2899 -0.3166
 7089TIP3    H142682   2.368   0.518   5.490  2.0467  0.2777  0.2096
 7089TIP3    H242683   2.396   0.512   5.639  0.2966 -1.7770  0.4955
 7090TIP3   OH242684   5.929   5.184   4.273 -0.0377  0.1860  0.3798
 7090TIP3    H142685   5.857   5.125   4.294 -1.2129  2.1321  2.2513
 7090TIP3    H242686   5.973   5.143   4.198 -2.1583 -1.8170  0.1174
 7091TIP3   OH242687   6.222   6.089   0.075  0.0588  0.7453 -0.5143
 7091TIP3    H142688   6.147   6.128   0.030  0.0063  0.5040 -0.6379
 7091TIP3    H242689   6.218   5.996   0.053 -0.3982  0.4858  0.5944
 7092TIP3   OH242690   3.180   1.322   4.304  0.2204 -0.1282  0.1795
 7092TIP3    H142691   3.125   1.272   4.365 -0.2850 -0.4824 -0.5548
 7092TIP3    H242692   3.123   1.390   4.270  1.2873  1.9360  2.2529
 7093TIP3   OH242693   6.343   6.692   6.205 -0.1560  0.1420  0.2646
 7093TIP3    H142694   6.363   6.651   6.289  0.2025  0.4031  0.3074
 7093TIP3    H242695   6.270   6.640   6.170  0.9755 -1.2389 -0.1806
 7094TIP3   OH242696   2.962   3.598  16.396  0.1129 -0.3941  0.1029
 7094TIP3    H142697   3.021   3.560  16.460 -0.5603  0.4407  1.2552
 7094TIP3    H242698   2.993   3.689  16.386 -0.0846 -0.3760 -0.4053
 7095TIP3   OH242699   3.526   6.330   0.225  0.5986  0.9009  0.2433
 7095TIP3    H142700   3.558   6.385   0.154  0.0264  2.1901  0.9502
 7095TIP3    H242701   3.599   6.325   0.287  0.3434  1.6613  0.6178
 7096TIP3   OH242702   1.806   3.047   3.877 -0.6442  0.0166 -0.3631
 7096TIP3    H142703   1.812   2.960   3.839 -0.9382  0.8118 -2.3537
 7096TIP3    H242704   1.765   3.033   3.963 -0.8201 -1.7650 -0.7059
 7097TIP3   OH242705   6.737   1.149   4.794  0.1518  0.1893 -0.4551
 7097TIP3    H142706   6.697   1.096   4.725  0.1346 -1.0685  0.4776
 7097TIP3    H242707   6.664   1.173   4.851  0.2913  0.4728 -0.3962
 7098TIP3   OH242708   1.954   2.756   5.202  0.0940  0.0406 -0.8247
 7098TIP3    H142709   1.933   2.738   5.294 -0.4872  0.8546 -0.7882
 7098TIP3    H242710   2.049   2.752   5.198  0.2298  1.4826  0.1557
 7099TIP3   OH242711   2.289   3.282  12.535 -0.3880 -0.1160 -0.1252
 7099TIP3    H142712   2.218   3.337  12.502 -1.4169 -1.0137  0.5393
 7099TIP3    H242713   2.367   3.316  12.491 -1.2106  0.9030 -0.8629
 7100TIP3   OH242714   5.095   5.330  11.617 -0.2976 -0.6509 -0.0389
 7100TIP3    H142715   5.172   5.278  11.640 -0.5917 -1.6416 -1.1907
 7100TIP3    H242716   5.036   5.322  11.692 -0.2722 -1.8722 -0.1392
 7101TIP3   OH242717   4.040   5.061   0.235 -0.0027 -0.3320 -0.2119
 7101TIP3    H142718   3.989   5.047   0.315 -0.8894  0.5153 -0.6137
 7101TIP3    H242719   3.996   5.006   0.169  0.0613 -0.1827 -0.3787
 7102TIP3   OH242720   2.432   3.497   5.848 -0.3759 -0.9193  0.0537
 7102TIP3    H142721   2.400   3.566   5.905  1.8732  1.2475 -1.1481
 7102TIP3    H242722   2.440   3.421   5.905 -2.2969 -0.0764  1.5639
 7103TIP3   OH242723   4.604   1.676  17.199 -0.2394  0.0665 -0.0750
 7103TIP3    H142724   4.664   1.741  17.236 -0.1426 -1.3111  2.4393
 7103TIP3    H242725   4.641   1.654  17.114 -0.3703  3.3262 -1.1122
 7104TIP3   OH242726   1.727   2.727   5.017  0.2381 -0.3436 -0.2398
 7104TIP3    H142727   1.785   2.701   5.089  0.3556 -0.1381 -0.2628
 7104TIP3    H242728   1.649   2.762   5.060  0.8959  1.1363 -0.2081
 7105TIP3   OH242729   4.223   0.557  13.659  0.1128 -0.1574 -0.1689
 7105TIP3    H142730   4.219   0.625  13.592 -0.1105  1.1037  1.0809
 7105TIP3    H242731   4.236   0.475  13.610  1.2015  0.8609 -1.6692
 7106TIP3   OH242732   5.163   0.971  14.069  0.0943  0.3451  0.7316
 7106TIP3    H142733   5.119   0.975  13.984 -0.3822  1.9155  1.0135
 7106TIP3    H242734   5.227   0.900  14.060  0.4861  0.8877 -1.1409
 7107TIP3   OH242735   2.892   1.848  12.414 -0.1529 -0.2429 -0.8998
 7107TIP3    H142736   2.897   1.832  12.509  0.7078 -1.3195 -1.1055
 7107TIP3    H242737   2.816   1.905  12.404  0.7397  1.3197  0.6109
 7108TIP3   OH242738   6.521   1.911   0.672 -0.5173  0.3617  0.1482
 7108TIP3    H142739   6.456   1.965   0.627 -2.0448 -1.1791  0.3834
 7108TIP3    H242740   6.477   1.882   0.752  1.2855  1.0721  1.4711
 7109TIP3   OH242741   3.043   3.508   5.545  0.0483  0.1995  0.7194
 7109TIP3    H142742   3.125   3.514   5.593 -0.7305  2.5872  1.8683
 7109TIP3    H242743   2.977   3.492   5.612 -0.8529  1.8857  0.2716
 7110TIP3   OH242744   5.021   0.380  16.050  0.2121 -0.3323 -0.0739
 7110TIP3    H142745   4.961   0.428  16.107  0.2874 -0.4033  0.0662
 7110TIP3    H242746   4.984   0.389  15.962 -1.4504 -2.5323  0.3212
 7111TIP3   OH242747   0.423   6.507  13.668 -0.4559  0.1584 -0.6538
 7111TIP3    H142748   0.405   6.601  13.668  0.2848  0.3121  0.3301
 7111TIP3    H242749   0.458   6.490  13.581  1.2131  1.1842 -0.2439
 7112TIP3   OH242750   3.916   2.607  17.170 -0.9639  0.5174  0.4072
 7112TIP3    H142751   4.007   2.616  17.198 -0.0211  0.6558 -2.3535
 7112TIP3    H242752   3.880   2.539  17.226  0.6212  0.9381  2.0237
 7113TIP3   OH242753   3.531   4.655   6.275 -0.1906  0.1157 -0.9481
 7113TIP3    H142754   3.504   4.650   6.367 -1.5399 -0.0696 -1.3261
 7113TIP3    H242755   3.600   4.720   6.274  0.1101 -0.1554  0.2590
 7114TIP3   OH242756   4.314   1.005  11.782 -0.0652  0.3820 -0.8572
 7114TIP3    H142757   4.376   0.937  11.807  1.5162  2.2326  0.6596
 7114TIP3    H242758   4.257   1.015  11.857 -0.9321  0.0563 -1.4642
 7115TIP3   OH242759   0.160   3.394  12.969 -0.6509 -0.1365  0.4014
 7115TIP3    H142760   0.183   3.421  13.058  1.5654  0.7479 -0.3544
 7115TIP3    H242761   0.076   3.350  12.978  0.0368 -1.0932  3.1022
 7116TIP3   OH242762   0.880   6.077  16.347  0.3504  0.2383  0.3765
 7116TIP3    H142763   0.960   6.039  16.384  0.3252 -0.0015  0.1853
 7116TIP3    H242764   0.824   6.094  16.423  0.5568  0.3444  0.5055
 7117TIP3   OH242765   1.574   4.272   4.382  0.6073 -0.4300  0.4056
 7117TIP3    H142766   1.577   4.303   4.292  3.4101 -1.1954  0.1428
 7117TIP3    H242767   1.553   4.350   4.434 -1.6846 -0.1077 -0.8938
 7118TIP3   OH242768   5.012   0.193  12.185  0.6717  0.5677  0.1276
 7118TIP3    H142769   4.965   0.182  12.102  0.4754  0.4963  0.2464
 7118TIP3    H242770   4.954   0.249  12.238  1.4682  1.8516 -0.3171
 7119TIP3   OH242771   2.084   0.628  11.643  0.0662  0.2135 -0.0279
 7119TIP3    H142772   2.082   0.708  11.590 -0.6347 -0.4834 -1.0984
 7119TIP3    H242773   2.074   0.659  11.733  2.7140  1.5558 -0.0798
 7120TIP3   OH242774   4.952   5.654  15.983 -0.3381  0.0768 -0.4973
 7120TIP3    H142775   4.988   5.604  16.056 -0.3211 -2.7760 -2.2972
 7120TIP3    H242776   5.026   5.706  15.951  0.2012 -0.1954  0.2721
 7121TIP3   OH242777   2.721   3.041   0.061  0.0804 -0.2306  0.7933
 7121TIP3    H142778   2.779   2.983   0.012 -0.8918 -1.5285  1.1152
 7121TIP3    H242779   2.755   3.129   0.046  0.3132 -0.6603 -1.5099
 7122TIP3   OH242780   4.580   5.504  10.825  0.1574 -0.4534 -0.0608
 7122TIP3    H142781   4.595   5.568  10.895  0.1162 -0.1183 -0.3552
 7122TIP3    H242782   4.486   5.487  10.829  0.0183  0.1515 -0.5288
 7123TIP3   OH242783   4.468   0.542  13.156 -0.1669  0.3387  0.0938
 7123TIP3    H142784   4.407   0.470  13.172  1.2761 -0.8464  0.4672
 7123TIP3    H242785   4.554   0.506  13.179  0.9963  1.1928 -2.5510
 7124TIP3   OH242786   0.799   0.821   3.967 -0.4813  0.2398  0.5824
 7124TIP3    H142787   0.834   0.738   3.934 -1.5496 -0.2827  0.7055
 7124TIP3    H242788   0.732   0.795   4.031 -0.0189  1.2115  1.5035
 7125TIP3   OH242789   0.731   4.875   1.111 -0.2720 -0.1151 -0.1812
 7125TIP3    H142790   0.782   4.949   1.143 -1.5597  0.9932 -0.5862
 7125TIP3    H242791   0.795   4.807   1.094  0.9767  0.9873 -0.0290
 7126TIP3   OH242792   5.622   2.186  13.075 -0.1652 -0.6021 -0.1493
 7126TIP3    H142793   5.639   2.255  13.011 -1.1669 -0.4707 -0.2773
 7126TIP3    H242794   5.541   2.145  13.046  0.1419 -1.4927  0.2288
 7127TIP3   OH242795   2.748   3.775   1.563  0.0994 -0.1460 -0.5226
 7127TIP3    H142796   2.812   3.807   1.500 -1.9004  0.5534 -2.3509
 7127TIP3    H242797   2.775   3.685   1.581 -0.4965 -1.2799 -4.3687
 7128TIP3   OH242798   1.211   4.634  15.427  0.1429 -0.0327  0.1149
 7128TIP3    H142799   1.235   4.553  15.381  1.2293  0.0244  0.5518
 7128TIP3    H242800   1.180   4.692  15.358  1.8059  0.0784 -0.5915
 7129TIP3   OH242801   0.932   0.658  14.249  0.0653 -0.0388 -0.3203
 7129TIP3    H142802   0.912   0.709  14.171 -2.3644  3.0109  2.0358
 7129TIP3    H242803   0.847   0.631  14.283  0.9320 -0.1659  1.9496
 7130TIP3   OH242804   0.980   4.904   0.533 -0.0430 -0.2580 -0.2372
 7130TIP3    H142805   1.031   4.981   0.508  1.8914 -1.6155 -0.6767
 7130TIP3    H242806   0.911   4.899   0.467  0.8244  0.1757 -1.2160
 7131TIP3   OH242807   6.359   5.286  13.490  0.1891  0.5813  0.0906
 7131TIP3    H142808   6.366   5.191  13.498  3.4515  0.6267 -0.8424
 7131TIP3    H242809   6.314   5.300  13.407  1.8418 -0.2170 -0.9792
 7132TIP3   OH242810   0.460   5.926  11.852  0.2818 -0.4068  0.0850
 7132TIP3    H142811   0.480   5.838  11.820 -1.0639 -1.0306  0.8366
 7132TIP3    H242812   0.544   5.961  11.882  0.5367 -2.3460  1.8744
 7133TIP3   OH242813   3.060   1.312  12.710 -0.2924  0.4441 -0.4032
 7133TIP3    H142814   3.152   1.288  12.724  0.3428  0.7631 -3.3773
 7133TIP3    H242815   3.021   1.309  12.798  2.3116 -0.6017  0.8312
 7134TIP3   OH242816   0.807   5.953   3.354 -0.2764  0.2985 -0.1306
 7134TIP3    H142817   0.801   5.976   3.447  2.1976 -0.6851  0.3645
 7134TIP3    H242818   0.848   6.030   3.314  1.1528 -0.2887  0.1427
 7135TIP3   OH242819   1.759   5.785  12.279 -0.2722  0.5291 -0.1732
 7135TIP3    H142820   1.847   5.821  12.288  0.3091 -0.5500 -1.2447
 7135TIP3    H242821   1.701   5.856  12.307  0.9475  0.8410  1.7525
 7136TIP3   OH242822   3.854   0.391   3.447  0.2793 -0.1069 -0.1919
 7136TIP3    H142823   3.870   0.436   3.530 -0.2195  0.8957 -0.6115
 7136TIP3    H242824   3.891   0.304   3.459 -1.7450 -0.7881  1.8991
 7137TIP3   OH242825   3.896   1.985  12.242 -0.0505 -0.4425 -0.0411
 7137TIP3    H142826   3.823   1.923  12.245 -1.3796  1.0621 -0.0080
 7137TIP3    H242827   3.860   2.062  12.199  1.6530  0.2049 -0.3725
 7138TIP3   OH242828   0.103   0.505   0.649  0.8018 -0.4179  0.3165
 7138TIP3    H142829   0.037   0.574   0.639 -0.0877 -1.1307  1.1146
 7138TIP3    H242830   0.102   0.458   0.565  1.2801  0.4016 -0.1639
 7139TIP3   OH242831   1.335   6.582   4.323 -0.0414  0.4543  0.4160
 7139TIP3    H142832   1.290   6.608   4.403  0.3761 -0.0610  0.8268
 7139TIP3    H242833   1.320   6.654   4.262  0.0991  1.1026  1.1426
 7140TIP3   OH242834   0.920   5.262  11.278 -0.0212 -0.0799 -0.2253
 7140TIP3    H142835   0.939   5.356  11.274 -0.3725 -0.0198 -0.4933
 7140TIP3    H242836   0.995   5.221  11.235 -0.4345  0.1491 -1.1835
 7141TIP3   OH242837   1.443   5.348   5.280 -0.2911 -0.0544  0.1313
 7141TIP3    H142838   1.508   5.287   5.314 -0.2075 -1.4070 -2.2200
 7141TIP3    H242839   1.456   5.428   5.331  1.9840 -0.8682  0.9578
 7142TIP3   OH242840   2.483   5.769  12.103 -1.1074 -0.1241 -0.1196
 7142TIP3    H142841   2.480   5.725  12.018  1.3755 -0.9494  0.1560
 7142TIP3    H242842   2.399   5.747  12.144 -1.5700 -1.2853 -1.5965
 7143TIP3   OH242843   1.478   5.152  12.279 -0.2197  0.3475 -0.9642
 7143TIP3    H142844   1.466   5.170  12.186  0.6686  0.5277 -1.0457
 7143TIP3    H242845   1.570   5.168  12.296 -0.3706  0.3311 -0.0443
 7144TIP3   OH242846   0.926   6.609   1.090 -0.3161 -0.4462  0.3425
 7144TIP3    H142847   1.017   6.587   1.112  0.6483  0.7674 -2.0914
 7144TIP3    H242848   0.874   6.545   1.139  1.9837 -3.5179 -0.8756
 7145TIP3   OH242849   3.452   4.764  11.604 -0.0157 -0.1873 -0.2942
 7145TIP3    H142850   3.544   4.739  11.603  0.1707  0.4782 -0.2583
 7145TIP3    H242851   3.410   4.700  11.662  0.5755  0.0477  0.4035
 7146TIP3   OH242852   2.682   6.336  14.187  0.4730  0.5222  0.4717
 7146TIP3    H142853   2.678   6.248  14.149 -1.2653  0.0980  1.5189
 7146TIP3    H242854   2.598   6.376  14.163  1.1583  1.8537  0.1729
 7147TIP3   OH242855   2.716   1.627   1.590 -0.5522 -0.4626  0.1919
 7147TIP3    H142856   2.753   1.653   1.506  1.1925  2.3608  1.6861
 7147TIP3    H242857   2.621   1.637   1.579 -0.2754  1.0685 -1.0745
 7148TIP3   OH242858   6.247   2.244  13.855 -0.2406 -0.0314 -0.5460
 7148TIP3    H142859   6.249   2.161  13.903 -2.2702  0.9409  1.3784
 7148TIP3    H242860   6.328   2.243  13.804  0.1428 -2.8685 -0.0841
 7149TIP3   OH242861   5.158   1.088  15.655 -0.4967 -0.8555  0.8015
 7149TIP3    H142862   5.238   1.125  15.616  0.0277 -0.2113  2.3791
 7149TIP3    H242863   5.109   1.054  15.581  1.3104 -1.4047 -0.2170
 7150TIP3   OH242864   0.808   4.206  13.113  0.0733  0.0133 -0.2898
 7150TIP3    H142865   0.767   4.284  13.077 -0.8045 -0.4187 -0.2517
 7150TIP3    H242866   0.737   4.159  13.157  0.7764 -0.3406  0.4946
 7151TIP3   OH242867   1.513   0.220   1.283 -0.2781 -1.0226 -0.1707
 7151TIP3    H142868   1.570   0.210   1.207  1.7251  0.1424  1.0726
 7151TIP3    H242869   1.481   0.131   1.300 -0.6023 -1.3457 -2.1913
 7152TIP3   OH242870   5.802   1.068   0.245 -0.1497  0.0172  0.2624
 7152TIP3    H142871   5.718   1.047   0.204  0.6124 -0.4179 -1.1511
 7152TIP3    H242872   5.823   1.156   0.214  1.1450 -0.8774 -1.6450
 7153TIP3   OH242873   2.453   4.643  15.046 -0.0648 -0.0308  0.0244
 7153TIP3    H142874   2.422   4.565  15.092  0.4602 -0.1624  0.1675
 7153TIP3    H242875   2.404   4.715  15.085 -1.4970 -0.4134 -0.9912
 7154TIP3   OH242876   5.990   5.758  17.224  0.6103 -0.4013  0.2431
 7154TIP3    H142877   5.991   5.815  17.147  1.5409 -2.5625 -1.4823
 7154TIP3    H242878   5.901   5.764  17.258 -0.1333 -0.1108 -1.6360
 7155TIP3   OH242879   3.806   1.619   5.992  0.1706 -0.4978  0.3211
 7155TIP3    H142880   3.901   1.619   6.005  0.0945  0.4361  1.0513
 7155TIP3    H242881   3.791   1.689   5.929 -0.0387 -0.5924  0.2677
 7156TIP3   OH242882   3.014   3.401  17.091  0.0859  0.2824 -0.3636
 7156TIP3    H142883   3.041   3.492  17.103 -2.6895  1.0157  1.2441
 7156TIP3    H242884   2.919   3.405  17.091 -0.1670 -2.7938  1.4726
 7157TIP3   OH242885   1.967   2.988  17.316 -0.4561 -0.5651 -0.1019
 7157TIP3    H142886   2.023   2.914  17.338 -1.1191 -0.4282  2.2687
 7157TIP3    H242887   1.999   3.060  17.370 -1.6727  0.0455 -0.1612
 7158TIP3   OH242888   5.312   4.481   4.930  0.0324  0.3484  0.1411
 7158TIP3    H142889   5.236   4.424   4.920 -0.5078  0.9260  0.8310
 7158TIP3    H242890   5.293   4.533   5.008  0.0030  2.2676 -1.0881
 7159TIP3   OH242891   2.670   3.413  13.035 -0.0765  0.5649 -0.0023
 7159TIP3    H142892   2.639   3.346  13.096 -0.2118 -0.2913 -0.9787
 7159TIP3    H242893   2.763   3.423  13.054 -0.0056 -0.0700  0.0245
 7160TIP3   OH242894   2.300   5.507  15.889  0.4035 -0.0541 -0.1933
 7160TIP3    H142895   2.318   5.594  15.924  1.0047 -0.2063 -0.1171
 7160TIP3    H242896   2.370   5.490  15.827  2.3430 -1.8693  2.2935
 7161TIP3   OH242897   5.421   4.826   4.322 -0.6940  0.2889 -0.3050
 7161TIP3    H142898   5.443   4.780   4.403  0.5275 -1.1162 -1.3865
 7161TIP3    H242899   5.426   4.919   4.345 -0.1530 -0.0819  1.1680
 7162TIP3   OH242900   6.599   3.530  15.669 -0.4896 -0.1060  0.5014
 7162TIP3    H142901   6.626   3.446  15.706 -0.3727  0.4545  1.7356
 7162TIP3    H242902   6.570   3.582  15.744 -1.4536  0.6403 -0.3489
 7163TIP3   OH242903   1.387   5.964  11.830 -0.1490 -0.2827  0.0316
 7163TIP3    H142904   1.449   5.985  11.900 -0.5248  0.7935  0.0644
 7163TIP3    H242905   1.400   5.871  11.814 -0.2145 -0.6230  1.7068
 7164TIP3   OH242906   4.121   6.638  14.180  0.6015 -0.0409 -0.2931
 7164TIP3    H142907   4.189   6.617  14.116  0.9208  0.3237 -0.0757
 7164TIP3    H242908   4.142   6.584  14.256 -0.7766 -1.8100 -1.0901
 7165TIP3   OH242909   2.361   6.405   4.617 -0.5972  0.6977  0.3397
 7165TIP3    H142910   2.438   6.380   4.667  0.2169 -0.7573 -1.5310
 7165TIP3    H242911   2.395   6.433   4.532 -2.1146 -0.7832 -0.8277
 7166TIP3   OH242912   0.842   2.039   0.492 -0.1448 -0.2763  0.0621
 7166TIP3    H142913   0.916   2.077   0.445  0.2129  1.0152  1.5781
 7166TIP3    H242914   0.837   1.949   0.460  1.4417 -0.1008 -0.8081
 7167TIP3   OH242915   1.804   1.684  16.844 -0.3812 -0.3109  0.0832
 7167TIP3    H142916   1.723   1.715  16.803 -2.0547 -0.9339  2.6807
 7167TIP3    H242917   1.799   1.588  16.839  0.0866 -0.3625  0.4895
 7168TIP3   OH242918   6.012   4.507   5.729 -0.4206  0.0765 -0.1097
 7168TIP3    H142919   6.091   4.556   5.706 -0.1946 -0.5866 -0.8180
 7168TIP3    H242920   6.034   4.416   5.707 -1.3303 -0.1302 -0.1882
 7169TIP3   OH242921   2.452   1.599  12.354 -0.0883  0.1888  0.1174
 7169TIP3    H142922   2.421   1.566  12.439  1.7665  0.0200  0.7673
 7169TIP3    H242923   2.528   1.545  12.333  0.3945  1.2200 -0.9077
 7170TIP3   OH242924   1.934   1.535  14.674  0.4911  0.2810  0.5454
 7170TIP3    H142925   1.999   1.599  14.647  0.4852 -0.2102 -0.7268
 7170TIP3    H242926   1.874   1.528  14.599 -0.9619  0.6123  1.6201
 7171TIP3   OH242927   5.045   6.250  16.373  0.3543 -0.5420  0.0891
 7171TIP3    H142928   4.975   6.267  16.436  0.4994  0.0653  0.0923
 7171TIP3    H242929   5.063   6.335  16.333  0.2827 -0.9078 -0.7556
 7172TIP3   OH242930   1.411   4.275   4.853  0.0064  0.2801  0.6492
 7172TIP3    H142931   1.316   4.260   4.854  0.0761 -0.1840  0.5436
 7172TIP3    H242932   1.421   4.364   4.887 -0.6741  1.4644 -1.9276
 7173TIP3   OH242933   4.561   4.278  15.352  0.4556 -0.1966  0.2906
 7173TIP3    H142934   4.610   4.263  15.271 -0.5182 -0.3700 -0.2883
 7173TIP3    H242935   4.479   4.231  15.339  0.4495 -0.5659  1.5641
 7174TIP3   OH242936   4.837   3.268   0.654  0.0652 -0.4736 -0.1744
 7174TIP3    H142937   4.815   3.231   0.568 -1.4989 -0.6611  0.2709
 7174TIP3    H242938   4.873   3.354   0.635 -1.4658  0.0191 -0.9822
 7175TIP3   OH242939   5.140   1.798   0.984 -0.3744 -0.3286 -0.2192
 7175TIP3    H142940   5.170   1.714   0.948 -1.1012 -1.0655  0.8124
 7175TIP3    H242941   5.215   1.831   1.033 -0.8514 -1.6476  1.4791
 7176TIP3   OH242942   3.016   2.913   0.183 -1.0660  0.2813 -0.5611
 7176TIP3    H142943   3.004   2.956   0.268 -0.7344  0.8259 -0.7791
 7176TIP3    H242944   2.970   2.830   0.191  2.3784 -1.6648  1.6322
 7177TIP3   OH242945   0.881   6.755   5.519  0.1986  0.2020 -0.0949
 7177TIP3    H142946   0.876   6.847   5.546 -0.8651  0.1712 -0.1314
 7177TIP3    H242947   0.799   6.717   5.550 -0.3264 -0.2341 -1.8963
 7178TIP3   OH242948   0.266   1.900  13.082  0.3863  0.4233 -0.1902
 7178TIP3    H142949   0.255   1.987  13.045 -0.9072  1.0453  1.5134
 7178TIP3    H242950   0.203   1.845  13.034 -0.7511  1.0560  0.5312
 7179TIP3   OH242951   0.390   5.715   5.357 -0.2527 -0.0444  0.0782
 7179TIP3    H142952   0.417   5.640   5.303  0.5042  0.8654 -0.8420
 7179TIP3    H242953   0.460   5.724   5.422  0.6554  1.0204 -1.0056
 7180TIP3   OH242954   0.196   0.116   5.114  0.1223 -0.0458 -0.0255
 7180TIP3    H142955   0.290   0.102   5.119 -0.0124 -1.0274 -0.1413
 7180TIP3    H242956   0.166   0.116   5.205  0.3125  0.8832  0.0452
 7181TIP3   OH242957   3.972   1.799  16.058 -0.0428 -0.1232  0.1576
 7181TIP3    H142958   4.025   1.728  16.094  1.5574  1.0397  0.1428
 7181TIP3    H242959   4.021   1.879  16.076 -2.3634  1.1550  1.2265
 7182TIP3   OH242960   6.625   3.872  15.747  0.5842 -0.2677  0.0370
 7182TIP3    H142961   6.635   3.806  15.816  1.2019  0.2836  0.4808
 7182TIP3    H242962   6.530   3.876  15.732  0.6005 -2.1415 -0.8821
 7183TIP3   OH242963   5.120   3.361  16.673  0.4038 -0.0711  0.3989
 7183TIP3    H142964   5.164   3.388  16.593  0.9656 -0.1706  0.6707
 7183TIP3    H242965   5.183   3.305  16.718  0.0736 -0.0651  0.8838
 7184TIP3   OH242966   0.296   0.854  12.673 -0.2813  0.4371  0.0273
 7184TIP3    H142967   0.203   0.878  12.678 -0.2078  0.6475  0.3910
 7184TIP3    H242968   0.341   0.937  12.657 -0.1817  0.2915 -0.4724
 7185TIP3   OH242969   2.128   1.594  12.876 -0.6858 -0.2070 -0.1047
 7185TIP3    H142970   2.192   1.526  12.898 -0.4324  0.0816  0.0665
 7185TIP3    H242971   2.055   1.578  12.936 -0.2018  0.2775  0.6333
 7186TIP3   OH242972   6.773   0.057   0.183 -0.2107  0.2228 -0.4917
 7186TIP3    H142973   6.700   0.073   0.243 -1.7175 -0.0966 -2.1592
 7186TIP3    H242974   6.739  -0.006   0.120  2.1279 -1.3880 -0.2725
 7187TIP3   OH242975   6.136   1.989   4.359  0.1227 -0.0744  0.3999
 7187TIP3    H142976   6.164   2.060   4.417  2.1254 -0.1601 -0.4004
 7187TIP3    H242977   6.111   2.034   4.278  2.2339 -0.2747 -0.4209
 7188TIP3   OH242978   5.503   3.226   5.318  0.3319 -0.1739 -0.7953
 7188TIP3    H142979   5.412   3.205   5.340 -0.0997 -0.1767 -2.4572
 7188TIP3    H242980   5.531   3.287   5.387 -1.1183  0.2949 -0.5835
 7189TIP3   OH242981   2.192   2.130  12.862 -0.3951 -0.4468 -0.1038
 7189TIP3    H142982   2.204   2.035  12.856 -0.3751 -0.5061  0.7938
 7189TIP3    H242983   2.245   2.156  12.937  1.2734  0.5809 -1.5570
 7190TIP3   OH242984   4.238   6.192   3.214 -0.0348  0.4571 -0.0055
 7190TIP3    H142985   4.173   6.252   3.178  1.0242  1.3174 -0.4956
 7190TIP3    H242986   4.190   6.146   3.284 -1.0381  1.4125 -0.0304
 7191TIP3   OH242987   5.307   3.269   4.317 -0.4046 -0.0497 -0.1390
 7191TIP3    H142988   5.341   3.219   4.391 -0.1226 -0.6410 -0.6538
 7191TIP3    H242989   5.386   3.295   4.268 -0.6541 -1.1820 -1.1882
 7192TIP3   OH242990   3.108   5.694   0.070  0.1173 -0.5455 -0.0678
 7192TIP3    H142991   3.121   5.777   0.116  2.0287 -0.4433 -0.6978
 7192TIP3    H242992   3.013   5.680   0.071 -0.1991  1.3854  0.4779
 7193TIP3   OH242993   2.536   2.502  13.323  0.3121  0.8609  0.3615
 7193TIP3    H142994   2.579   2.517  13.408 -0.5247  0.2782  0.9118
 7193TIP3    H242995   2.543   2.586  13.277  0.9962  1.1124  0.9081
 7194TIP3   OH242996   0.736   0.902  16.000  0.4850 -0.5967  0.1226
 7194TIP3    H142997   0.677   0.846  15.949  0.0775  0.3148 -0.4319
 7194TIP3    H242998   0.731   0.987  15.957 -0.1592  0.3147  1.8761
 7195TIP3   OH242999   4.879   3.954   0.815 -0.5133 -0.1830  0.2885
 7195TIP3    H143000   4.834   3.896   0.753  0.2500  0.0048 -0.4491
 7195TIP3    H243001   4.826   4.033   0.816  0.8392  0.8501 -2.1459
 7196TIP3   OH243002   1.471   4.986  17.129  0.1947 -0.3603 -0.4164
 7196TIP3    H143003   1.533   5.035  17.182 -1.7358 -0.7214  2.4662
 7196TIP3    H243004   1.450   5.043  17.055  2.5571  0.4652 -0.5102
 7197TIP3   OH243005   1.170   2.059  14.139 -0.0016 -0.6108  0.7278
 7197TIP3    H143006   1.115   1.987  14.107 -1.3383  0.4581  0.5275
 7197TIP3    H243007   1.116   2.102  14.205  0.9784 -0.0812  1.2062
 7198TIP3   OH243008   1.044   1.872   1.023  0.0527  0.1252 -0.4129
 7198TIP3    H143009   0.986   1.871   0.947 -0.6171 -2.5938  0.0340
 7198TIP3    H243010   1.002   1.933   1.084 -1.3606 -0.4197 -0.8016
 7199TIP3   OH243011   1.671   0.223   1.528  0.1496 -0.0248 -0.2571
 7199TIP3    H143012   1.597   0.244   1.585  1.1149  1.4361  0.5253
 7199TIP3    H243013   1.631   0.198   1.444 -1.2294 -0.0814  0.3944
 7200TIP3   OH243014   1.499   3.681   4.844  0.1232  0.5909 -0.7997
 7200TIP3    H143015   1.523   3.771   4.868 -0.9374  1.4057 -2.5643
 7200TIP3    H243016   1.420   3.692   4.791 -0.1890 -1.4334 -0.7998
 7201TIP3   OH243017   5.684   4.889  11.636  0.0766 -0.1765  0.7036
 7201TIP3    H143018   5.654   4.849  11.718  0.9449  0.1142  1.1726
 7201TIP3    H243019   5.769   4.927  11.657  0.0138  0.4882 -0.1645
 7202TIP3   OH243020   6.311   0.122   1.601 -0.3194 -0.4502 -0.5237
 7202TIP3    H143021   6.403   0.101   1.616 -0.2204 -0.3253 -0.9425
 7202TIP3    H243022   6.312   0.181   1.525 -0.7731 -0.7461 -0.7639
 7203TIP3   OH243023   1.561   3.181  14.448 -0.3740  0.9171  0.1144
 7203TIP3    H143024   1.646   3.175  14.405 -0.8472  2.9369 -1.2256
 7203TIP3    H243025   1.580   3.220  14.533  0.3440 -1.5030  1.1691
 7204TIP3   OH243026   2.299   0.328  11.956 -0.2435  0.7813 -0.0563
 7204TIP3    H143027   2.326   0.242  11.925 -2.1834 -0.1707  0.7210
 7204TIP3    H243028   2.326   0.331  12.048 -2.4131 -0.1204  0.6853
 7205TIP3   OH243029   3.439   5.668   3.874  0.2679  0.4281 -0.2413
 7205TIP3    H143030   3.364   5.609   3.868 -0.5027  1.3764 -0.0545
 7205TIP3    H243031   3.513   5.610   3.896 -0.5493 -0.4048  0.3912
 7206TIP3   OH243032   1.108   1.855  15.682  0.2105 -0.0847  0.2436
 7206TIP3    H143033   1.184   1.866  15.625 -0.7374  1.7351 -0.7442
 7206TIP3    H243034   1.048   1.799  15.632  0.0403  0.2133  0.1081
 7207TIP3   OH243035   5.258   1.981  14.009 -0.0445  0.9117  0.3911
 7207TIP3    H143036   5.201   1.935  14.071  0.9587  0.2764  0.8696
 7207TIP3    H243037   5.346   1.956  14.034  0.4696  1.9726 -0.2644
 7208TIP3   OH243038   5.798   5.677   5.060  0.3338 -0.7094  0.6846
 7208TIP3    H143039   5.714   5.637   5.081 -0.4657 -0.4380 -1.7420
 7208TIP3    H243040   5.859   5.603   5.057  0.0529 -0.9965  1.7848
 7209TIP3   OH243041   3.924   5.503  12.814 -0.0402  0.0616  0.1391
 7209TIP3    H143042   3.974   5.496  12.732 -0.3661  0.7726 -0.1238
 7209TIP3    H243043   3.896   5.594  12.817  0.4234  0.1803  1.3149
 7210TIP3   OH243044   5.979   3.664  13.116 -0.3032 -0.2982 -0.1433
 7210TIP3    H143045   6.024   3.747  13.132  0.5050 -0.1385 -2.8668
 7210TIP3    H243046   5.923   3.681  13.040 -0.0309 -2.2680 -0.8338
 7211TIP3   OH243047   0.368   5.174  13.559 -0.4381  0.7356  0.0936
 7211TIP3    H143048   0.423   5.129  13.494  0.1107  0.8217  0.4946
 7211TIP3    H243049   0.282   5.179  13.517 -0.2489  0.2330 -0.3762
 7212TIP3   OH243050   5.271   0.910  13.268  0.7036  0.2442 -0.1276
 7212TIP3    H143051   5.232   0.950  13.191  1.8861 -1.2692 -1.5699
 7212TIP3    H243052   5.349   0.963  13.285  1.1814 -0.2179 -0.8229
 7213TIP3   OH243053   1.223   5.636   5.826 -0.7233  0.3657  0.9995
 7213TIP3    H143054   1.252   5.559   5.876  0.2512  0.4105  0.5390
 7213TIP3    H243055   1.222   5.707   5.890  0.0642  0.3266  1.0713
 7214TIP3   OH243056   4.506   0.885   1.300 -0.0957 -0.1626 -0.3235
 7214TIP3    H143057   4.579   0.881   1.363  0.1546  1.1285 -0.5139
 7214TIP3    H243058   4.477   0.794   1.292  0.6520 -0.5165  0.7434
 7215TIP3   OH243059   2.248   0.274  16.477 -0.3379 -0.2577  0.0026
 7215TIP3    H143060   2.320   0.295  16.536 -0.2977 -0.0119 -0.1276
 7215TIP3    H243061   2.278   0.307  16.392 -1.4475  1.7907  0.3271
 7216TIP3   OH243062   0.275   0.390   6.399 -0.1458  0.1380 -0.4070
 7216TIP3    H143063   0.273   0.477   6.360  0.2896 -0.6842 -2.3619
 7216TIP3    H243064   0.281   0.330   6.325 -1.6514 -1.6445  0.8182
 7217TIP3   OH243065   5.091   6.094   5.898  0.0752  0.3874  0.2464
 7217TIP3    H143066   5.047   6.179   5.889  1.4575  1.0230 -0.9873
 7217TIP3    H243067   5.102   6.083   5.992 -1.4053  0.8846  0.5054
 7218TIP3   OH243068   5.922   4.810  12.452  0.6980  0.2481 -0.1098
 7218TIP3    H143069   5.914   4.717  12.429  0.9761  0.3911 -0.8269
 7218TIP3    H243070   5.840   4.849  12.423  1.0595  0.4336 -0.9077
 7219TIP3   OH243071   5.154   2.474  16.099 -0.1012 -0.4006  0.2327
 7219TIP3    H143072   5.083   2.505  16.043 -1.0746 -1.8298  0.6226
 7219TIP3    H243073   5.226   2.534  16.081 -0.7890 -0.0386 -1.5902
 7220TIP3   OH243074   0.818   2.015   5.402  0.5260 -0.3411  0.1791
 7220TIP3    H143075   0.884   2.079   5.429  0.3607  0.5095 -1.2972
 7220TIP3    H243076   0.867   1.952   5.349  0.4912 -0.8183  0.7097
 7221TIP3   OH243077   5.682   0.961   5.328 -0.7415 -0.2397 -0.3091
 7221TIP3    H143078   5.702   1.021   5.400  0.1722 -0.4791 -0.3514
 7221TIP3    H243079   5.757   0.902   5.325 -1.0043 -0.5370 -1.1396
 7222TIP3   OH243080   2.684   4.824   1.362 -0.0788 -0.3559  0.3638
 7222TIP3    H143081   2.727   4.859   1.440 -0.9090  0.4288  0.4875
 7222TIP3    H243082   2.681   4.897   1.301 -0.3177 -0.6846 -0.0223
 7223TIP3   OH243083   5.632   3.023   0.946 -0.7342 -0.8811  0.1373
 7223TIP3    H143084   5.552   2.979   0.918 -0.5943 -2.1223  1.5863
 7223TIP3    H243085   5.692   3.013   0.872 -0.9499 -2.5392  0.1571
 7224TIP3   OH243086   1.246   6.129  16.621 -0.4167 -0.7214  0.3402
 7224TIP3    H143087   1.208   6.094  16.540  0.8255 -0.9851 -0.1493
 7224TIP3    H243088   1.187   6.098  16.690 -0.6506 -1.7851 -0.3126
 7225TIP3   OH243089   3.782   3.703   0.563 -0.0340 -0.3284  0.5306
 7225TIP3    H143090   3.753   3.663   0.481 -0.1529 -0.1948  0.5076
 7225TIP3    H243091   3.876   3.685   0.567  0.2795  0.9529 -0.3678
 7226TIP3   OH243092   6.632   4.030  16.917 -0.5038 -1.4570 -0.2611
 7226TIP3    H143093   6.599   4.119  16.921 -1.2138 -1.7429  1.1594
 7226TIP3    H243094   6.588   3.991  16.841 -0.2295 -0.6356 -0.8532
 7227TIP3   OH243095   4.143   1.070   3.878  0.6889  0.1982 -0.7144
 7227TIP3    H143096   4.187   1.036   3.955  2.7694  0.8794 -1.5300
 7227TIP3    H243097   4.181   1.022   3.805 -1.8222 -1.0251 -1.3282
 7228TIP3   OH243098   2.142   2.096   2.908 -0.8538 -0.2087 -0.0697
 7228TIP3    H143099   2.081   2.148   2.960 -0.4981  0.0913  0.0525
 7228TIP3    H243100   2.218   2.152   2.896 -0.0456 -1.0601  0.9165
 7229TIP3   OH243101   5.358   3.145  16.516  0.2834 -0.3625  0.7154
 7229TIP3    H143102   5.372   3.230  16.556  0.3359 -0.3387  0.6481
 7229TIP3    H243103   5.378   3.082  16.585  0.2810 -0.3208  0.7539
 7230TIP3   OH243104   0.834   3.288  13.253  0.5755  0.1879 -0.4833
 7230TIP3    H143105   0.923   3.253  13.259  0.0827 -0.8230  2.1173
 7230TIP3    H243106   0.820   3.333  13.336 -1.9902 -1.3237 -0.0057
 7231TIP3   OH243107   2.791   6.711  16.061 -0.1489  0.0743  0.5805
 7231TIP3    H143108   2.813   6.777  16.127  0.0394 -0.1760  0.7681
 7231TIP3    H243109   2.713   6.746  16.018  0.1605  0.5921  0.4325
 7232TIP3   OH243110   4.743   2.437   4.102  0.4591 -0.9238 -0.3278
 7232TIP3    H143111   4.774   2.485   4.179  0.7983 -0.6821 -0.6100
 7232TIP3    H243112   4.672   2.491   4.067  1.1000 -0.4048 -0.8740
 7233TIP3   OH243113   2.872   5.950   1.116 -0.4497 -0.2770 -0.2561
 7233TIP3    H143114   2.784   5.915   1.133  0.1768 -0.9840  1.8368
 7233TIP3    H243115   2.930   5.892   1.165  1.1384  0.5685 -1.0755
 7234TIP3   OH243116   1.378   4.394   0.934  0.2568  1.0100  0.5671
 7234TIP3    H143117   1.420   4.324   0.885 -0.6815  0.5073  0.4655
 7234TIP3    H243118   1.389   4.472   0.878  1.5288  1.0297  0.8037
 7235TIP3   OH243119   5.515   6.467  13.662 -0.0781 -0.4313  0.0040
 7235TIP3    H143120   5.552   6.440  13.578  0.8861 -0.1348  0.3176
 7235TIP3    H243121   5.440   6.409  13.676  0.6762 -1.4996 -0.3312
 7236TIP3   OH243122   6.639   2.331   3.668  0.1164  0.1947  0.3528
 7236TIP3    H143123   6.562   2.285   3.700 -0.4812  1.3769  0.6782
 7236TIP3    H243124   6.604   2.412   3.630  1.1795  0.6501  0.3200
 7237TIP3   OH243125   2.385   1.640  15.925  0.6720  0.2157  0.0165
 7237TIP3    H143126   2.376   1.731  15.952 -0.2782 -0.2534  1.4230
 7237TIP3    H243127   2.470   1.613  15.960 -0.1722 -0.1364  1.9393
 7238TIP3   OH243128   2.616   5.407   0.818  1.0084  0.1501 -0.2432
 7238TIP3    H143129   2.671   5.409   0.897  0.1165 -0.1542  0.3982
 7238TIP3    H243130   2.582   5.318   0.814 -0.5805  0.7094  0.1800
 7239TIP3   OH243131   5.443   5.727   1.008 -0.7453 -0.2772  0.0033
 7239TIP3    H143132   5.426   5.821   1.004 -1.3283 -0.3484  0.7622
 7239TIP3    H243133   5.358   5.688   1.027 -0.2290 -0.8358  1.2300
 7240TIP3   OH243134   2.798   3.804  15.967  0.4381  0.4033  0.2467
 7240TIP3    H143135   2.879   3.782  15.922 -0.3868  0.7554 -1.5119
 7240TIP3    H243136   2.788   3.737  16.035  1.5053 -0.4234 -0.3931
 7241TIP3   OH243137   5.522   0.840  11.731  0.0695 -0.1627 -0.1616
 7241TIP3    H143138   5.547   0.882  11.649 -0.4830  1.2881  0.3839
 7241TIP3    H243139   5.535   0.907  11.798 -2.2242 -0.3311  0.5616
 7242TIP3   OH243140   1.176   3.773  11.501  0.3876  0.3463 -0.4511
 7242TIP3    H143141   1.127   3.790  11.421 -0.1050  0.1266 -0.2037
 7242TIP3    H243142   1.123   3.812  11.570  0.6495  0.2520 -0.1957
 7243TIP3   OH243143   3.908   1.765   5.214 -0.2540  0.0837  0.2325
 7243TIP3    H143144   3.825   1.797   5.181 -0.1068  0.9640  0.6909
 7243TIP3    H243145   3.918   1.678   5.175 -1.6748 -0.3001  0.6612
 7244TIP3   OH243146   1.752   1.758  15.761  0.8754 -0.0419  0.4205
 7244TIP3    H143147   1.828   1.817  15.759 -1.0809  2.6910 -1.3043
 7244TIP3    H243148   1.775   1.688  15.700  3.0220 -0.8168  2.0076
 7245TIP3   OH243149   0.307   6.354  16.422 -0.4347 -0.0997 -0.1103
 7245TIP3    H143150   0.254   6.372  16.344  0.4316 -0.9482 -0.9271
 7245TIP3    H243151   0.390   6.399  16.406 -0.9466  1.3982  1.2530
 7246TIP3   OH243152   0.995   1.663  15.508  0.3271 -0.3686  0.2779
 7246TIP3    H143153   0.930   1.616  15.561 -0.6539 -0.3901 -0.8971
 7246TIP3    H243154   1.003   1.611  15.428  0.0065  0.8884 -0.6060
 7247TIP3   OH243155   4.607   5.376  16.904  0.2070  0.2338 -0.0701
 7247TIP3    H143156   4.689   5.346  16.943 -0.7183  0.0372  1.8264
 7247TIP3    H243157   4.627   5.464  16.872  1.2113  0.0961  0.1412
 7248TIP3   OH243158   1.052   2.226   5.461  0.5975 -0.6310  0.5530
 7248TIP3    H143159   1.014   2.170   5.529 -0.1969  0.6873  1.2237
 7248TIP3    H243160   1.098   2.294   5.509 -0.9307  0.9787 -0.1652
 7249TIP3   OH243161   2.615   4.570  13.972 -0.0858 -0.2530  0.5614
 7249TIP3    H143162   2.533   4.620  13.975  0.3044  0.5250 -0.9709
 7249TIP3    H243163   2.588   4.482  13.945 -0.4519 -0.1049  0.4425
 7250TIP3   OH243164   3.359   1.302  11.361  0.0971  0.7458 -0.3603
 7250TIP3    H143165   3.391   1.216  11.332 -1.2438  0.6350 -1.6355
 7250TIP3    H243166   3.370   1.359  11.285  2.3208  2.1523  0.9144
 7251TIP3   OH243167   3.018   6.597   2.629 -0.7563 -1.1279  0.2953
 7251TIP3    H143168   3.033   6.532   2.697 -0.9319  0.0602  1.5346
 7251TIP3    H243169   3.048   6.679   2.668  1.1511 -0.7126 -1.8669
 7252TIP3   OH243170   1.210   0.393   2.108  0.6655 -0.1688  0.1726
 7252TIP3    H143171   1.181   0.305   2.131 -1.1007 -0.0847 -1.5295
 7252TIP3    H243172   1.302   0.383   2.084 -0.0466 -2.0076 -2.1149
 7253TIP3   OH243173   1.907   5.780  10.806  0.0940  0.0792 -0.0781
 7253TIP3    H143174   1.888   5.874  10.800 -0.1008  0.0198 -0.4627
 7253TIP3    H243175   1.966   5.772  10.881  0.3889  0.5524 -0.2533
 7254TIP3   OH243176   6.348   0.188  12.976 -0.2400 -0.3856  0.3023
 7254TIP3    H143177   6.324   0.146  12.893  1.6365  1.1442 -1.1289
 7254TIP3    H243178   6.277   0.166  13.036 -0.4914 -3.6082 -0.9641
 7255TIP3   OH243179   1.333   2.300  16.797 -0.3241 -0.2328 -0.7238
 7255TIP3    H143180   1.386   2.237  16.845 -0.2316  1.2663  1.2716
 7255TIP3    H243181   1.373   2.304  16.710  0.1277 -2.2957 -0.6554
 7256TIP3   OH243182   0.585   2.856  16.148 -0.0680 -0.0378 -0.1374
 7256TIP3    H143183   0.589   2.934  16.093 -3.7999  1.3891  1.2693
 7256TIP3    H243184   0.579   2.783  16.087  0.3804  1.0409 -1.5219
 7257TIP3   OH243185   3.055   5.971   4.802 -0.5877 -0.4434  0.3134
 7257TIP3    H143186   3.048   5.932   4.715 -0.3269  1.3555 -0.5524
 7257TIP3    H243187   3.020   5.904   4.861  1.2944 -2.6289 -0.8897
 7258TIP3   OH243188   6.178   1.591  14.784 -0.2094 -0.6485 -0.1745
 7258TIP3    H143189   6.257   1.546  14.813 -1.1196 -2.5343 -0.4119
 7258TIP3    H243190   6.164   1.660  14.849  0.6376 -1.4301  0.8871
 7259TIP3   OH243191   1.365   0.519   5.631 -0.0058 -0.0047  0.2517
 7259TIP3    H143192   1.335   0.435   5.666  0.5059 -0.7746 -1.0649
 7259TIP3    H243193   1.363   0.507   5.536 -0.4986  1.6995  0.0230
 7260TIP3   OH243194   4.818   0.119   6.059 -0.1219  0.5641 -0.1830
 7260TIP3    H143195   4.771   0.039   6.036  1.0594  0.2179 -1.5817
 7260TIP3    H243196   4.864   0.144   5.978  0.0937  2.2737  0.4179
 7261TIP3   OH243197   0.099   5.050  12.128 -0.2913  0.4194 -0.6595
 7261TIP3    H143198   0.109   5.077  12.220  0.1818  1.6418 -1.0478
 7261TIP3    H243199   0.011   5.078  12.104 -0.1553  0.7277 -0.7890
 7262TIP3   OH243200   3.609   0.622  15.670  0.1105  0.2331 -0.0701
 7262TIP3    H143201   3.603   0.616  15.575  0.1441 -2.2729  0.0331
 7262TIP3    H243202   3.695   0.587  15.692 -0.7780 -1.4600  0.9706
 7263TIP3   OH243203   3.523   5.280   5.467 -0.7708 -0.0163  0.2154
 7263TIP3    H143204   3.545   5.205   5.521 -1.8505  0.3511  1.1972
 7263TIP3    H243205   3.530   5.355   5.525 -1.1882  0.4726 -0.3523
 7264TIP3   OH243206   6.422   1.951  16.092 -0.0225  0.6318 -0.0254
 7264TIP3    H143207   6.347   1.895  16.113 -1.1710  2.3465  0.6924
 7264TIP3    H243208   6.494   1.914  16.143 -0.8148 -0.0438  0.6493
 7265TIP3   OH243209   1.352   1.456   0.423  0.0491  0.1630 -0.0249
 7265TIP3    H143210   1.412   1.514   0.470 -0.0290  0.2992 -0.0931
 7265TIP3    H243211   1.373   1.368   0.455  0.1858  0.2265  0.0581
 7266TIP3   OH243212   3.293   6.295   1.211  0.0074 -0.7878  0.1062
 7266TIP3    H143213   3.278   6.389   1.199 -1.6655 -0.6407  2.5310
 7266TIP3    H243214   3.376   6.278   1.168  0.3194  1.7931 -0.4784
 7267TIP3   OH243215   2.917   1.985  12.674  0.0569 -0.1439 -0.9165
 7267TIP3    H143216   2.862   2.060  12.650 -1.4526 -1.2387 -1.0330
 7267TIP3    H243217   2.967   2.015  12.750 -2.0297  0.3656  0.3351
 7268TIP3   OH243218   3.221   6.249  12.400 -0.1405  0.0543  0.0834
 7268TIP3    H143219   3.194   6.182  12.337 -1.6774 -0.7495  1.4881
 7268TIP3    H243220   3.143   6.303  12.412 -0.2085 -0.3751  1.9114
 7269TIP3   OH243221   4.905   2.627  16.392  0.5967 -0.5957 -0.6477
 7269TIP3    H143222   4.985   2.644  16.441  0.8649 -2.3386 -0.4368
 7269TIP3    H243223   4.927   2.650  16.302  1.4119 -1.2439 -0.6251
 7270TIP3   OH243224   0.760   6.605  14.120  0.5274  0.0642 -0.0061
 7270TIP3    H143225   0.746   6.528  14.065  0.7132  0.2589 -0.3232
 7270TIP3    H243226   0.786   6.569  14.205  2.0774 -0.1930 -0.5659
 7271TIP3   OH243227   1.920   0.076   0.672 -0.5592 -0.2839 -0.4762
 7271TIP3    H143228   1.874   0.039   0.747  2.3433 -2.9178  0.2179
 7271TIP3    H243229   1.879   0.034   0.596 -1.7549  0.3688 -0.2201
 7272TIP3   OH243230   0.406   1.257  11.695  0.4868  0.1096  0.8446
 7272TIP3    H143231   0.493   1.265  11.734  1.2889  0.4679 -0.9490
 7272TIP3    H243232   0.415   1.295  11.608 -1.2139 -0.8119  0.2284
 7273TIP3   OH243233   1.642   2.565   2.543 -0.4671 -0.2885 -0.1242
 7273TIP3    H143234   1.683   2.491   2.499 -2.7719 -1.4718 -0.4153
 7273TIP3    H243235   1.601   2.527   2.621 -2.1423  0.5260 -0.5476
 7274TIP3   OH243236   3.302   2.803   5.799  0.5529 -0.7861  0.0049
 7274TIP3    H143237   3.340   2.878   5.753  1.0573 -0.8339  0.3352
 7274TIP3    H243238   3.369   2.777   5.862 -0.1360 -0.6991  0.7915
 7275TIP3   OH243239   0.675   0.871   3.556 -0.0276  0.1590 -0.3246
 7275TIP3    H143240   0.757   0.909   3.585 -0.4303  1.3933 -0.7287
 7275TIP3    H243241   0.670   0.892   3.463  0.1314 -1.6701 -0.7897
 7276TIP3   OH243242   6.183   6.641   6.507  0.3036  0.0890 -0.0535
 7276TIP3    H143243   6.147   6.555   6.490 -0.4390  0.3190  0.2892
 7276TIP3    H243244   6.233   6.631   6.589  0.7270 -0.1517 -0.3419
 7277TIP3   OH243245   3.077   1.754   2.170  0.3670  0.5038 -0.1232
 7277TIP3    H143246   3.069   1.789   2.081 -0.6338  0.7893  0.0652
 7277TIP3    H243247   3.145   1.808   2.210  0.9797  0.2340 -0.7705
 7278TIP3   OH243248   6.129   6.415  13.627  0.0340  0.2124 -0.4326
 7278TIP3    H143249   6.085   6.500  13.637 -1.2883 -0.3417 -1.2788
 7278TIP3    H243250   6.221   6.438  13.613 -0.3627  1.5481 -1.0599
 7279TIP3   OH243251   1.669   2.890  16.897 -0.0828  0.2795 -0.2919
 7279TIP3    H143252   1.740   2.931  16.847 -0.8200 -0.1465 -1.7352
 7279TIP3    H243253   1.698   2.800  16.910  0.8861  0.8029  1.6296
 7280TIP3   OH243254   6.694   5.708   0.278 -0.1603  0.1796 -1.2507
 7280TIP3    H143255   6.751   5.784   0.287 -1.9688  1.4955 -0.0178
 7280TIP3    H243256   6.699   5.665   0.363 -2.6885  1.6865 -0.2019
 7281TIP3   OH243257   2.216   2.114  11.576 -0.3531 -0.5168 -0.7834
 7281TIP3    H143258   2.240   2.087  11.488  0.8993 -1.2354 -0.2402
 7281TIP3    H243259   2.120   2.109  11.577 -0.5401  1.1034 -2.5881
 7282TIP3   OH243260   5.127   4.781  15.907 -0.1631 -0.0194  0.4542
 7282TIP3    H143261   5.175   4.700  15.928  1.1132  1.0251  1.8662
 7282TIP3    H243262   5.187   4.830  15.850 -1.3800 -0.4891 -1.2986
 7283TIP3   OH243263   2.575   1.208   5.247 -0.1402  0.4298  0.3872
 7283TIP3    H143264   2.500   1.210   5.306  0.2101 -0.9585  0.9082
 7283TIP3    H243265   2.559   1.279   5.185 -1.1213  1.1238  1.4065
 7284TIP3   OH243266   4.755   5.285   1.845 -0.0989  0.5458  0.3791
 7284TIP3    H143267   4.841   5.319   1.823 -0.1346  1.2849  1.3199
 7284TIP3    H243268   4.726   5.337   1.920 -1.1700  0.0089  0.3702
 7285TIP3   OH243269   0.868   5.905   0.059 -0.2111 -0.2852  0.4657
 7285TIP3    H143270   0.799   5.963   0.091 -0.4511  0.7111 -1.6735
 7285TIP3    H243271   0.949   5.953   0.076 -0.3960  0.6650 -1.1192
 7286TIP3   OH243272   2.861   3.826  13.372  0.1825 -0.5741 -0.0140
 7286TIP3    H143273   2.798   3.860  13.307 -2.0070  0.0229  2.2649
 7286TIP3    H243274   2.888   3.903  13.422  1.5823 -1.0723  0.0214
 7287TIP3   OH243275   6.183   2.160  11.600  0.7848  0.0037 -0.3007
 7287TIP3    H143276   6.107   2.130  11.650  0.2745  3.4692  1.2683
 7287TIP3    H243277   6.157   2.150  11.508 -0.9936 -0.1983  0.1963
 7288TIP3   OH243278   3.555   4.947   3.773  0.1471  0.2512  0.4826
 7288TIP3    H143279   3.507   4.990   3.702  0.7934  1.2286  0.6221
 7288TIP3    H243280   3.541   4.853   3.757 -1.7052  0.4814  0.4662
 7289TIP3   OH243281   0.774   4.740  16.153  0.3792  0.1940 -0.4867
 7289TIP3    H143282   0.857   4.781  16.128  0.1344  0.4269 -0.9214
 7289TIP3    H243283   0.730   4.807  16.206 -0.4853  0.9340 -2.0673
 7290TIP3   OH243284   5.042   1.030  16.526 -0.3311  0.3042  0.1642
 7290TIP3    H143285   5.068   1.040  16.434 -0.2923  0.6418  0.2089
 7290TIP3    H243286   5.052   0.937  16.544  1.1295  0.4648  0.2577
 7291TIP3   OH243287   3.228   0.010   1.626  0.0101  0.1968  0.3832
 7291TIP3    H143288   3.227  -0.019   1.535 -0.7709  1.8394 -0.1740
 7291TIP3    H243289   3.226  -0.071   1.677  0.9726 -0.7743 -1.0315
 7292TIP3   OH243290   3.171   1.722   4.166 -0.0742 -0.9787 -0.1571
 7292TIP3    H143291   3.246   1.705   4.223  0.4580  0.8493 -0.2370
 7292TIP3    H243292   3.120   1.788   4.213 -0.6884 -0.9056 -0.9081
 7293TIP3   OH243293   5.696   6.157   6.062 -0.0789 -0.1224  0.0156
 7293TIP3    H143294   5.668   6.130   5.975 -0.8354 -1.3480  0.5894
 7293TIP3    H243295   5.690   6.076   6.114  0.3478  0.5792  1.1907
 7294TIP3   OH243296   0.206   3.557   0.757  0.5771 -0.1081 -0.3430
 7294TIP3    H143297   0.241   3.634   0.713  0.4541  0.3438  0.3251
 7294TIP3    H243298   0.112   3.574   0.765  0.6131 -0.1202  0.1902
 7295TIP3   OH243299   5.142   6.279   5.192 -0.1323  0.0068 -0.0250
 7295TIP3    H143300   5.223   6.311   5.232 -0.4753  1.6375 -0.5568
 7295TIP3    H243301   5.152   6.296   5.098 -0.2066 -1.8298 -0.4103
 7296TIP3   OH243302   6.348   0.843   3.279 -0.1542 -0.2480 -0.1482
 7296TIP3    H143303   6.390   0.923   3.247 -1.0854  0.4549  0.3682
 7296TIP3    H243304   6.256   0.852   3.256 -0.5556 -0.4558  1.2821
 7297TIP3   OH243305   5.765   4.988   0.680  0.1020  0.2374  0.1733
 7297TIP3    H143306   5.694   4.975   0.617  0.9271  0.2778 -0.7758
 7297TIP3    H243307   5.772   5.083   0.690  0.5675  0.2585 -0.3582
 7298TIP3   OH243308   3.222   3.521  12.785  0.2166  0.4286  0.4222
 7298TIP3    H143309   3.197   3.613  12.773  0.5060  0.3315 -1.1363
 7298TIP3    H243310   3.218   3.484  12.696 -0.1641 -1.1333  1.0646
 7299TIP3   OH243311   4.558   3.847  13.395 -0.0588  0.1047  0.0921
 7299TIP3    H143312   4.591   3.838  13.484  1.9665  1.8569 -0.3955
 7299TIP3    H243313   4.465   3.826  13.402  0.2872 -0.9649  2.3685
 7300TIP3   OH243314   4.488   0.536   5.054  0.2752 -0.8092 -0.3903
 7300TIP3    H143315   4.480   0.596   4.981 -0.3270 -1.9084 -1.2581
 7300TIP3    H243316   4.509   0.592   5.129 -0.7575  0.5285 -1.0598
 7301TIP3   OH243317   1.147   2.828  16.849 -0.2720  0.0721 -0.4487
 7301TIP3    H143318   1.234   2.788  16.847  0.5402  1.7094  0.3499
 7301TIP3    H243319   1.162   2.919  16.876 -2.1274  0.6945 -1.3130
 7302TIP3   OH243320   0.270   4.827  16.720  0.0153 -0.5179 -0.2077
 7302TIP3    H143321   0.297   4.781  16.799 -0.9373  0.2183  0.5659
 7302TIP3    H243322   0.230   4.908  16.751 -0.6096 -0.3285 -1.4267
 7303TIP3   OH243323   0.305   2.182   3.822  0.2488  0.5207 -0.3367
 7303TIP3    H143324   0.363   2.251   3.854 -0.0457  0.6706 -0.1174
 7303TIP3    H243325   0.248   2.226   3.759 -0.6019  0.7065  0.5405
 7304TIP3   OH243326   5.141   5.689   4.837  0.4158 -0.2925  0.0090
 7304TIP3    H143327   5.131   5.622   4.904 -0.1157 -1.1568 -0.9003
 7304TIP3    H243328   5.236   5.696   4.823  0.5217 -0.2086  0.7186
 7305TIP3   OH243329   6.175   2.483   3.816  0.3782 -0.3440 -0.4180
 7305TIP3    H143330   6.217   2.551   3.763  0.4894  0.7657  1.0163
 7305TIP3    H243331   6.091   2.522   3.842 -0.1716 -1.3105 -0.6813
 7306TIP3   OH243332   2.278   4.843  15.900 -0.2103  0.0472  0.0834
 7306TIP3    H143333   2.370   4.871  15.901 -0.6479  1.8186 -1.9382
 7306TIP3    H243334   2.244   4.875  15.816 -2.9279  0.2830  1.1650
 7307TIP3   OH243335   0.449   2.764  10.361  0.9243  0.6348 -0.2237
 7307TIP3    H143336   0.384   2.695  10.377  0.4688  0.6227 -1.9382
 7307TIP3    H243337   0.512   2.724  10.301  1.1608  1.4282 -0.5146
 7308TIP3   OH243338   3.922   5.257  15.486  0.0781 -0.5553 -0.6490
 7308TIP3    H143339   3.885   5.205  15.413 -0.7648 -0.6510 -0.1660
 7308TIP3    H243340   4.016   5.247  15.476 -0.0485 -1.4316 -1.1165
 7309TIP3   OH243341   3.030   6.620  13.380  0.0111  0.6010 -0.6790
 7309TIP3    H143342   3.106   6.648  13.329  0.9507 -1.5241 -0.5639
 7309TIP3    H243343   3.045   6.527  13.396 -2.0151  0.4067  0.4460
 7310TIP3   OH243344   1.066   1.622   1.462  0.3131 -0.0957  0.1677
 7310TIP3    H143345   1.013   1.651   1.536 -0.6834 -1.8174  0.1884
 7310TIP3    H243346   1.037   1.676   1.388 -0.3396  0.0597  0.5337
 7311TIP3   OH243347   2.588   5.458   2.765 -0.2928 -0.5634  0.1769
 7311TIP3    H143348   2.575   5.491   2.676 -2.9744 -0.6261  0.4555
 7311TIP3    H243349   2.553   5.369   2.763  1.3237 -1.2675  0.9008
 7312TIP3   OH243350   1.392   5.718  15.499  0.2779  0.3803  0.0209
 7312TIP3    H143351   1.430   5.806  15.493  0.7558  0.3631  2.0899
 7312TIP3    H243352   1.458   5.667  15.547 -0.0331 -1.0942 -1.0565
 7313TIP3   OH243353   1.191   6.668  14.390 -0.1225 -0.0215 -0.0907
 7313TIP3    H143354   1.170   6.645  14.299 -1.0440 -0.1088  0.1345
 7313TIP3    H243355   1.145   6.750  14.406  1.0999  0.6881 -0.0934
 7314TIP3   OH243356   4.119   0.696   0.446 -0.0504 -0.1128 -0.3311
 7314TIP3    H143357   4.093   0.695   0.353 -0.1942  0.0810 -0.2942
 7314TIP3    H243358   4.146   0.607   0.464 -1.6722 -0.5909 -0.1040
 7315TIP3   OH243359   3.058   1.497  16.768 -0.7347  0.1945  0.1188
 7315TIP3    H143360   3.128   1.563  16.767 -0.2307 -0.3448 -0.2227
 7315TIP3    H243361   3.045   1.473  16.677 -1.0714 -0.0234  0.2218
 7316TIP3   OH243362   4.520   5.687   1.052  0.1050  0.9247 -0.4465
 7316TIP3    H143363   4.564   5.634   1.118 -0.9982  1.1817  0.5323
 7316TIP3    H243364   4.557   5.658   0.969  2.3471  1.3934  0.3405
 7317TIP3   OH243365   5.014   0.446  11.527  0.0674  0.6287  0.2209
 7317TIP3    H143366   5.017   0.351  11.517  0.9543  0.6167  0.5430
 7317TIP3    H243367   4.987   0.461  11.617 -0.1032  0.6787  0.1610
 7318TIP3   OH243368   3.877   1.483  12.913  0.3949  0.0725 -0.6881
 7318TIP3    H143369   3.872   1.411  12.850  0.0464 -0.0170 -0.5626
 7318TIP3    H243370   3.864   1.441  12.998 -0.0483  0.3113 -0.6324
 7319TIP3   OH243371   3.845   1.009  15.309 -0.2104  0.2939  0.0828
 7319TIP3    H143372   3.812   0.944  15.247 -0.1171  0.4545 -0.1329
 7319TIP3    H243373   3.779   1.012  15.378  0.0425 -0.4320  0.3718
 7320TIP3   OH243374   5.178   0.738   2.474  0.5200  0.7872  0.5490
 7320TIP3    H143375   5.142   0.791   2.403 -1.6504 -0.2779  0.7524
 7320TIP3    H243376   5.260   0.703   2.439  0.0159  1.1162 -1.0462
 7321TIP3   OH243377   5.114   3.982   2.983  0.6558 -0.3342  0.6436
 7321TIP3    H143378   5.029   3.940   2.998 -1.4361  3.7350  1.5923
 7321TIP3    H243379   5.141   3.951   2.896 -1.0433 -2.7734  0.8652
 7322TIP3   OH243380   6.408   5.075   2.889 -0.3936 -0.5590 -0.0205
 7322TIP3    H143381   6.443   5.161   2.909 -0.5970 -0.0380 -1.7584
 7322TIP3    H243382   6.329   5.067   2.944 -1.8456  1.4619 -1.6609
 7323TIP3   OH243383   1.580   0.883   0.758  0.3970 -0.7305 -0.6811
 7323TIP3    H143384   1.647   0.820   0.784  0.7417 -0.8640 -1.8386
 7323TIP3    H243385   1.586   0.953   0.824  2.3931 -0.2360 -1.3170
 7324TIP3   OH243386   4.487   3.708   5.219 -0.3648 -0.3551 -0.0988
 7324TIP3    H143387   4.508   3.666   5.136 -2.9054 -1.9288 -0.0603
 7324TIP3    H243388   4.395   3.685   5.236 -0.6628  1.8412  2.0172
 7325TIP3   OH243389   1.726   1.734  11.714  0.0613 -1.0263  0.3885
 7325TIP3    H143390   1.743   1.737  11.808  0.3362 -1.8356  0.3695
 7325TIP3    H243391   1.651   1.675  11.705  0.2393 -1.2027  0.0693
 7326TIP3   OH243392   3.540   3.216  16.570  0.3570  0.3561  0.3801
 7326TIP3    H143393   3.511   3.295  16.616 -1.5715 -0.8668  1.3932
 7326TIP3    H243394   3.590   3.167  16.636 -1.0500 -0.6588  0.7202
 7327TIP3   OH243395   3.170   2.088  14.491 -0.3848  0.2495  0.3955
 7327TIP3    H143396   3.209   2.175  14.493 -0.1755  0.1612  0.1454
 7327TIP3    H243397   3.158   2.065  14.584  0.1434  0.2788  0.4751
 7328TIP3   OH243398   4.182   3.361  16.795 -0.1035 -0.3783  0.1758
 7328TIP3    H143399   4.147   3.287  16.746 -1.3117  0.7568 -0.7604
 7328TIP3    H243400   4.183   3.331  16.886 -0.0700 -1.7095 -0.2471
 7329TIP3   OH243401   5.082   1.265   5.129 -0.2325 -0.8123 -0.2898
 7329TIP3    H143402   4.996   1.307   5.135  0.3957  0.4724  0.1582
 7329TIP3    H243403   5.128   1.292   5.209  1.7315  1.2572 -1.9908
 7330TIP3   OH243404   1.551   5.794  15.152  0.1563 -0.0471  0.0304
 7330TIP3    H143405   1.586   5.828  15.235  0.6399 -1.1294  0.2882
 7330TIP3    H243406   1.461   5.770  15.173 -0.0371  0.6036 -0.0284
 7331TIP3   OH243407   6.087   2.419   0.475 -0.1090 -0.1204  0.1646
 7331TIP3    H143408   6.056   2.506   0.500 -1.3120 -0.7600  1.0210
 7331TIP3    H243409   6.167   2.406   0.526  0.8599  0.9855 -0.9887
 7332TIP3   OH243410   1.037   3.205  15.434 -0.1836 -0.0766 -0.2807
 7332TIP3    H143411   0.958   3.245  15.397 -2.1620 -1.9171  1.6012
 7332TIP3    H243412   1.011   3.114  15.451  2.0443 -0.4971  1.2681
 7333TIP3   OH243413   6.427   1.490   1.514  0.2513 -0.1615 -0.4374
 7333TIP3    H143414   6.351   1.443   1.547  0.9655 -0.4646  0.8763
 7333TIP3    H243415   6.415   1.580   1.544  1.5950 -0.7190  2.1079
 7334TIP3   OH243416   0.954   3.803   0.687 -0.5192 -0.1133 -0.9584
 7334TIP3    H143417   0.938   3.728   0.743 -0.1047 -0.0832 -0.7924
 7334TIP3    H243418   0.938   3.879   0.742  1.8392 -0.0622 -0.2402
 7335TIP3   OH243419   5.970   2.507  14.414  0.3196 -0.1063  0.3729
 7335TIP3    H143420   6.058   2.524  14.449  0.2454 -1.2192  1.1617
 7335TIP3    H243421   5.965   2.411  14.408 -0.8004 -0.0505  0.2405
 7336TIP3   OH243422   2.887   1.465  13.183  0.5462 -0.3837 -0.4951
 7336TIP3    H143423   2.873   1.453  13.277 -0.3245 -1.5060 -0.7481
 7336TIP3    H243424   2.812   1.518  13.155  0.5479 -0.4576 -0.6367
 7337TIP3   OH243425   0.833   5.921   4.750 -0.1379 -0.1057  0.6267
 7337TIP3    H143426   0.757   5.954   4.702  1.1012  0.6105 -0.9307
 7337TIP3    H243427   0.811   5.934   4.843 -2.1716 -0.5704  0.2550
 7338TIP3   OH243428   1.144   3.831  13.866 -0.0065  0.0774  0.2510
 7338TIP3    H143429   1.053   3.815  13.840 -1.0384  5.6492 -0.9443
 7338TIP3    H243430   1.192   3.835  13.783  0.2205  1.8638  0.4333
 7339TIP3   OH243431   3.082   1.647  15.447  0.1327 -0.1661 -0.2900
 7339TIP3    H143432   3.071   1.605  15.532  0.9041  1.4932  0.6917
 7339TIP3    H243433   3.165   1.614  15.414  0.7293  0.5271  0.4674
 7340TIP3   OH243434   4.888   2.999  11.673  0.1799 -0.5851 -0.0501
 7340TIP3    H143435   4.922   2.971  11.758 -0.0744  0.2202  0.3290
 7340TIP3    H243436   4.838   2.924  11.641 -1.5711 -0.1708  1.5250
 7341TIP3   OH243437   4.673   2.124   5.545 -0.3830  0.2773 -0.2155
 7341TIP3    H143438   4.591   2.173   5.542 -0.6687 -0.2381 -0.9619
 7341TIP3    H243439   4.647   2.032   5.544  0.1039  0.0310  2.1725
 7342TIP3   OH243440   1.558   3.223   2.035  0.5873 -0.0097 -0.2209
 7342TIP3    H143441   1.549   3.130   2.011 -2.2260  0.0701  0.1208
 7342TIP3    H243442   1.480   3.264   1.998  0.8173  1.8749  1.2445
 7343TIP3   OH243443   4.559   1.296   0.002 -0.3692 -0.5060 -0.2730
 7343TIP3    H143444   4.481   1.348   0.019  0.4962  0.8042 -0.1365
 7343TIP3    H243445   4.576   1.308  -0.092 -0.9078 -1.6456 -0.5332
 7344TIP3   OH243446   1.489   4.829   4.714 -0.2064 -0.6583  0.2032
 7344TIP3    H143447   1.417   4.862   4.660 -0.4213 -2.4021 -0.6705
 7344TIP3    H243448   1.560   4.892   4.701 -1.2018  0.5043  0.1988
 7345TIP3   OH243449   4.894   1.873  13.860  0.9302  0.0340 -0.0607
 7345TIP3    H143450   4.947   1.939  13.816  0.9015  0.0414 -0.0839
 7345TIP3    H243451   4.951   1.796  13.864  0.5395 -0.3409 -1.1644
 7346TIP3   OH243452   4.048   4.821  17.012 -0.4510  0.7359  0.1964
 7346TIP3    H143453   3.959   4.786  17.011 -0.2924  0.2834  1.3862
 7346TIP3    H243454   4.037   4.913  16.988 -0.9294  0.0874 -2.4031
 7347TIP3   OH243455   0.970   4.761  17.272  0.1255 -0.0978  0.0734
 7347TIP3    H143456   0.973   4.685  17.214  0.2660  0.2589 -0.4004
 7347TIP3    H243457   0.943   4.833  17.215  1.2470  0.4639  0.2167
 7348TIP3   OH243458   5.480   4.232  16.432  0.2980  0.4650  0.1595
 7348TIP3    H143459   5.435   4.198  16.509  0.4416 -1.1198 -0.4170
 7348TIP3    H243460   5.530   4.307  16.464 -0.6292  0.6007  1.3408
 7349TIP3   OH243461   6.262   1.848   3.239 -0.5776  0.1747 -0.8961
 7349TIP3    H143462   6.172   1.817   3.246 -0.5704  0.4574  1.0686
 7349TIP3    H243463   6.254   1.942   3.228 -0.5326  0.1382 -1.2355
 7350TIP3   OH243464   1.974   5.532   4.093 -0.3788 -0.0258 -0.5572
 7350TIP3    H143465   1.909   5.595   4.062  0.5931  0.2522 -2.1362
 7350TIP3    H243466   2.049   5.543   4.035  1.6084  0.5118  1.9152
 7351TIP3   OH243467   5.790   5.919   2.959 -0.2645 -0.1944 -0.6657
 7351TIP3    H143468   5.812   5.860   3.032  0.0870  0.2600 -0.3994
 7351TIP3    H243469   5.694   5.922   2.960 -0.2787 -0.5733 -0.5331
 7352TIP3   OH243470   2.523   2.463   5.369 -0.2996 -0.1062  0.0880
 7352TIP3    H143471   2.442   2.417   5.346 -0.0677  0.1168 -1.2318
 7352TIP3    H243472   2.494   2.544   5.410 -0.7151 -0.7455  1.1258
 7353TIP3   OH243473   3.748   6.630  17.188 -0.8680  0.7938  0.2117
 7353TIP3    H143474   3.721   6.554  17.136 -0.9501  0.8554  0.1618
 7353TIP3    H243475   3.827   6.662  17.145  0.9641 -1.0855  2.0151
 7354TIP3   OH243476   1.405   5.394   4.664 -0.2057  0.5008  0.3295
 7354TIP3    H143477   1.359   5.434   4.591 -0.5635  0.1967  0.3856
 7354TIP3    H243478   1.399   5.459   4.735  0.6320  1.0410 -0.0693
 7355TIP3   OH243479   5.428   4.508  15.687  0.4017 -0.2585  0.6895
 7355TIP3    H143480   5.523   4.520  15.675  0.3966 -0.5782  0.3068
 7355TIP3    H243481   5.407   4.563  15.762  0.5597  1.3384 -0.3737
 7356TIP3   OH243482   4.283   5.288  12.341  0.1157 -0.1055 -0.6545
 7356TIP3    H143483   4.346   5.226  12.304 -0.9168 -1.5158 -0.1165
 7356TIP3    H243484   4.321   5.374  12.323  2.3211 -0.9078 -0.1312
 7357TIP3   OH243485   5.107   5.939  12.375  0.4054  0.4803 -0.0421
 7357TIP3    H143486   5.179   5.998  12.398  0.1447  0.6243  0.4083
 7357TIP3    H243487   5.042   5.952  12.444 -0.5607  1.2027 -1.0580
 7358TIP3   OH243488   2.633   1.544  13.077  0.3474 -0.4663  0.6185
 7358TIP3    H143489   2.637   1.548  12.982  1.0927  1.2253  0.6687
 7358TIP3    H243490   2.616   1.452  13.098 -1.8195 -0.5611 -1.1783
 7359TIP3   OH243491   5.564   0.091  16.614 -0.4238  0.1543  0.5273
 7359TIP3    H143492   5.495   0.149  16.648  0.2964  0.3665  1.6860
 7359TIP3    H243493   5.639   0.149  16.601  0.5381 -0.6010  2.3965
 7360TIP3   OH243494   2.129   1.398  15.187 -0.2929  0.2641 -0.1085
 7360TIP3    H143495   2.138   1.398  15.091  0.8678 -1.4208 -0.0486
 7360TIP3    H243496   2.212   1.361  15.218  0.6707  3.5754  1.7434
 7361TIP3   OH243497   0.713   2.649   1.390  0.3328  0.1081  0.4466
 7361TIP3    H143498   0.674   2.734   1.370 -1.5552 -0.6236  0.8160
 7361TIP3    H243499   0.656   2.586   1.345  0.1166 -1.1087  2.3260
 7362TIP3   OH243500   5.162   6.603   3.150  0.2740  0.0710 -0.3195
 7362TIP3    H143501   5.242   6.645   3.119  2.2288 -2.0598  1.4501
 7362TIP3    H243502   5.187   6.561   3.233 -2.3508 -1.7052 -0.2937
 7363TIP3   OH243503   0.523   2.714   5.358  0.0589 -0.1754 -0.5917
 7363TIP3    H143504   0.535   2.807   5.378  0.2189 -0.7112  2.2201
 7363TIP3    H243505   0.431   2.697   5.374  0.1589 -0.6188 -0.4681
 7364TIP3   OH243506   0.837   2.125   3.606  0.4830 -0.1230 -0.0896
 7364TIP3    H143507   0.786   2.145   3.684  0.6884  0.5190 -0.1172
 7364TIP3    H243508   0.774   2.133   3.534  0.0898 -1.5221  0.0660
 7365TIP3   OH243509   0.491   6.184  16.169 -0.1154 -0.2333 -0.0644
 7365TIP3    H143510   0.401   6.216  16.163  0.3621  1.0507 -0.7495
 7365TIP3    H243511   0.524   6.186  16.079  1.3111  1.5571  0.4265
 7366TIP3   OH243512   5.981   6.246  13.943 -0.2102  0.1391 -1.0539
 7366TIP3    H143513   5.990   6.329  13.896  2.4531  0.8319  0.5106
 7366TIP3    H243514   6.069   6.208  13.942 -1.4186 -2.9934 -2.1475
 7367TIP3   OH243515   5.850   2.152  16.380 -0.1196  0.4352  0.1053
 7367TIP3    H143516   5.821   2.243  16.381 -0.2334  0.4055  1.3413
 7367TIP3    H243517   5.772   2.102  16.355 -0.5815  0.5411  1.2556
 7368TIP3   OH243518   2.072   2.519   1.616  0.4809 -0.2573 -0.2428
 7368TIP3    H143519   2.152   2.564   1.642  2.1041 -1.8546 -2.1197
 7368TIP3    H243520   2.017   2.588   1.579  0.5537  1.0113  1.8113
 7369TIP3   OH243521   5.206   0.882   3.544 -0.2301 -0.1129  0.3426
 7369TIP3    H143522   5.177   0.973   3.532  0.1898 -0.0518 -0.2576
 7369TIP3    H243523   5.139   0.843   3.601 -0.2290  0.6645  0.9018
 7370TIP3   OH243524   2.832   2.169   3.667 -0.2370  0.4905 -0.0772
 7370TIP3    H143525   2.838   2.158   3.762  3.4721  1.3923 -0.0385
 7370TIP3    H243526   2.810   2.261   3.654 -3.1362 -0.1342 -0.2160
 7371TIP3   OH243527   1.243   5.785   0.454  0.0630 -1.1064 -0.3356
 7371TIP3    H143528   1.185   5.731   0.400 -1.2095  0.8084 -0.9886
 7371TIP3    H243529   1.222   5.875   0.429  1.5199 -0.2563  1.2965
 7372TIP3   OH243530   2.693   0.539   2.354 -0.0821 -0.1739 -0.2246
 7372TIP3    H143531   2.777   0.516   2.316  0.1134  2.4183 -1.5461
 7372TIP3    H243532   2.714   0.571   2.441  0.1184 -0.6984 -0.0716
 7373TIP3   OH243533   4.618   6.276   1.435  0.1376  0.4731  0.7262
 7373TIP3    H143534   4.689   6.306   1.379 -0.8512 -0.5961 -1.2109
 7373TIP3    H243535   4.568   6.355   1.455  1.6513  1.1765  1.8374
 7374TIP3   OH243536   2.850   1.025   1.768 -0.4033 -0.5619 -0.1430
 7374TIP3    H143537   2.932   1.059   1.734  0.4622  0.6930  2.8859
 7374TIP3    H243538   2.856   0.930   1.755  1.8130 -0.5649  0.4706
 7375TIP3   OH243539   2.364   2.699   0.852  0.9996  0.2140 -0.5171
 7375TIP3    H143540   2.354   2.634   0.783 -0.1615  0.3102 -0.4621
 7375TIP3    H243541   2.277   2.738   0.861  1.2367  0.5267  0.6742
 7376TIP3   OH243542   3.599   4.696  12.301  0.1345  0.0985 -0.1324
 7376TIP3    H143543   3.608   4.605  12.329  0.6660  0.9413  2.7833
 7376TIP3    H243544   3.507   4.704  12.276 -0.1246 -1.0666  0.3742
 7377TIP3   OH243545   3.474   1.904   0.745 -0.4233 -0.5918  0.2492
 7377TIP3    H143546   3.450   1.890   0.653  0.6254 -2.1288  0.1753
 7377TIP3    H243547   3.524   1.986   0.744  0.0419 -0.8741 -0.6396
 7378TIP3   OH243548   3.614   2.982  15.204 -0.4502  0.3855  0.0466
 7378TIP3    H143549   3.708   2.982  15.186 -0.1720 -0.4940  1.3609
 7378TIP3    H243550   3.584   3.068  15.173  1.1572  1.4769  1.3378
 7379TIP3   OH243551   1.757   6.635  16.606 -0.4769  0.2692  0.2418
 7379TIP3    H143552   1.742   6.544  16.631  1.3144 -0.3120 -0.6551
 7379TIP3    H243553   1.845   6.655  16.639 -1.5104  2.3004  2.0562
 7380TIP3   OH243554   4.996   3.305  15.592 -0.2686 -0.1016 -0.4894
 7380TIP3    H143555   4.928   3.254  15.548  0.1379  0.0649 -1.3276
 7380TIP3    H243556   4.954   3.338  15.672 -0.7201 -1.2330 -0.2444
 7381TIP3   OH243557   0.690   5.720   4.146  0.1171 -0.4582  0.0757
 7381TIP3    H143558   0.659   5.809   4.165 -1.7056 -0.7504 -1.3377
 7381TIP3    H243559   0.666   5.705   4.055  3.5908 -1.1417 -0.8964
 7382TIP3   OH243560   5.619   4.162   5.345 -0.1832 -0.1905 -0.1766
 7382TIP3    H143561   5.560   4.212   5.288 -0.6526 -0.6525 -0.1114
 7382TIP3    H243562   5.671   4.109   5.285  1.0721  1.1270 -0.3209
 7383TIP3   OH243563   6.412   3.330  13.139 -0.7316 -0.0950 -0.2249
 7383TIP3    H143564   6.325   3.371  13.139 -0.7077  0.0235  1.6408
 7383TIP3    H243565   6.443   3.340  13.229 -0.6768 -4.1256  0.3630
 7384TIP3   OH243566   1.372   2.195   1.457 -0.2173 -0.1995  0.1870
 7384TIP3    H143567   1.292   2.150   1.430  0.2308 -0.3696 -0.9392
 7384TIP3    H243568   1.399   2.245   1.379  1.6415 -1.4184 -0.0098
 7385TIP3   OH243569   3.259   2.848   2.515 -0.4884  0.4047 -0.5235
 7385TIP3    H143570   3.279   2.932   2.473 -1.2792 -0.1538 -2.0982
 7385TIP3    H243571   3.305   2.852   2.599 -0.2686  2.2834 -0.6826
 7386TIP3   OH243572   2.345   0.386   3.619  1.0802 -0.5455 -0.0595
 7386TIP3    H143573   2.375   0.377   3.710  1.1669  0.9466  0.0885
 7386TIP3    H243574   2.302   0.472   3.617  0.8578 -0.6703 -1.3711
 7387TIP3   OH243575   1.143   4.353   2.044 -0.3963  0.1487 -0.5261
 7387TIP3    H143576   1.178   4.265   2.034  0.1994  0.2896  0.1894
 7387TIP3    H243577   1.184   4.386   2.125 -0.7764  0.9946 -0.6640
 7388TIP3   OH243578   0.874   4.436   1.906  0.1778  0.2921 -0.0721
 7388TIP3    H143579   0.884   4.341   1.919  0.5931  0.0274 -2.1323
 7388TIP3    H243580   0.962   4.468   1.891  0.1772  1.2249  1.6603
 7389TIP3   OH243581   6.495   5.333   2.958 -0.4454 -0.3050 -0.1512
 7389TIP3    H143582   6.577   5.347   3.005  0.1719 -1.0741 -0.9454
 7389TIP3    H243583   6.505   5.383   2.877 -0.2826 -1.2782 -0.7489
 7390TIP3   OH243584   3.680   2.416   5.919 -0.0213  0.2842  0.3139
 7390TIP3    H143585   3.633   2.392   5.840 -1.3413 -0.6304  1.3301
 7390TIP3    H243586   3.627   2.381   5.991  1.1427  1.0451  1.6131
 7391TIP3   OH243587   0.432   0.610  12.595  0.4981  0.3507 -0.2335
 7391TIP3    H143588   0.405   0.701  12.586 -1.3939 -0.1650 -0.3405
 7391TIP3    H243589   0.501   0.611  12.660  1.2465  1.9746 -1.0012
 7392TIP3   OH243590   6.435   0.427   1.417 -0.4142 -0.8138 -0.2544
 7392TIP3    H143591   6.355   0.377   1.400  0.1798 -2.5492  1.5884
 7392TIP3    H243592   6.505   0.361   1.418  0.8065  0.4159 -0.2035
 7393TIP3   OH243593   1.878   5.919  17.130 -0.4863 -0.4774  0.2361
 7393TIP3    H143594   1.924   5.883  17.054  0.1202 -1.8098  1.1897
 7393TIP3    H243595   1.908   6.010  17.136  0.2261 -0.6507 -0.5275
 7394TIP3   OH243596   2.019   2.524   4.956  0.8715 -0.8583  0.3273
 7394TIP3    H143597   2.038   2.509   5.049  0.6987  0.0760  0.5326
 7394TIP3    H243598   1.946   2.586   4.957  0.7158 -1.0249 -0.4375
 7395TIP3   OH243599   1.219   1.263   3.876  0.0045  0.6058 -0.2609
 7395TIP3    H143600   1.233   1.319   3.953  0.0458 -1.0034  0.9472
 7395TIP3    H243601   1.298   1.210   3.870  0.2617  1.1281 -1.8099
 7396TIP3   OH243602   5.732   1.628   0.024 -0.1310  0.5632  0.0526
 7396TIP3    H143603   5.656   1.570   0.016  0.1749  0.0796  0.6315
 7396TIP3    H243604   5.707   1.707  -0.025 -1.7277  1.1702  1.7409
 7397TIP3   OH243605   3.022   2.615   1.017  0.0887  0.6890  0.0346
 7397TIP3    H143606   3.023   2.605   1.112  0.3531 -1.6684 -0.1550
 7397TIP3    H243607   2.942   2.665   0.999 -0.1854  0.7986  1.4411
 7398TIP3   OH243608   3.695   5.591   1.347  0.1947  0.8694 -0.2328
 7398TIP3    H143609   3.670   5.523   1.409  1.3678  0.3152 -0.3481
 7398TIP3    H243610   3.724   5.664   1.402 -1.0273  1.2911 -0.1105
 7399TIP3   OH243611   2.988   3.573  15.241  0.2444  0.4787  0.9320
 7399TIP3    H143612   2.899   3.599  15.261  0.3596  0.8571  0.9552
 7399TIP3    H243613   3.002   3.603  15.151  0.2186  0.0757  0.7910
 7400TIP3   OH243614   3.755   2.307  16.363  0.0883 -0.4732  0.0015
 7400TIP3    H143615   3.701   2.386  16.355 -0.7222 -0.9849  0.3406
 7400TIP3    H243616   3.750   2.266  16.277  0.0806 -0.4262 -0.0198
 7401TIP3   OH243617   0.658   3.600  13.816 -0.2639 -0.5805  0.3434
 7401TIP3    H143618   0.683   3.531  13.755 -0.1190  0.3126 -0.6364
 7401TIP3    H243619   0.674   3.562  13.903  1.2012 -1.2630 -0.1890
 7402TIP3   OH243620   6.219   1.757  12.928 -0.5701 -0.6541 -0.2111
 7402TIP3    H143621   6.134   1.761  12.973 -0.3998 -2.4540  0.3672
 7402TIP3    H243622   6.197   1.726  12.840 -0.6351  0.2714 -0.5305
 7403TIP3   OH243623   4.903   2.189   3.510  0.1589  0.0482  0.0421
 7403TIP3    H143624   4.985   2.158   3.471 -0.5039 -0.2424 -1.1616
 7403TIP3    H243625   4.906   2.157   3.600  0.2603 -2.1456 -0.6820
 7404TIP3   OH243626   1.004   3.666  16.348  0.3853 -0.0539 -0.0412
 7404TIP3    H143627   0.962   3.612  16.281 -0.9313  0.7460  0.0929
 7404TIP3    H243628   1.056   3.730  16.299  2.0359 -1.4631 -0.1985
 7405TIP3   OH243629   5.413   3.828   4.427 -0.0436 -0.0786 -0.1281
 7405TIP3    H143630   5.493   3.879   4.415 -0.1363  1.0485  3.0423
 7405TIP3    H243631   5.342   3.891   4.416 -0.2385  0.0717  1.6580
 7406TIP3   OH243632   4.736   1.402   5.832 -0.8123  0.3529 -0.0709
 7406TIP3    H143633   4.765   1.317   5.867 -1.2795  0.3656  0.3617
 7406TIP3    H243634   4.668   1.430   5.893  1.6966  2.7313  1.9090
 7407TIP3   OH243635   6.513   0.398   3.542 -0.0698  0.4757  0.4519
 7407TIP3    H143636   6.492   0.422   3.452 -0.3026  0.2601  0.4451
 7407TIP3    H243637   6.564   0.318   3.535  0.8746  1.0671  0.4662
 7408TIP3   OH243638   3.393   5.626  11.331 -0.2202  0.4309  0.4178
 7408TIP3    H143639   3.443   5.707  11.337 -1.3073  1.3054 -1.3527
 7408TIP3    H243640   3.331   5.642  11.260 -1.0389 -1.6584  0.5987
 7409TIP3   OH243641   4.520   0.079   5.539  0.0552 -0.1174 -0.5848
 7409TIP3    H143642   4.464   0.140   5.491  0.4470  0.9628  0.2969
 7409TIP3    H243643   4.563   0.133   5.605 -0.3226 -1.5062  0.8692
 7410TIP3   OH243644   6.401   6.201   0.582 -0.0003 -0.0419  0.0007
 7410TIP3    H143645   6.377   6.203   0.489  0.1614  0.7001 -0.0275
 7410TIP3    H243646   6.481   6.148   0.584 -1.8286 -3.0341  0.1692
 7411TIP3   OH243647   5.428   1.188  12.151 -0.9609  0.5636 -0.2964
 7411TIP3    H143648   5.433   1.100  12.188  1.6661  1.0219  0.6971
 7411TIP3    H243649   5.385   1.241  12.218 -0.1562  0.5288  0.2571
 7412TIP3   OH243650   5.598   3.551   5.803  0.4746 -0.9063 -0.2216
 7412TIP3    H143651   5.560   3.613   5.742 -1.3790 -1.0100  0.7635
 7412TIP3    H243652   5.597   3.596   5.887  1.4449 -1.3680  0.0547
 7413TIP3   OH243653   5.024   5.362   1.946  0.2613  0.0868 -0.1365
 7413TIP3    H143654   5.035   5.268   1.962 -0.0734  0.0683 -0.0159
 7413TIP3    H243655   5.084   5.381   1.874 -1.9083 -0.8497 -2.3571
 7414TIP3   OH243656   2.738   6.261  17.119 -0.5240  0.1478 -0.1738
 7414TIP3    H143657   2.800   6.258  17.192 -1.0080 -0.2238  0.2288
 7414TIP3    H243658   2.729   6.170  17.092 -0.2586  0.2995 -0.7769
 7415TIP3   OH243659   2.635   5.473   3.059 -0.4217 -0.1665 -0.2232
 7415TIP3    H143660   2.728   5.498   3.066 -0.3856  1.2086 -3.7551
 7415TIP3    H243661   2.623   5.452   2.966 -3.7986  0.2710  0.0094
 7416TIP3   OH243662   4.507   5.652  15.700  0.3193 -0.2466 -0.0905
 7416TIP3    H143663   4.560   5.664  15.779  1.5694 -0.1439 -0.9259
 7416TIP3    H243664   4.557   5.695  15.631 -1.3886  0.8226 -0.7196
 7417TIP3   OH243665   0.538   5.040  12.211 -1.1846 -0.4583 -0.7152
 7417TIP3    H143666   0.532   5.115  12.151 -2.0866 -1.1679 -1.5608
 7417TIP3    H243667   0.612   5.060  12.267 -1.5407  1.1699 -0.7750
 7418TIP3   OH243668   0.213   5.787  15.340 -0.5292 -0.0009 -0.6155
 7418TIP3    H143669   0.250   5.870  15.371 -0.3816 -0.4450  0.4300
 7418TIP3    H243670   0.239   5.782  15.248 -1.6777  1.7450 -1.0894
 7419TIP3   OH243671   2.164   4.521  14.423  0.0560 -0.1646 -0.2219
 7419TIP3    H143672   2.171   4.586  14.493  2.6320  1.6433 -1.9486
 7419TIP3    H243673   2.134   4.442  14.466 -1.8624  1.7504  2.2770
 7420TIP3   OH243674   5.638   1.535   6.534 -0.1987  0.1261 -0.7045
 7420TIP3    H143675   5.640   1.615   6.585  1.2942 -0.2791 -0.0599
 7420TIP3    H243676   5.562   1.487   6.566  0.4839  0.0550  0.8935
 7421TIP3   OH243677   4.386   5.694   2.489  0.0487 -0.3057  0.5596
 7421TIP3    H143678   4.312   5.648   2.449  0.9023 -1.1243 -0.1127
 7421TIP3    H243679   4.363   5.700   2.582 -1.2820  0.2932  0.2133
 7422TIP3   OH243680   5.517   1.254   1.071 -0.3958 -0.2896 -0.9462
 7422TIP3    H143681   5.500   1.294   0.985 -1.6523  2.1300  0.3120
 7422TIP3    H243682   5.611   1.237   1.071  0.2287  2.5695 -1.7355
 7423TIP3   OH243683   2.045   6.251   5.097  0.4659 -0.5267 -0.3808
 7423TIP3    H143684   2.061   6.343   5.080  0.0963 -0.0075  1.8090
 7423TIP3    H243685   2.078   6.236   5.186 -1.7692 -1.8685  0.3037
 7424TIP3   OH243686   2.987   4.457  13.143  0.8802  0.0330 -0.1522
 7424TIP3    H143687   3.073   4.495  13.122 -0.2644  2.1680 -1.3119
 7424TIP3    H243688   2.933   4.532  13.167 -0.7881 -1.2174  0.1402
 7425TIP3   OH243689   2.314   2.933   2.772  0.4329 -0.0815  0.0245
 7425TIP3    H143690   2.347   2.920   2.861  0.1829  0.6374  0.2293
 7425TIP3    H243691   2.229   2.888   2.771  0.3953 -0.0168  0.1828
 7426TIP3   OH243692   0.907   4.427   4.041  0.2776  0.5790  0.0201
 7426TIP3    H143693   0.960   4.354   4.012 -0.3829 -0.0941  0.4545
 7426TIP3    H243694   0.825   4.387   4.072  0.2001  1.4162  0.9880
 7427TIP3   OH243695   1.775   3.811   5.166 -0.6158 -0.1170  0.2497
 7427TIP3    H143696   1.728   3.880   5.213 -0.2930  0.7159 -0.6284
 7427TIP3    H243697   1.740   3.729   5.202  0.3007  0.4680  2.6562
 7428TIP3   OH243698   0.722   1.067  13.906  0.7681  0.2042 -0.1726
 7428TIP3    H143699   0.714   1.162  13.920  3.9624  1.0953 -2.9753
 7428TIP3    H243700   0.709   1.056  13.811  1.7788 -1.9436 -0.1160
 7429TIP3   OH243701   2.455   4.103   1.638 -0.0945  0.2875  0.2431
 7429TIP3    H143702   2.370   4.133   1.605 -1.0844 -3.5412 -1.2272
 7429TIP3    H243703   2.450   4.115   1.733 -2.5041 -0.2764  0.2469
 7430TIP3   OH243704   0.989   3.450   0.756 -0.8246 -0.0316 -0.0264
 7430TIP3    H143705   0.899   3.422   0.775 -0.2042 -1.5310  1.0020
 7430TIP3    H243706   0.994   3.451   0.661 -1.8212 -0.3582 -0.1034
 7431TIP3   OH243707   4.356   3.412  16.182 -0.6682 -0.5603  0.5799
 7431TIP3    H143708   4.363   3.329  16.229  2.5326 -1.7532 -1.6695
 7431TIP3    H243709   4.423   3.407  16.114 -1.2335  3.3776 -0.5118
 7432TIP3   OH243710   3.310   6.246   3.790 -0.1797  0.7184  0.0126
 7432TIP3    H143711   3.401   6.225   3.767 -0.5328  0.1152 -0.8762
 7432TIP3    H243712   3.287   6.181   3.857 -0.4577 -0.1804 -0.9219
 7433TIP3   OH243713   4.972   5.106  12.047 -0.5951  0.0298 -0.3760
 7433TIP3    H143714   4.919   5.183  12.067  1.7858  0.8686  3.8886
 7433TIP3    H243715   4.912   5.032  12.061 -1.4446  1.0006  1.5454
 7434TIP3   OH243716   0.510   3.561   2.828  0.0514  0.2486 -0.1766
 7434TIP3    H143717   0.494   3.631   2.891  0.9799  0.4829 -0.1837
 7434TIP3    H243718   0.512   3.606   2.743 -2.2378 -0.2110 -0.5164
 7435TIP3   OH243719   2.424   1.399   5.037 -0.0275  0.1350 -0.4178
 7435TIP3    H143720   2.483   1.474   5.033 -0.1540  0.3634  1.2698
 7435TIP3    H243721   2.403   1.380   4.945 -0.4055  2.4819 -0.8830
 7436TIP3   OH243722   5.530   5.044  16.630  0.0866 -0.0768  0.3805
 7436TIP3    H143723   5.444   5.046  16.588 -0.5581 -0.6929  1.6439
 7436TIP3    H243724   5.589   5.012  16.561 -0.2186  2.5178 -1.2397
 7437TIP3   OH243725   0.575   1.855  14.466 -0.1685  0.2383  0.5450
 7437TIP3    H143726   0.501   1.880  14.522  0.3485  0.2024  1.2672
 7437TIP3    H243727   0.551   1.768  14.432 -1.3620  1.0946 -0.8883
 7438TIP3   OH243728   0.327   6.319  16.841 -0.3151 -0.3898  0.4600
 7438TIP3    H143729   0.291   6.406  16.855 -1.9156 -0.8019 -0.8391
 7438TIP3    H243730   0.279   6.263  16.903  0.9340 -0.3486  1.5253
 7439TIP3   OH243731   1.593   3.716  16.115  0.1084 -0.5076 -0.2446
 7439TIP3    H143732   1.547   3.632  16.123 -0.8978  0.1837  2.3011
 7439TIP3    H243733   1.523   3.780  16.102  0.5898  0.2113  0.5931
 7440TIP3   OH243734   3.578   0.664   1.815 -0.1615  0.3689 -0.0625
 7440TIP3    H143735   3.508   0.651   1.750 -0.5412 -1.1718  0.6038
 7440TIP3    H243736   3.619   0.577   1.823  0.5014  0.7685  1.0570
 7441TIP3   OH243737   3.141   5.962   0.981 -0.1525 -0.3592  0.7452
 7441TIP3    H143738   3.076   6.033   0.985  1.1261  0.8223  1.7416
 7441TIP3    H243739   3.189   5.969   1.063  1.4053 -1.0304 -0.0605
 7442TIP3   OH243740   1.970   3.753  15.110  0.3709  0.0433  1.1149
 7442TIP3    H143741   1.881   3.750  15.147 -0.1384  0.6027  0.0175
 7442TIP3    H243742   1.967   3.693  15.036  0.1877  1.7162 -0.3181
 7443TIP3   OH243743   1.283   3.675   0.811 -0.0391 -0.1008 -0.8720
 7443TIP3    H143744   1.299   3.725   0.890  0.5911  0.1074 -1.1269
 7443TIP3    H243745   1.318   3.588   0.830 -0.6997 -0.3096 -0.6017
 7444TIP3   OH243746   1.997   4.449   6.346 -0.4526 -0.0775  0.4371
 7444TIP3    H143747   1.950   4.368   6.329 -1.2401 -0.1545  2.7404
 7444TIP3    H243748   2.056   4.428   6.419  1.7980  0.5593 -1.0674
 7445TIP3   OH243749   3.184   3.579   3.431  0.4758  0.3760 -0.0068
 7445TIP3    H143750   3.149   3.517   3.367 -1.2459  0.5215  0.7355
 7445TIP3    H243751   3.149   3.549   3.515 -1.9894  3.3394  0.1726
 7446TIP3   OH243752   2.833   3.110   1.802  0.4151  0.1165  0.1737
 7446TIP3    H143753   2.750   3.095   1.757  1.4960 -1.9611 -1.2970
 7446TIP3    H243754   2.892   3.142   1.734  0.9850  1.0779  1.0860
 7447TIP3   OH243755   0.001   3.672  12.917  0.3510 -0.0435 -0.7579
 7447TIP3    H143756  -0.053   3.593  12.912  0.3995 -0.1805  0.4584
 7447TIP3    H243757   0.036   3.683  12.829  0.2971 -1.3540 -0.9630
 7448TIP3   OH243758   5.877   5.525  10.528  0.2698 -0.1219 -0.4058
 7448TIP3    H143759   5.894   5.583  10.602 -1.4092  0.6190 -0.5560
 7448TIP3    H243760   5.932   5.559  10.457  0.4081  0.3776 -0.0621
 7449TIP3   OH243761   6.622   5.365  11.198 -0.4045  0.0477  0.0398
 7449TIP3    H143762   6.547   5.375  11.139 -0.7343 -2.9608 -0.1958
 7449TIP3    H243763   6.584   5.368  11.286 -0.5337  0.3085 -0.0228
 7450TIP3   OH243764   3.273   3.260  14.067 -0.0303 -0.2163 -0.2103
 7450TIP3    H143765   3.299   3.169  14.082 -0.6221 -0.4381 -0.4931
 7450TIP3    H243766   3.183   3.254  14.035  0.0264  0.4542 -0.5074
 7451TIP3   OH243767   5.159   1.253   2.442 -0.2409 -0.8653 -0.1644
 7451TIP3    H143768   5.089   1.309   2.407 -0.0273 -0.9932 -0.8007
 7451TIP3    H243769   5.224   1.315   2.475  0.4292 -0.6905 -1.7083
 7452TIP3   OH243770   3.624   3.719   0.808  0.3701  0.1663  0.1564
 7452TIP3    H143771   3.684   3.718   0.733 -0.0238 -0.0082 -0.1594
 7452TIP3    H243772   3.588   3.808   0.808 -0.4196 -0.1395 -0.5037
 7453TIP3   OH243773   2.899   6.060  14.759 -0.0714 -0.0332  0.3791
 7453TIP3    H143774   2.909   6.117  14.682 -1.9960  0.2798  0.3230
 7453TIP3    H243775   2.816   6.014  14.744  1.1416 -2.4923  0.6811
 7454TIP3   OH243776   0.653   5.336  11.381 -0.0037  0.2367 -0.3361
 7454TIP3    H143777   0.744   5.325  11.352  0.1994 -1.1315  0.7460
 7454TIP3    H243778   0.601   5.319  11.304  0.5615 -2.3766 -0.2169
 7455TIP3   OH243779   3.101   1.957   2.936 -0.5004 -0.0790 -0.0748
 7455TIP3    H143780   3.082   2.038   2.889 -2.0347  0.4227  1.3372
 7455TIP3    H243781   3.027   1.900   2.914  1.1946 -1.6698 -2.1282
 7456TIP3   OH243782   6.202   1.291   2.857  0.2341  0.2492  0.1896
 7456TIP3    H143783   6.127   1.255   2.904  0.9552  0.1857  1.3495
 7456TIP3    H243784   6.201   1.248   2.772 -1.9471  1.4190 -0.4443
 7457TIP3   OH243785   4.811   2.442   1.510 -0.4152  0.1975  0.5066
 7457TIP3    H143786   4.894   2.454   1.463  0.2507 -1.6163  1.1426
 7457TIP3    H243787   4.832   2.462   1.601 -0.8414  0.3095  0.5824
 7458TIP3   OH243788   6.451   2.124   4.073  0.6517  0.1801 -0.5838
 7458TIP3    H143789   6.442   2.046   4.018  1.9037  0.1584 -0.7977
 7458TIP3    H243790   6.436   2.092   4.162  0.3192 -0.1329 -0.7500
 7459TIP3   OH243791   4.314   4.862  13.727 -0.3562  0.4042 -0.3447
 7459TIP3    H143792   4.313   4.807  13.649 -0.1792 -0.7193  0.4155
 7459TIP3    H243793   4.407   4.874  13.746 -0.3998  0.5309 -0.2114
 7460TIP3   OH243794   3.830   5.192   5.006 -0.1232  0.1494  0.1276
 7460TIP3    H143795   3.922   5.213   4.987 -0.3662  2.2729  0.9717
 7460TIP3    H243796   3.794   5.274   5.039 -2.6187 -0.3293 -1.1623
 7461TIP3   OH243797   3.285   3.596   3.949  0.1362 -0.0608 -0.1653
 7461TIP3    H143798   3.368   3.549   3.945  0.7693  1.0011  0.1134
 7461TIP3    H243799   3.284   3.636   4.036  0.0563  1.1941 -0.7235
 7462TIP3   OH243800   6.719   0.948  12.083  0.1465 -0.4513 -0.3947
 7462TIP3    H143801   6.694   0.864  12.047 -3.5932  0.4031 -0.2329
 7462TIP3    H243802   6.703   0.940  12.177  1.9269 -0.1910 -0.0336
 7463TIP3   OH243803   0.954   3.782  15.059 -0.3268  0.1749  0.2942
 7463TIP3    H143804   0.938   3.698  15.014  1.1923  1.3497 -2.7288
 7463TIP3    H243805   0.892   3.842  15.019 -1.4662  0.5792  2.5110
 7464TIP3   OH243806   1.713   4.680   3.122  0.1790 -0.0726  0.4936
 7464TIP3    H143807   1.626   4.690   3.158 -0.5492 -0.0652 -1.1532
 7464TIP3    H243808   1.756   4.614   3.177 -1.1114 -0.5969  0.8899
 7465TIP3   OH243809   0.827   4.731   6.164 -0.1628 -0.2311 -0.0453
 7465TIP3    H143810   0.829   4.646   6.122  0.1983 -0.5345  0.5720
 7465TIP3    H243811   0.905   4.732   6.221 -0.3909  0.3391  0.2711
 7466TIP3   OH243812   3.380   3.871  15.575  0.8654 -0.2383 -0.1910
 7466TIP3    H143813   3.335   3.787  15.577  2.6205 -1.3041 -1.9352
 7466TIP3    H243814   3.390   3.890  15.481 -0.0280  2.2649  0.1282
 7467TIP3   OH243815   6.748   4.191  11.522  0.3833 -0.0632  0.2734
 7467TIP3    H143816   6.679   4.242  11.564  2.1746  1.7148  1.2389
 7467TIP3    H243817   6.734   4.205  11.428  0.0545  1.2019  0.4849
 7468TIP3   OH243818   2.505   5.872   2.620  0.3201  0.0290  0.1128
 7468TIP3    H143819   2.489   5.898   2.710  2.9881 -0.7518  0.9016
 7468TIP3    H243820   2.592   5.906   2.600 -0.8552  1.7442 -2.8498
 7469TIP3   OH243821   2.921   0.515  15.208 -0.2293 -0.1780 -0.2514
 7469TIP3    H143822   2.994   0.497  15.149  0.5499  1.0415  0.2852
 7469TIP3    H243823   2.930   0.608  15.229  0.2983 -0.7989  2.7710
 7470TIP3   OH243824   2.355   5.249  13.578 -0.4498  0.2639  0.1767
 7470TIP3    H143825   2.375   5.341  13.592 -1.2677  0.6851 -1.2490
 7470TIP3    H243826   2.269   5.249  13.536  0.0963 -1.0800 -1.0489
 7471TIP3   OH243827   4.564   0.541  15.642 -0.1234 -0.3826 -0.0914
 7471TIP3    H143828   4.570   0.449  15.615  0.0942 -0.0319 -1.2942
 7471TIP3    H243829   4.639   0.583  15.601 -0.9004  0.5745 -0.5723
 7472TIP3   OH243830   6.059   1.047  13.378 -0.0480 -0.5112 -0.6252
 7472TIP3    H143831   6.136   1.102  13.393 -0.5793  0.2088 -0.5078
 7472TIP3    H243832   6.026   1.028  13.466 -0.0358 -0.7797 -0.6785
 7473TIP3   OH243833   4.831   4.633  12.030 -0.2383  0.4384 -0.3799
 7473TIP3    H143834   4.787   4.548  12.035  0.7495 -0.1097 -0.9043
 7473TIP3    H243835   4.912   4.621  12.079 -0.7855  1.5407  0.8523
 7474TIP3   OH243836   3.124   2.722   4.831 -0.4674  0.0598 -0.2042
 7474TIP3    H143837   3.040   2.751   4.794 -0.3541  1.5168  0.6055
 7474TIP3    H243838   3.180   2.706   4.755 -1.6630 -1.6125 -0.7888
 7475TIP3   OH243839   1.282   0.983   4.596 -0.2215 -0.1046 -0.3231
 7475TIP3    H143840   1.311   1.058   4.648  0.0602 -0.2651 -0.2518
 7475TIP3    H243841   1.243   1.023   4.518  1.4206  0.0963 -1.0799
 7476TIP3   OH243842   2.490   0.806  13.769 -0.2359 -0.2558 -0.5170
 7476TIP3    H143843   2.522   0.855  13.693  1.2225  0.8354  0.7488
 7476TIP3    H243844   2.544   0.727  13.771  0.9724  0.5622  0.3745
 7477TIP3   OH243845   3.253   3.411  14.295  0.4137 -0.2309  0.2104
 7477TIP3    H143846   3.168   3.378  14.325 -0.2161  0.6759 -0.5172
 7477TIP3    H243847   3.272   3.360  14.216  0.7642 -0.7452  0.6251
 7478TIP3   OH243848   4.494   5.986  15.880  0.4950  0.1900 -0.3204
 7478TIP3    H143849   4.439   6.024  15.948 -0.6008  0.5667 -1.3700
 7478TIP3    H243850   4.581   5.981  15.919 -0.2043 -0.1367  1.2856
 7479TIP3   OH243851   0.017   2.905   3.177 -0.3514 -0.3101 -0.1549
 7479TIP3    H143852  -0.008   2.934   3.089 -2.4806 -1.3623  0.0168
 7479TIP3    H243853  -0.036   2.958   3.236 -1.7877 -2.0979  0.2788
 7480TIP3   OH243854   5.092   2.950   4.861  0.1625  0.3604  0.2212
 7480TIP3    H143855   5.092   2.854   4.864  0.0954  0.2249 -2.1997
 7480TIP3    H243856   5.182   2.974   4.881  0.2900 -0.2500  0.4022
 7481TIP3   OH243857   4.164   3.848  15.518  0.5819  0.3931 -0.0485
 7481TIP3    H143858   4.161   3.942  15.504 -0.2552  0.2010 -1.3634
 7481TIP3    H243859   4.077   3.826  15.551  0.5292 -0.0046 -0.4378
 7482TIP3   OH243860   1.379   1.311   6.902  0.1453  0.3857 -0.6104
 7482TIP3    H143861   1.307   1.302   6.839  0.4625 -2.4416 -0.6914
 7482TIP3    H243862   1.417   1.224   6.908  0.6571  0.6857  2.9022
 7483TIP3   OH243863   3.547   1.433   2.629 -0.4593 -0.3155 -0.9212
 7483TIP3    H143864   3.538   1.527   2.612 -0.7621 -0.0999  0.3341
 7483TIP3    H243865   3.504   1.420   2.714  1.4945 -1.1956  0.0090
 7484TIP3   OH243866   2.972   3.661   2.943 -0.0323 -0.2127 -0.2844
 7484TIP3    H143867   3.056   3.615   2.936  1.4251  2.2679 -0.4604
 7484TIP3    H243868   2.973   3.724   2.870 -1.8828  0.1248 -0.0602
 7485TIP3   OH243869   5.157   3.346  11.687  0.4050  0.2692 -0.0388
 7485TIP3    H143870   5.145   3.255  11.713 -0.2336  0.2163 -0.5045
 7485TIP3    H243871   5.234   3.375  11.736 -0.7170  0.1576  1.9443
 7486TIP3   OH243872   3.143   4.024   1.681 -0.2520  0.1198  0.0512
 7486TIP3    H143873   3.134   3.956   1.614  0.8620  0.0343 -0.0313
 7486TIP3    H243874   3.070   4.010   1.740 -0.2544 -0.9056 -0.1832
 7487TIP3   OH243875   3.069   5.045  12.381  0.0258  0.1906 -0.0875
 7487TIP3    H143876   3.135   5.108  12.410 -0.2743  1.3989 -1.8776
 7487TIP3    H243877   2.997   5.055  12.444  0.6660  0.4035  0.6255
 7488TIP3   OH243878   1.138   2.918  13.757 -0.8504 -0.2886  0.1906
 7488TIP3    H143879   1.170   2.906  13.667 -0.3173 -2.4452  0.6092
 7488TIP3    H243880   1.216   2.945  13.806  0.2293 -4.1408  0.9262
 7489TIP3   OH243881   1.653   2.110  16.677  0.5510  0.5002 -0.3326
 7489TIP3    H143882   1.738   2.108  16.634  0.9465 -2.6484  0.3081
 7489TIP3    H243883   1.590   2.123  16.607  1.3772 -1.4054 -1.5109
 7490TIP3   OH243884   5.883   0.165   5.625  0.2898 -0.1055  0.2606
 7490TIP3    H143885   5.932   0.241   5.656 -0.2805  0.1436  0.5506
 7490TIP3    H243886   5.821   0.199   5.562 -1.3150 -0.0096  1.8064
 7491TIP3   OH243887   4.126   3.913  11.507 -0.0376  0.1863  0.4594
 7491TIP3    H143888   4.176   3.907  11.426 -0.8680  3.3379 -0.4020
 7491TIP3    H243889   4.172   3.979  11.559 -0.4300 -0.6341  1.9328
 7492TIP3   OH243890   3.042   1.028   5.477  0.1601  0.1556 -0.1354
 7492TIP3    H143891   2.958   1.030   5.523  1.0800  2.1439  1.6125
 7492TIP3    H243892   3.074   0.938   5.490 -0.9140 -0.1305  0.6814
 7493TIP3   OH243893   4.994   3.646  11.183 -0.1980  0.3463  0.2227
 7493TIP3    H143894   5.074   3.614  11.140 -0.4614  0.3544 -0.2886
 7493TIP3    H243895   5.019   3.660  11.274  0.1326 -0.5717  0.2804
 7494TIP3   OH243896   1.007   4.481  11.305 -0.4091  0.5179  0.2592
 7494TIP3    H143897   1.022   4.539  11.380  1.0735  0.4887  0.0140
 7494TIP3    H243898   1.078   4.502  11.245 -0.0737 -1.2913 -0.0139
 7495TIP3   OH243899   1.859   4.714   0.168 -0.0569 -0.3423  0.6630
 7495TIP3    H143900   1.846   4.671   0.252  0.8573 -1.0154  0.4702
 7495TIP3    H243901   1.891   4.801   0.191  0.2405 -0.5407  1.0172
 7496TIP3   OH243902   0.175   5.913  11.830  0.2379  0.6799 -0.1768
 7496TIP3    H143903   0.162   5.966  11.908 -0.2153  0.8377 -0.3569
 7496TIP3    H243904   0.269   5.918  11.813  0.0952  2.0918 -0.6557
 7497TIP3   OH243905   1.898   6.388   3.339  0.0901 -0.5226 -0.3662
 7497TIP3    H143906   1.886   6.337   3.259  1.4288 -1.4087 -0.0354
 7497TIP3    H243907   1.915   6.477   3.308 -0.1964 -0.6957 -1.0385
 7498TIP3   OH243908   2.787   4.073  11.814 -0.5476 -0.3557 -0.3740
 7498TIP3    H143909   2.871   4.074  11.767 -0.0891  0.8188  0.4255
 7498TIP3    H243910   2.745   3.991  11.786  0.0151 -0.0564 -2.2501
 7499TIP3   OH243911   5.925   3.348  15.240 -0.2841 -0.4469  0.3410
 7499TIP3    H143912   5.910   3.427  15.188  0.0681 -1.1187 -0.8147
 7499TIP3    H243913   5.844   3.298  15.231 -0.0646 -0.7579  0.0876
 7500TIP3   OH243914   5.875   1.001  11.896 -0.2021  0.1744 -0.4407
 7500TIP3    H143915   5.806   0.940  11.923  0.1172  0.8636  2.2200
 7500TIP3    H243916   5.931   0.950  11.837 -0.8738 -1.5954  0.3777
 7501TIP3   OH243917   5.444   4.117   4.097 -0.3016  0.2102 -0.2403
 7501TIP3    H143918   5.519   4.092   4.043  0.4592 -0.1202  0.9351
 7501TIP3    H243919   5.371   4.064   4.064  0.8569 -2.3512  1.0422
 7502TIP3   OH243920   2.665   5.152  16.374  0.2036  0.0864 -0.4110
 7502TIP3    H143921   2.711   5.222  16.329 -0.9025  1.3216  0.2988
 7502TIP3    H243922   2.599   5.122  16.311  0.5734 -0.2047 -0.6590
 7503TIP3   OH243923   1.460   6.384  12.847 -0.0880 -0.0142 -0.2390
 7503TIP3    H143924   1.534   6.346  12.800 -0.2610  0.5257 -0.9613
 7503TIP3    H243925   1.479   6.367  12.940  1.1584  0.5064 -0.3809
 7504TIP3   OH243926   0.064   3.110  13.197 -0.1564  0.3024  0.0034
 7504TIP3    H143927   0.156   3.133  13.212  0.0203 -0.2873 -0.1442
 7504TIP3    H243928   0.042   3.052  13.270  0.0737 -0.8599 -0.8307
 7505TIP3   OH243929   5.496   5.150  10.599  0.0558  0.2311 -0.4052
 7505TIP3    H143930   5.517   5.060  10.624 -1.4924 -0.2289 -0.6577
 7505TIP3    H243931   5.578   5.186  10.566  1.3397 -0.2639  2.0022
 7506TIP3   OH243932   4.211   3.706  12.462  0.4675  0.3777  0.1225
 7506TIP3    H143933   4.192   3.614  12.441  1.3240  0.7007 -2.2984
 7506TIP3    H243934   4.296   3.702  12.507  1.6231  0.0797 -1.9361
 7507TIP3   OH243935   4.847   4.340  12.461  0.7348  0.3127  0.5934
 7507TIP3    H143936   4.800   4.311  12.540 -1.1629 -1.3598 -1.0578
 7507TIP3    H243937   4.810   4.426  12.443 -1.8650 -0.9572 -0.6560
 7508TIP3   OH243938   1.222   4.753   4.288  0.4661 -0.2053  0.2560
 7508TIP3    H143939   1.171   4.734   4.209 -0.6198  1.9343  0.3513
 7508TIP3    H243940   1.306   4.708   4.274 -0.0987 -0.7814 -1.6099
 7509TIP3   OH243941   3.901   0.333  16.681 -1.2791  0.1108 -0.3050
 7509TIP3    H143942   3.967   0.267  16.661 -2.2451 -0.8405 -0.3800
 7509TIP3    H243943   3.924   0.364  16.769 -0.4681  0.1298 -0.5176
 7510TIP3   OH243944   6.483   5.139   5.049 -0.5491 -0.0018 -0.5436
 7510TIP3    H143945   6.541   5.064   5.034 -0.8132 -0.6046  1.2648
 7510TIP3    H243946   6.399   5.112   5.012 -0.0861  0.3420 -1.9407
 7511TIP3   OH243947   3.856   2.969  16.959  0.2255 -0.3085 -0.3531
 7511TIP3    H143948   3.920   2.993  17.026  0.0263  1.0025 -0.6052
 7511TIP3    H243949   3.776   2.952  17.009  0.7666 -2.0921 -0.0233
 7512TIP3   OH243950   3.361   0.211  14.872  0.3089 -0.0240 -0.5510
 7512TIP3    H143951   3.365   0.198  14.778 -2.1392  0.4509 -0.7776
 7512TIP3    H243952   3.415   0.140  14.908 -1.4191 -2.3494 -2.2206
 7513TIP3   OH243953   0.896   5.650   0.572  0.4961 -0.4618  0.3413
 7513TIP3    H143954   0.868   5.607   0.492 -0.0219 -1.7326  1.1766
 7513TIP3    H243955   0.820   5.703   0.598  0.4321 -0.5458  0.3262
 7514TIP3   OH243956   2.087   2.905  10.664 -0.2262  0.8701 -0.1466
 7514TIP3    H143957   2.079   2.833  10.603 -0.2402  0.7919 -0.0536
 7514TIP3    H243958   2.180   2.929  10.662 -0.1405  0.5705  0.1376
 7515TIP3   OH243959   6.278   6.562   4.501 -0.5747 -0.5406  0.3238
 7515TIP3    H143960   6.235   6.646   4.515 -1.6657 -1.1410  0.7255
 7515TIP3    H243961   6.230   6.523   4.428 -0.8363 -1.3039  0.8922
 7516TIP3   OH243962   5.491   0.191  13.382  0.0183 -0.9200 -0.2800
 7516TIP3    H143963   5.466   0.232  13.300  2.6109 -0.2621 -0.8441
 7516TIP3    H243964   5.506   0.099  13.360  1.9732 -0.5044 -0.9532
 7517TIP3   OH243965   0.309   2.698   2.479 -0.1053  0.2436 -0.4081
 7517TIP3    H143966   0.279   2.642   2.408 -0.4617 -0.4810  0.3030
 7517TIP3    H243967   0.402   2.676   2.489 -0.5524 -1.2925  0.7983
 7518TIP3   OH243968   6.152   5.066   1.554  0.2679 -0.0363  0.1390
 7518TIP3    H143969   6.085   5.112   1.605 -1.8624 -1.2384 -1.4500
 7518TIP3    H243970   6.230   5.121   1.564 -0.9624  1.5470  1.8866
 7519TIP3   OH243971   0.221   1.798   0.870  0.7310  0.2852  0.2630
 7519TIP3    H143972   0.196   1.839   0.953 -1.6813 -1.2270  0.3626
 7519TIP3    H243973   0.260   1.714   0.896 -2.1285 -1.2585 -0.0745
 7520TIP3   OH243974   4.910   3.695   4.037  0.1308  0.3405  0.0942
 7520TIP3    H143975   4.871   3.636   3.973 -1.3719 -0.2175  1.4700
 7520TIP3    H243976   4.986   3.648   4.071 -1.3250 -1.0797  1.5287
 7521TIP3   OH243977   4.436   3.441   1.181 -0.5440  0.1289 -0.0702
 7521TIP3    H143978   4.466   3.518   1.131 -0.8419  0.7125  0.6445
 7521TIP3    H243979   4.342   3.438   1.166 -0.6496  0.3655  0.5339
 7522TIP3   OH243980   3.831   4.385   2.245  0.1241  1.0610 -0.0143
 7522TIP3    H143981   3.799   4.464   2.203 -3.4646 -0.7908 -1.2612
 7522TIP3    H243982   3.814   4.399   2.338  1.4229  2.4513  0.0442
 7523TIP3   OH243983   1.333   6.243  10.951 -0.3919  0.1445 -0.0924
 7523TIP3    H143984   1.378   6.275  10.873 -1.1620  0.4023 -0.4405
 7523TIP3    H243985   1.375   6.159  10.970  0.1376  0.3131 -0.4869
 7524TIP3   OH243986   6.731   3.358   2.785  0.7996  0.4914 -0.3513
 7524TIP3    H143987   6.774   3.353   2.700  0.5381 -1.0678 -0.4267
 7524TIP3    H243988   6.643   3.390   2.766  0.7654  0.2173 -0.6574
 7525TIP3   OH243989   1.796   1.598   3.327 -0.0635  0.1276 -0.8214
 7525TIP3    H143990   1.742   1.587   3.405 -0.3023 -1.3997 -1.1750
 7525TIP3    H243991   1.737   1.583   3.254 -0.1122  2.6567 -1.3993
 7526TIP3   OH243992   6.108   1.243  13.762  0.0966  0.1244  0.5371
 7526TIP3    H143993   6.036   1.300  13.789  0.5499  0.6615  0.6422
 7526TIP3    H243994   6.168   1.244  13.836  0.5669  0.2874  0.1610
 7527TIP3   OH243995   5.005   6.650   3.843 -0.0623  0.1462  0.1818
 7527TIP3    H143996   5.025   6.655   3.937 -1.7498  2.1882  0.5168
 7527TIP3    H243997   4.920   6.694   3.835  1.4954  2.9797 -2.7165
 7528TIP3   OH243998   4.157   5.285   1.450  0.3395 -0.2790  0.0566
 7528TIP3    H143999   4.202   5.359   1.492 -1.1772  0.2720  0.7711
 7528TIP3    H244000   4.202   5.208   1.485 -0.3289  0.1957  2.0981
 7529TIP3   OH244001   3.216   6.553   1.133  0.0939 -0.5630  0.6408
 7529TIP3    H144002   3.139   6.542   1.078 -0.2190  1.8820  0.5179
 7529TIP3    H244003   3.270   6.617   1.087  0.8212 -0.0661  2.1194
 7530TIP3   OH244004   6.031   3.134   1.417 -0.0988 -0.0530 -0.0088
 7530TIP3    H144005   5.971   3.208   1.419 -0.4106 -0.2765 -0.7853
 7530TIP3    H244006   5.984   3.062   1.460 -0.3076 -0.1656 -0.4205
 7531TIP3   OH244007   5.962   5.296   5.905  0.2367  0.2771  0.0461
 7531TIP3    H144008   6.010   5.271   5.826 -0.3342 -1.9966  0.3642
 7531TIP3    H244009   5.870   5.290   5.880  0.0498 -0.7125  0.9261
 7532TIP3   OH244010   5.120   4.937  10.968 -0.1842  0.3895 -0.4951
 7532TIP3    H144011   5.137   4.882  11.044  0.5726 -2.1124 -2.3433
 7532TIP3    H244012   5.206   4.968  10.940 -0.3433  0.5112 -0.8656
 7533TIP3   OH244013   1.280   3.537   0.260  0.1879  0.4784 -0.4354
 7533TIP3    H144014   1.235   3.534   0.344  1.2560  0.8906  0.1637
 7533TIP3    H244015   1.219   3.496   0.199 -1.7718  2.6155 -0.0328
 7534TIP3   OH244016   2.266   4.830  16.854  0.2033 -0.6969  0.4168
 7534TIP3    H144017   2.181   4.810  16.893 -0.6324  1.4826 -0.1480
 7534TIP3    H244018   2.324   4.841  16.929 -0.6939  0.4912  0.9812
 7535TIP3   OH244019   4.907   3.390  15.862  0.2403  0.1324  0.5351
 7535TIP3    H144020   4.917   3.327  15.934  0.5422  1.2422  1.4962
 7535TIP3    H244021   4.938   3.473  15.898  1.1196  0.5675 -1.1414
 7536TIP3   OH244022   0.994   3.785   4.260  0.0399 -0.2218  0.0129
 7536TIP3    H144023   0.932   3.762   4.329  0.0345 -1.8642 -0.4922
 7536TIP3    H244024   1.080   3.776   4.300  0.0433 -1.3539 -0.2110
 7537TIP3   OH244025   3.316   5.175  16.648 -0.0804 -0.4265  0.1566
 7537TIP3    H144026   3.345   5.150  16.735  0.9426 -1.5281 -0.4695
 7537TIP3    H244027   3.257   5.248  16.662 -1.6328 -1.9228  1.9492
 7538TIP3   OH244028   4.459   1.389   3.846  0.5643 -0.5512  0.3411
 7538TIP3    H144029   4.537   1.411   3.795 -0.2890 -1.4388 -1.4718
 7538TIP3    H244030   4.403   1.466   3.839  0.4549 -0.6656 -0.0823
 7539TIP3   OH244031   1.227   3.081  16.640  0.2024  0.5211 -0.5250
 7539TIP3    H144032   1.205   3.034  16.559  1.6132  1.4717 -1.5054
 7539TIP3    H244033   1.307   3.040  16.670 -0.9546 -0.6454  1.1258
 7540TIP3   OH244034   3.259   6.301  10.849  0.0932  0.0902  0.0383
 7540TIP3    H144035   3.285   6.366  10.784 -1.2522  0.2351 -0.3935
 7540TIP3    H244036   3.248   6.220  10.799  0.6784 -0.2033  0.3807
 7541TIP3   OH244037   4.092   0.099   5.401  0.8843  0.3273 -0.0098
 7541TIP3    H144038   4.056   0.080   5.487  0.6915 -1.9546 -0.5199
 7541TIP3    H244039   4.088   0.015   5.354  1.7082  1.3069 -1.9723
 7542TIP3   OH244040   1.956   5.208   1.239 -0.2791 -0.6810 -0.3402
 7542TIP3    H144041   1.950   5.113   1.225  0.0220 -1.1951  2.3997
 7542TIP3    H244042   2.050   5.226   1.240 -0.2188 -0.8894  1.7625
 7543TIP3   OH244043   1.931   6.023   3.147 -0.0081  0.0700 -0.4092
 7543TIP3    H144044   1.876   5.968   3.091  0.9868 -1.4469  0.0468
 7543TIP3    H244045   2.019   6.017   3.109  0.2729  0.7124  0.1120
 7544TIP3   OH244046   1.307   1.515   1.247 -0.3173  0.5531 -0.2776
 7544TIP3    H144047   1.318   1.583   1.314  0.7463  2.4455 -2.2291
 7544TIP3    H244048   1.219   1.529   1.214 -0.8502 -0.3949  0.6792
 7545TIP3   OH244049   1.913   2.288   2.582  0.2195  0.6252 -0.6212
 7545TIP3    H144050   2.003   2.286   2.552  0.1786  1.1325 -0.7779
 7545TIP3    H244051   1.913   2.350   2.655 -0.0133  0.6725 -0.6590
 7546TIP3   OH244052   2.474   1.713  16.817  0.5343  0.3001 -0.0173
 7546TIP3    H144053   2.450   1.803  16.792 -2.3834  0.0860  1.5499
 7546TIP3    H244054   2.528   1.724  16.895  1.1346  0.7047 -0.4823
 7547TIP3   OH244055   2.708   5.258  11.477  0.0107  0.6415 -0.0895
 7547TIP3    H144056   2.687   5.221  11.562 -1.4229 -1.9190 -1.4347
 7547TIP3    H244057   2.715   5.182  11.419  1.1986  2.2643 -2.2298
 7548TIP3   OH244058   5.013   3.845   5.382  0.1917  0.7852  0.0342
 7548TIP3    H144059   4.919   3.831   5.387 -0.1134  2.4257 -0.5137
 7548TIP3    H244060   5.049   3.760   5.358 -1.1322  0.1110  0.3418
 7549TIP3   OH244061   3.247   2.967  12.161  0.1658  0.1626  0.1994
 7549TIP3    H144062   3.153   2.949  12.174 -0.0664  0.5068 -0.9348
 7549TIP3    H244063   3.268   3.029  12.231 -0.4631  0.1197  0.4396
 7550TIP3   OH244064   1.509   2.567  12.626 -0.3105 -0.4317  0.1697
 7550TIP3    H144065   1.498   2.503  12.696 -1.0712  0.8606  1.2806
 7550TIP3    H244066   1.596   2.604  12.641 -1.0882  0.9759  1.4620
 7551TIP3   OH244067   4.274   1.544  14.710 -0.9335 -0.1350  0.7382
 7551TIP3    H144068   4.305   1.608  14.773 -0.9669  0.8040 -0.1800
 7551TIP3    H244069   4.297   1.459  14.748  0.4788  0.4596  1.2499
 7552TIP3   OH244070   0.288   0.642   6.090 -0.5915 -0.1230  0.6171
 7552TIP3    H144071   0.246   0.642   6.177 -2.1790 -1.8015 -0.0923
 7552TIP3    H244072   0.381   0.655   6.109 -1.0434  0.8321  2.4749
 7553TIP3   OH244073   5.017   6.008   2.931  0.1815  0.3064  0.8862
 7553TIP3    H144074   4.982   6.053   3.008  1.3154  0.7504  1.1610
 7553TIP3    H244075   5.105   6.045   2.919  0.2680 -0.2143 -0.2418
 7554TIP3   OH244076   4.767   5.977   3.745  0.0214  0.2668  0.3374
 7554TIP3    H144077   4.742   6.015   3.829 -2.6402 -0.7106  0.0737
 7554TIP3    H244078   4.696   6.001   3.685  0.1154 -1.8855 -0.7593
 7555TIP3   OH244079   0.013   4.018   1.347 -0.4332  0.1436 -0.0635
 7555TIP3    H144080   0.048   4.056   1.267 -0.6472 -2.1909 -1.3713
 7555TIP3    H244081  -0.080   4.004   1.329 -0.1109 -2.2600 -0.2976
 7556TIP3   OH244082   0.511   5.603   4.956  0.6047 -0.0860  0.0043
 7556TIP3    H144083   0.504   5.593   5.051  0.4893 -2.3741 -0.1980
 7556TIP3    H244084   0.605   5.611   4.938  0.8009 -1.7319  0.1776
 7557TIP3   OH244085   6.684   4.250  12.938  0.2513 -0.0200 -0.5669
 7557TIP3    H144086   6.737   4.180  12.900  0.2001 -0.9163  0.9462
 7557TIP3    H244087   6.602   4.208  12.963  0.7806  0.1492  1.7615
 7558TIP3   OH244088   3.658   0.970  13.502  0.0426 -0.3034 -0.6748
 7558TIP3    H144089   3.684   0.879  13.515  1.1048  0.2477  1.6791
 7558TIP3    H244090   3.563   0.969  13.504  0.0446 -1.1831  1.4091
 7559TIP3   OH244091   3.702   4.339   4.318  0.4041  0.0642 -0.4909
 7559TIP3    H144092   3.787   4.333   4.274  1.2243 -0.0776  1.0484
 7559TIP3    H244093   3.713   4.411   4.381 -0.7526  0.3031 -0.5422
 7560TIP3   OH244094   4.586   4.266  11.362  0.1461  0.3844  0.3970
 7560TIP3    H144095   4.657   4.310  11.315  0.3273 -0.0336  0.2672
 7560TIP3    H244096   4.626   4.185  11.394 -0.4878 -0.2520 -0.3822
 7561TIP3   OH244097   0.861   0.827  14.022  0.5336 -0.2769 -0.2862
 7561TIP3    H144098   0.773   0.851  14.052  0.4591 -0.3114 -0.4784
 7561TIP3    H244099   0.893   0.905  13.977  0.6858 -0.1898 -0.0267
 7562TIP3   OH244100   5.947   6.290   5.956 -0.0637  0.3014  0.0245
 7562TIP3    H144101   5.874   6.230   5.943  0.6182 -0.3861 -0.7224
 7562TIP3    H244102   5.982   6.266   6.042  0.9597 -1.2431 -0.7692
 7563TIP3   OH244103   2.390   1.167   4.123  0.0130 -0.1631  0.0725
 7563TIP3    H144104   2.468   1.206   4.082 -0.4533  0.0668 -0.6080
 7563TIP3    H244105   2.339   1.132   4.049  0.3882 -2.0529  0.6343
 7564TIP3   OH244106   1.863   6.006   5.298 -0.2846  0.2581 -0.0474
 7564TIP3    H144107   1.945   6.041   5.333  1.3156 -3.0423 -0.0772
 7564TIP3    H244108   1.845   5.929   5.352 -3.7214  1.1234  0.2548
 7565TIP3   OH244109   4.899   3.059  13.647 -0.3483  0.0472  0.1729
 7565TIP3    H144110   4.836   3.124  13.616  1.7197  1.2753 -1.7141
 7565TIP3    H244111   4.861   2.975  13.619 -0.2186  0.8943 -2.9043
 7566TIP3   OH244112   0.645   2.091  12.992  0.1586  0.2964  0.3475
 7566TIP3    H144113   0.622   2.169  13.044  2.9110  1.0701  0.5897
 7566TIP3    H244114   0.616   2.112  12.903 -1.8338  0.2667  0.9375
 7567TIP3   OH244115   0.872   3.604   0.067 -0.0381 -0.3960  0.0048
 7567TIP3    H144116   0.947   3.580   0.013 -0.1738  1.4693 -1.1096
 7567TIP3    H244117   0.799   3.552   0.032  0.3139 -0.7113 -0.2614
 7568TIP3   OH244118   1.088   0.011  12.095  0.7155  0.1174 -0.6182
 7568TIP3    H144119   1.022   0.025  12.163  0.7950 -1.7953 -0.0936
 7568TIP3    H244120   1.171   0.009  12.142  0.8352 -0.5168 -0.8382
 7569TIP3   OH244121   2.649   2.054   3.900  0.1378 -0.4024 -0.6080
 7569TIP3    H144122   2.691   2.114   3.962  0.6744 -0.5488 -0.8294
 7569TIP3    H244123   2.670   1.967   3.933 -1.4088 -0.4964  0.2356
 7570TIP3   OH244124   4.859   1.349   4.973  0.4042 -0.6101 -0.1861
 7570TIP3    H144125   4.886   1.416   4.910 -0.3425 -2.8555 -3.0479
 7570TIP3    H244126   4.766   1.364   4.986  0.1624 -1.2401 -1.0942
 7571TIP3   OH244127   6.412   3.020   4.653 -0.1682 -0.6127  0.0905
 7571TIP3    H144128   6.477   3.089   4.639  0.7639 -1.0528  1.9193
 7571TIP3    H244129   6.459   2.939   4.633 -0.9739 -0.7999 -1.1304
 7572TIP3   OH244130   1.322   4.329   2.859  0.4267 -0.2539  0.6624
 7572TIP3    H144131   1.321   4.234   2.853 -1.1313 -0.2112 -0.4368
 7572TIP3    H244132   1.266   4.349   2.934 -1.0724 -0.2025 -0.4092
 7573TIP3   OH244133   1.948   0.843  12.880  0.1778  0.2730  0.2270
 7573TIP3    H144134   1.965   0.751  12.857  0.8665 -0.0163  1.8137
 7573TIP3    H244135   2.023   0.869  12.933  2.0025  2.9623 -3.2160
 7574TIP3   OH244136   4.566   2.230   6.140  0.2886  0.1314  0.1085
 7574TIP3    H144137   4.513   2.246   6.218 -1.8572  0.3311 -1.3053
 7574TIP3    H244138   4.528   2.287   6.073  3.1663  1.3143 -0.7006
 7575TIP3   OH244139   4.222   0.513   3.591  0.4932  0.3356 -0.2121
 7575TIP3    H144140   4.279   0.570   3.643  1.1336 -0.9889  0.5974
 7575TIP3    H244141   4.232   0.427   3.631 -0.2641 -0.4054 -1.5502
 7576TIP3   OH244142   6.528   1.705   4.168  0.0107 -0.5288  0.0752
 7576TIP3    H144143   6.536   1.766   4.242  1.1732  0.6837 -0.9975
 7576TIP3    H244144   6.435   1.707   4.146 -0.2007 -0.2136  0.9203
 7577TIP3   OH244145   0.282   6.673  12.081 -0.5787  0.5354  0.3696
 7577TIP3    H144146   0.207   6.710  12.128 -1.4269 -0.6758  0.0080
 7577TIP3    H244147   0.305   6.741  12.016 -2.7932  0.0589 -1.0102
 7578TIP3   OH244148   6.671   1.133  13.475  0.2053 -0.4189  0.3346
 7578TIP3    H144149   6.708   1.087  13.399  3.1724  1.3599  0.5474
 7578TIP3    H244150   6.645   1.219  13.441 -0.3542 -0.3331  0.9599
 7579TIP3   OH244151   2.944   2.160   4.971 -0.0182 -0.1463 -0.6149
 7579TIP3    H144152   2.930   2.148   4.877  1.2226  0.4461 -0.8934
 7579TIP3    H244153   3.016   2.223   4.977  0.0646 -0.3422  0.7304
 7580TIP3   OH244154   3.170   0.687  10.584 -0.5287  0.0120 -0.8152
 7580TIP3    H144155   3.248   0.675  10.639 -0.9094 -0.5647 -0.3864
 7580TIP3    H244156   3.116   0.610  10.603 -1.5481  0.7797 -0.5195
 7581TIP3   OH244157   5.354   1.239   4.052  0.0840  0.0375  0.3047
 7581TIP3    H144158   5.311   1.194   3.979 -0.2729 -0.5083  0.8385
 7581TIP3    H244159   5.323   1.193   4.129  1.4651 -0.2416  0.7196
 7582TIP3   OH244160   4.249   0.958   5.518 -0.3385 -0.1547  0.1397
 7582TIP3    H144161   4.188   1.029   5.495  0.0023  0.5535  1.3766
 7582TIP3    H244162   4.313   0.999   5.575 -0.6619 -1.6647  1.6562
 7583TIP3   OH244163   4.499   3.642   4.912  0.3931 -0.4683 -0.0623
 7583TIP3    H144164   4.583   3.677   4.884  0.2879  0.0673  0.2675
 7583TIP3    H244165   4.453   3.620   4.831  0.8377 -0.7316 -0.2417
 7584TIP3   OH244166   6.364   6.693   5.343 -0.1425 -0.1101  0.0899
 7584TIP3    H144167   6.368   6.646   5.427 -0.9907 -1.8043 -0.7873
 7584TIP3    H244168   6.274   6.682   5.313 -0.1548  1.4475 -0.5345
 7585TIP3   OH244169   2.282   3.453  15.395  0.1922 -0.2002  0.4101
 7585TIP3    H144170   2.241   3.384  15.343 -0.0987 -1.2265  1.9453
 7585TIP3    H244171   2.217   3.523  15.397 -1.4857 -1.6843  2.5656
 7586TIP3   OH244172   3.567   3.475   4.420 -0.4581 -0.2375 -0.0389
 7586TIP3    H144173   3.532   3.387   4.429  2.6231 -1.5675  0.2035
 7586TIP3    H244174   3.637   3.467   4.355  1.2951  1.5262  1.5049
 7587TIP3   OH244175   4.464   5.897   1.697  0.3555  0.0250 -0.3847
 7587TIP3    H144176   4.492   5.901   1.788  0.9730 -2.4682 -0.3909
 7587TIP3    H244177   4.545   5.907   1.647  0.2711 -0.3347 -0.5957
 7588TIP3   OH244178   6.200   3.942   6.109  0.1231 -0.6403  0.2440
 7588TIP3    H144179   6.272   3.951   6.173  1.3054  1.9200 -1.2470
 7588TIP3    H244180   6.127   3.988   6.150  1.2172  2.0335 -0.5278
 7589TIP3   OH244181   2.746   3.281   5.237  0.1560 -0.2194  0.1984
 7589TIP3    H144182   2.675   3.342   5.219  1.1716  0.3424 -2.3785
 7589TIP3    H244183   2.821   3.337   5.258  1.1143 -0.4610 -2.2564
 7590TIP3   OH244184   4.010   5.262   2.285  0.1630  0.1862 -0.1796
 7590TIP3    H144185   3.997   5.266   2.190  0.0445 -1.0571 -0.2298
 7590TIP3    H244186   3.968   5.342   2.318  1.3653  1.3234 -1.2754
 7591TIP3   OH244187   2.882   1.470  15.578  0.4205  0.1370  0.2275
 7591TIP3    H144188   2.903   1.379  15.556  0.4763  0.4206 -0.9615
 7591TIP3    H244189   2.796   1.465  15.620  0.7277 -0.5299  0.7976
 7592TIP3   OH244190   5.692   5.037  12.688 -0.1384 -0.3307  0.0819
 7592TIP3    H144191   5.672   4.981  12.613  0.6617 -1.5376  0.7241
 7592TIP3    H244192   5.649   4.993  12.762  2.3685 -1.4166  1.0015
 7593TIP3   OH244193   2.248   5.931   1.975 -0.4403  0.0277 -0.1558
 7593TIP3    H144194   2.256   5.899   2.065  2.1124  0.6719 -0.0603
 7593TIP3    H244195   2.286   5.860   1.922  1.4893  1.1008 -0.3138
 7594TIP3   OH244196   6.387   1.624  11.604  0.2627 -0.2799  0.0979
 7594TIP3    H144197   6.399   1.582  11.689 -1.2022  0.1126  0.5370
 7594TIP3    H244198   6.442   1.573  11.544  2.5126  0.3686  1.5114
 7595TIP3   OH244199   6.685   5.603   2.573 -0.4965  0.3574 -0.6216
 7595TIP3    H144200   6.678   5.525   2.627 -0.1973  0.6866 -0.0973
 7595TIP3    H244201   6.641   5.672   2.623  1.1717  1.0437 -0.0202
 7596TIP3   OH244202   6.623   6.739  12.562 -0.4468 -0.0713  0.3246
 7596TIP3    H144203   6.699   6.796  12.551 -0.2826 -0.3247  0.1630
 7596TIP3    H244204   6.548   6.798  12.550 -0.2813 -0.0554 -0.6962
 7597TIP3   OH244205   4.134   5.893  16.778 -0.1421  0.1764 -0.3423
 7597TIP3    H144206   4.087   5.815  16.748 -0.3278 -0.6048  1.7952
 7597TIP3    H244207   4.213   5.858  16.819  0.2611  1.2015 -0.2314
 7598TIP3   OH244208   5.117   5.466  15.271  0.6095 -0.2314  0.6572
 7598TIP3    H144209   5.122   5.375  15.300 -1.9012 -0.3688  0.8977
 7598TIP3    H244210   5.102   5.516  15.352 -0.5384  0.0607  0.2882
 7599TIP3   OH244211   1.153   3.341  16.665 -0.4524 -0.1881  0.5180
 7599TIP3    H144212   1.185   3.364  16.753  0.9582 -0.2122  0.0344
 7599TIP3    H244213   1.159   3.245  16.663  1.9478 -0.0969 -0.4259
 7600TIP3   OH244214   3.884   5.854   0.775 -0.5358 -0.5310  0.2139
 7600TIP3    H144215   3.901   5.917   0.706  1.0987  0.5707  1.5403
 7600TIP3    H244216   3.818   5.795   0.739 -0.6452  0.7505 -1.7855
 7601TIP3   OH244217   6.008   0.885   0.323  0.3793  0.0827 -0.5935
 7601TIP3    H144218   6.076   0.949   0.306  1.0335 -1.2695 -3.6089
 7601TIP3    H244219   5.926   0.929   0.300  0.6232  0.4284 -0.7885
 7602TIP3   OH244220   6.314   1.237   5.146 -0.1401 -0.0248 -0.1545
 7602TIP3    H144221   6.366   1.309   5.182 -0.3249  0.4181 -0.7494
 7602TIP3    H244222   6.256   1.211   5.218 -2.5323  2.7606 -0.8949
 7603TIP3   OH244223   0.776   2.523   4.280  0.1473 -0.2829 -0.1472
 7603TIP3    H144224   0.802   2.610   4.311 -0.4554  0.1739 -0.8813
 7603TIP3    H244225   0.834   2.463   4.326 -0.4741  0.3819  1.5663
 7604TIP3   OH244226   5.593   0.506   2.206  0.3794 -0.3335  0.1339
 7604TIP3    H144227   5.540   0.434   2.172 -0.7104  0.3045  0.4513
 7604TIP3    H244228   5.637   0.543   2.129  0.5110 -0.9703 -0.1035
 7605TIP3   OH244229   4.470   3.707  11.744 -0.0190 -0.4800 -0.5284
 7605TIP3    H144230   4.480   3.613  11.728 -0.7199 -0.6401 -0.0926
 7605TIP3    H244231   4.441   3.743  11.661 -1.1687 -0.8928 -0.3306
 7606TIP3   OH244232   2.609   0.812  14.628  0.3416  0.2854 -0.2792
 7606TIP3    H144233   2.634   0.890  14.677 -0.9127 -0.2648  1.3315
 7606TIP3    H244234   2.561   0.758  14.691 -0.7870 -0.7649 -1.9388
 7607TIP3   OH244235   4.397   4.448   0.722 -0.7517  0.0654  0.3117
 7607TIP3    H144236   4.346   4.366   0.723 -1.1995  0.3210 -0.3751
 7607TIP3    H244237   4.488   4.420   0.731 -0.9815 -0.4336  1.1247
 7608TIP3   OH244238   3.010   6.285  13.469 -0.6509 -1.0105 -0.4598
 7608TIP3    H144239   2.993   6.193  13.450 -1.1382 -0.8801 -0.6586
 7608TIP3    H244240   3.104   6.297  13.450 -0.3181 -1.7325  0.6486
 7609TIP3   OH244241   3.325   4.549   4.521 -0.5065  0.1809 -0.3093
 7609TIP3    H144242   3.305   4.567   4.613  0.1944 -0.2075 -0.0690
 7609TIP3    H244243   3.380   4.623   4.494 -0.9483  0.4407 -0.5034
 7610TIP3   OH244244   5.550   0.223  11.373 -0.0236 -0.3249  0.1726
 7610TIP3    H144245   5.578   0.182  11.455  0.7201 -0.4323 -0.1175
 7610TIP3    H244246   5.531   0.150  11.314  2.4561 -0.3653 -0.7362
 7611TIP3   OH244247   3.077   5.169   1.823  0.4740 -0.1135 -0.7432
 7611TIP3    H144248   3.048   5.260   1.834  0.7655  0.0155 -1.0679
 7611TIP3    H244249   3.168   5.169   1.850 -0.0370 -0.7045  1.1703
 7612TIP3   OH244250   3.230   3.137  16.153 -0.5698 -0.1058 -0.2744
 7612TIP3    H144251   3.312   3.164  16.196 -1.1584  0.8478  0.2955
 7612TIP3    H244252   3.187   3.219  16.130 -1.4041 -0.5937 -0.4998
 7613TIP3   OH244253   5.838   1.050   4.244 -0.1398  0.1461 -0.1430
 7613TIP3    H144254   5.832   1.136   4.203 -2.3209  0.9876  1.7519
 7613TIP3    H244255   5.749   1.017   4.245  0.3806 -1.3306  0.8159
 7614TIP3   OH244256   3.122   1.521  11.279 -0.1352  0.3658 -0.5475
 7614TIP3    H144257   3.215   1.523  11.257 -0.3730  2.7535 -1.6493
 7614TIP3    H244258   3.077   1.518  11.195 -1.0306  3.4006 -0.2755
 7615TIP3   OH244259   4.879   5.205  12.999 -0.6683 -0.4954  0.4735
 7615TIP3    H144260   4.806   5.149  13.027 -0.0837 -0.6705  1.7564
 7615TIP3    H244261   4.855   5.235  12.912 -2.1403 -0.7738  0.7582
 7616TIP3   OH244262   3.257   4.653   2.841 -0.2257 -0.7568 -0.3864
 7616TIP3    H144263   3.227   4.563   2.847 -0.4621 -0.6215  0.5743
 7616TIP3    H244264   3.228   4.694   2.922 -1.2644  0.5400 -1.3726
 7617TIP3   OH244265   1.254   1.374   0.191  0.6432  0.3315  0.2932
 7617TIP3    H144266   1.324   1.318   0.159  0.0493 -0.8948  1.0472
 7617TIP3    H244267   1.292   1.420   0.267  0.7340 -0.0864  0.5028
 7618TIP3   OH244268   3.146   6.168   5.943 -0.8134 -0.5118 -0.0669
 7618TIP3    H144269   3.150   6.094   6.004 -0.4400 -0.5638 -0.1524
 7618TIP3    H244270   3.187   6.240   5.991 -1.9830 -0.1100  0.3620
 7619TIP3   OH244271   1.737   4.852   0.447  0.2437 -0.5081 -0.0352
 7619TIP3    H144272   1.820   4.837   0.493  0.0342  0.2225  0.6109
 7619TIP3    H244273   1.764   4.893   0.364  0.4697  3.3361  1.6871
 7620TIP3   OH244274   4.463   3.216  11.595  0.0021  0.5589  0.1912
 7620TIP3    H144275   4.382   3.208  11.546  0.4530 -1.6905 -0.3200
 7620TIP3    H244276   4.532   3.194  11.532  0.8158  0.1808  1.1693
 7621TIP3   OH244277   3.970   4.851   4.800  0.0886 -0.1944 -0.4764
 7621TIP3    H144278   3.975   4.783   4.733  1.4590 -0.9034  0.3018
 7621TIP3    H244279   4.020   4.924   4.763  0.3950 -0.3905 -0.4551
 7622TIP3   OH244280   0.114   0.630   4.137  0.0123 -0.4211  0.6895
 7622TIP3    H144281   0.086   0.720   4.122  2.5522  0.0643 -2.1195
 7622TIP3    H244282   0.196   0.638   4.186 -0.1985 -1.3009  1.2197
 7623TIP3   OH244283   3.780   1.071  16.959 -0.1709 -0.1966  0.0449
 7623TIP3    H144284   3.739   1.156  16.975 -0.0424 -0.0313 -0.4789
 7623TIP3    H244285   3.856   1.069  17.016 -0.1677  0.0459  0.0469
 7624TIP3   OH244286   0.350   1.654   6.049 -0.2782 -0.3924 -0.4145
 7624TIP3    H144287   0.286   1.590   6.017  1.0212 -1.9517 -0.0678
 7624TIP3    H244288   0.409   1.602   6.104  1.5768  0.8508 -1.1505
 7625TIP3   OH244289   6.760   5.598   6.580 -0.7716  0.2464  0.1474
 7625TIP3    H144290   6.793   5.670   6.527  0.3545 -1.0504 -0.9795
 7625TIP3    H244291   6.803   5.608   6.665  0.8659 -0.1360 -0.5965
 7626TIP3   OH244292   1.575   5.244  13.016  0.2372  0.0292 -0.1815
 7626TIP3    H144293   1.527   5.224  12.935  0.3566  0.5479 -0.3869
 7626TIP3    H244294   1.620   5.326  12.997  0.1074  0.2638  0.4807
 7627TIP3   OH244295   1.081   1.618   2.162 -0.1555  0.8275  0.0050
 7627TIP3    H144296   1.066   1.661   2.246 -1.9696 -1.1693  0.7973
 7627TIP3    H244297   1.123   1.535   2.185 -1.5080 -0.1611 -0.9167
 7628TIP3   OH244298   1.267   3.908  16.063 -0.4403 -0.2729  0.1468
 7628TIP3    H144299   1.243   3.956  16.142 -2.9098  0.1014 -0.7438
 7628TIP3    H244300   1.238   3.818  16.079 -3.2653  0.2874 -1.1337
 7629TIP3   OH244301   2.535   0.034   4.543  0.2138  0.5787 -0.0371
 7629TIP3    H144302   2.547   0.100   4.474 -1.7945 -0.9333 -1.9794
 7629TIP3    H244303   2.594  -0.037   4.520 -2.1066 -0.9526 -1.7145
 7630TIP3   OH244304   2.829   2.883   2.578 -0.0813 -0.6574  0.5529
 7630TIP3    H144305   2.796   2.951   2.520 -1.9908 -0.5264  1.6966
 7630TIP3    H244306   2.892   2.927   2.634 -0.1443 -0.1997  0.2656
 7631TIP3   OH244307   2.774   6.613  14.616  0.1887 -0.2481 -0.6305
 7631TIP3    H144308   2.813   6.699  14.600  0.7894 -0.2074  0.8927
 7631TIP3    H244309   2.776   6.569  14.530  2.8092  0.0744 -0.8161
 7632TIP3   OH244310   3.257   2.025   4.428 -0.0245 -0.4421  0.3212
 7632TIP3    H144311   3.267   2.060   4.516 -0.5106 -0.2242  0.2980
 7632TIP3    H244312   3.258   2.103   4.371 -1.3311 -0.4261  0.2893
 7633TIP3   OH244313   0.506   3.339   0.178 -0.1422  0.5903 -0.3141
 7633TIP3    H144314   0.476   3.248   0.181  1.6665 -0.0901 -1.4283
 7633TIP3    H244315   0.493   3.371   0.268 -0.0950 -1.0182  0.3012
 7634TIP3   OH244316   4.319   6.279   5.555  0.0003 -0.5562  0.0180
 7634TIP3    H144317   4.240   6.313   5.512  0.5982 -0.3908 -0.9912
 7634TIP3    H244318   4.316   6.315   5.643 -0.1691  0.9044 -0.5485
 7635TIP3   OH244319   2.879   4.275   3.463  0.3654  0.4076  0.4054
 7635TIP3    H144320   2.884   4.179   3.465  2.7619  0.4686  0.4194
 7635TIP3    H244321   2.859   4.300   3.553  2.9384 -0.0543  1.2091
 7636TIP3   OH244322   2.896   3.538  11.371  0.7732 -0.3627 -0.1796
 7636TIP3    H144323   2.946   3.458  11.356  2.0876  0.2472  0.7289
 7636TIP3    H244324   2.895   3.548  11.467 -0.3870  0.0832 -0.2269
 7637TIP3   OH244325   5.136   2.425  13.635 -0.1543 -0.1053  0.5572
 7637TIP3    H144326   5.178   2.365  13.573 -1.0507  0.7849 -0.9876
 7637TIP3    H244327   5.181   2.410  13.718 -0.6754 -3.2964  0.4024
 7638TIP3   OH244328   6.686   2.672   4.183  0.0492  0.6714 -0.1223
 7638TIP3    H144329   6.677   2.705   4.094  0.3567  0.7219 -0.1347
 7638TIP3    H244330   6.688   2.576   4.173  0.1729  0.6799 -0.1773
 7639TIP3   OH244331   4.120   1.114   0.027 -0.3707  0.0427 -0.1457
 7639TIP3    H144332   4.196   1.148   0.075  1.0490 -2.3008 -0.6115
 7639TIP3    H244333   4.123   1.019   0.040 -1.2516 -0.4637 -2.9638
 7640TIP3   OH244334   6.599   2.854  16.763  0.6756  0.6466 -0.6914
 7640TIP3    H144335   6.574   2.881  16.851  2.8084  2.2765 -0.4985
 7640TIP3    H244336   6.517   2.856  16.713 -0.5095  0.0425  1.1299
 7641TIP3   OH244337   6.608   6.744   5.222 -0.2088 -0.7291 -0.2882
 7641TIP3    H144338   6.524   6.701   5.240 -0.9088 -0.4019 -2.4334
 7641TIP3    H244339   6.671   6.672   5.219  0.1264 -0.7797  3.5759
 7642TIP3   OH244340   1.135   5.494  15.651  0.0597 -0.0403  0.0849
 7642TIP3    H144341   1.128   5.568  15.592 -0.8605  0.5405  0.8809
 7642TIP3    H244342   1.165   5.532  15.734  1.5957 -0.8706 -0.0495
 7643TIP3   OH244343   5.202   3.987  14.153  0.5596 -0.7934 -0.0407
 7643TIP3    H144344   5.169   3.969  14.241 -2.1280 -0.5682 -0.9168
 7643TIP3    H244345   5.194   3.904  14.107 -2.1555 -0.0005 -1.2011
 7644TIP3   OH244346   6.130   5.604   6.523 -0.2427 -0.2243 -0.2959
 7644TIP3    H144347   6.202   5.578   6.580 -1.1124 -0.0913  0.9127
 7644TIP3    H244348   6.166   5.674   6.469  0.2705  0.5304  0.9733
 7645TIP3   OH244349   5.450   6.430  12.347 -0.5580  0.2902 -0.0184
 7645TIP3    H144350   5.426   6.504  12.291  2.5401  1.2109 -0.3323
 7645TIP3    H244351   5.496   6.469  12.420  1.6932 -1.2836 -0.4818
 7646TIP3   OH244352   6.098   3.700  16.267 -0.0350  0.1853 -0.4311
 7646TIP3    H144353   6.126   3.677  16.356  1.8074  2.0485 -0.4253
 7646TIP3    H244354   6.010   3.735  16.278 -0.0486 -0.1405  0.5788
 7647TIP3   OH244355   3.004   0.017   0.591  0.6857  0.3572 -0.4556
 7647TIP3    H144356   3.094   0.032   0.562 -0.0090 -0.4598 -3.2678
 7647TIP3    H244357   3.003  -0.074   0.620  0.8414  0.5143  0.0702
 7648TIP3   OH244358   1.416   3.395  12.545  0.2519  0.6071 -0.4104
 7648TIP3    H144359   1.365   3.427  12.620  0.1576  1.7512 -0.9335
 7648TIP3    H244360   1.505   3.426  12.563  0.6878 -0.9664  0.2628
 7649TIP3   OH244361   2.007   1.885   3.542 -0.9238  0.1423 -0.7791
 7649TIP3    H144362   1.971   1.885   3.454 -1.1557 -0.7764 -0.6968
 7649TIP3    H244363   2.066   1.809   3.544 -2.2020 -0.8765  0.3474
 7650TIP3   OH244364   0.702   6.339   4.423 -0.2016 -0.5396  0.4202
 7650TIP3    H144365   0.774   6.310   4.479  0.5950 -1.3097 -0.9540
 7650TIP3    H244366   0.745   6.372   4.344 -1.3247 -0.0221  0.0069
 7651TIP3   OH244367   1.874   3.661  14.195 -0.1446 -0.3495  0.0862
 7651TIP3    H144368   1.864   3.619  14.280  0.4072 -0.5093  0.0750
 7651TIP3    H244369   1.963   3.640  14.167 -0.5378 -0.8625 -0.8429
 7652TIP3   OH244370   3.065   3.345  15.033 -0.2709  0.1062  0.1131
 7652TIP3    H144371   3.139   3.405  15.027 -0.2835 -0.0040 -1.3311
 7652TIP3    H244372   2.998   3.385  14.978 -0.7697 -0.5396  0.2446
 7653TIP3   OH244373   2.304   3.096   1.255 -0.6143 -0.2844 -0.0337
 7653TIP3    H144374   2.333   3.187   1.265  0.3928 -0.3314 -2.1205
 7653TIP3    H244375   2.384   3.045   1.245 -1.2089 -1.2602  0.0309
 7654TIP3   OH244376   6.109   3.133   4.342  0.6734 -0.2862  0.7547
 7654TIP3    H144377   6.194   3.168   4.372  1.2537 -2.1180  1.3513
 7654TIP3    H244378   6.127   3.101   4.253  0.0849  1.0131  0.1259
 7655TIP3   OH244379   6.582   1.856   4.402 -0.1519 -0.3038  0.4405
 7655TIP3    H144380   6.554   1.794   4.469 -0.3957 -1.1295 -0.4073
 7655TIP3    H244381   6.673   1.875   4.423  0.1153 -1.4375  0.3692
 7656TIP3   OH244382   5.434   3.604  13.169  0.0039 -0.2008 -0.2765
 7656TIP3    H144383   5.353   3.586  13.121 -0.4234 -1.1742  0.7607
 7656TIP3    H244384   5.456   3.695  13.147 -1.7007  0.2775 -0.0964
 7657TIP3   OH244385   3.006   3.847   1.870 -0.1843 -0.0337 -0.7978
 7657TIP3    H144386   2.997   3.776   1.806 -2.2985 -0.2582 -0.3428
 7657TIP3    H244387   2.926   3.842   1.922  0.9357  0.8971  1.1192
 7658TIP3   OH244388   4.496   5.676  14.382 -0.0967  0.2486 -1.0181
 7658TIP3    H144389   4.426   5.741  14.389  1.0939  1.4487  1.0263
 7658TIP3    H244390   4.544   5.701  14.302 -1.4952 -0.1061 -1.9928
 7659TIP3   OH244391   1.802   6.453   1.571  0.4805  0.2893 -0.2285
 7659TIP3    H144392   1.714   6.451   1.533 -0.0865  0.0590  1.0507
 7659TIP3    H244393   1.858   6.478   1.498 -0.5690 -0.0783 -1.2054
 7660TIP3   OH244394   0.142   1.566  13.859 -0.0090  0.0600  0.6250
 7660TIP3    H144395   0.169   1.475  13.850  0.4805  0.1250  1.3591
 7660TIP3    H244396   0.047   1.561  13.867 -0.0248 -0.3507  0.2480
 7661TIP3   OH244397   0.743   2.573   2.381  0.5980 -0.3566  0.2958
 7661TIP3    H144398   0.703   2.491   2.353  0.3897  0.0579 -0.6410
 7661TIP3    H244399   0.789   2.550   2.462  1.0421 -1.5359 -0.2688
 7662TIP3   OH244400   2.368   3.298   2.946 -0.0067 -0.0282  0.6153
 7662TIP3    H144401   2.328   3.216   2.976  1.4403 -0.5187  1.2857
 7662TIP3    H244402   2.346   3.303   2.853 -0.7494 -0.7879  0.7436
 7663TIP3   OH244403   1.716   1.906  13.955  0.7111 -0.3741 -0.1689
 7663TIP3    H144404   1.655   1.961  13.905 -1.5031 -3.4103 -1.1642
 7663TIP3    H244405   1.782   1.880  13.891  0.5750 -0.4865 -0.2660
 7664TIP3   OH244406   6.573   5.575  15.347  0.3636 -0.3172  0.5257
 7664TIP3    H144407   6.668   5.577  15.332  0.6650 -2.0805  1.9584
 7664TIP3    H244408   6.555   5.658  15.391  0.7107  1.3333 -2.1542
 7665TIP3   OH244409   5.436   2.742   4.195  0.0160 -0.3438 -0.1480
 7665TIP3    H144410   5.458   2.695   4.115 -0.8378 -1.0912  0.0453
 7665TIP3    H244411   5.425   2.833   4.167  0.6782 -0.4208 -0.7012
 7666TIP3   OH244412   4.279   2.325   3.189  0.4366 -0.1465 -0.0590
 7666TIP3    H144413   4.217   2.266   3.231  0.3021 -0.6339 -0.9222
 7666TIP3    H244414   4.339   2.351   3.259 -0.6602  0.2410  0.7622
 7667TIP3   OH244415   0.241   3.556   3.829  0.4069  0.4066 -0.5203
 7667TIP3    H144416   0.188   3.576   3.752 -1.9502  0.4135  0.9808
 7667TIP3    H244417   0.328   3.588   3.808  1.8082 -4.8671 -5.6801
 7668TIP3   OH244418   5.348   5.371   0.053 -0.9229 -0.0908  0.0600
 7668TIP3    H144419   5.263   5.414   0.043 -0.5361  0.5548 -0.5633
 7668TIP3    H244420   5.400   5.402  -0.022 -0.2225 -0.6749  0.2878
 7669TIP3   OH244421   5.725   0.621   4.822  0.7838 -0.6569  0.2372
 7669TIP3    H144422   5.727   0.586   4.733 -2.0764 -0.7316  0.1183
 7669TIP3    H244423   5.689   0.709   4.813  0.9195 -0.4799  1.2731
 7670TIP3   OH244424   5.608   2.510  13.097  0.5102  0.1191  0.3855
 7670TIP3    H144425   5.521   2.472  13.110  0.7217 -1.3733 -2.0995
 7670TIP3    H244426   5.632   2.486  13.008  2.9424  1.6448  0.5460
 7671TIP3   OH244427   1.757   2.020   3.228 -0.8736 -0.5651  0.8102
 7671TIP3    H144428   1.696   1.962   3.183 -0.7902 -0.7038  0.8747
 7671TIP3    H244429   1.714   2.041   3.311 -1.1261 -0.1284  0.5682
 7672TIP3   OH244430   1.024   0.520   5.509  0.0505  0.0123 -0.5785
 7672TIP3    H144431   1.080   0.587   5.549  1.5543  0.4306 -3.1772
 7672TIP3    H244432   0.981   0.565   5.436  0.9893 -1.7351 -2.3048
 7673TIP3   OH244433   3.283   6.649   2.179 -0.4090 -0.4897  0.0124
 7673TIP3    H144434   3.378   6.642   2.181 -0.3913 -0.6282 -0.9347
 7673TIP3    H244435   3.259   6.635   2.087 -1.2152  1.0047 -0.0546
 7674TIP3   OH244436   1.004   4.864  11.874 -0.1459 -0.3266  0.7463
 7674TIP3    H144437   1.045   4.823  11.950  0.2298  1.2686  1.4323
 7674TIP3    H244438   0.923   4.903  11.908 -0.8230 -1.0106 -0.0274
 7675TIP3   OH244439   2.376   4.157   3.347  0.1668  0.6108  0.3227
 7675TIP3    H144440   2.437   4.085   3.364  0.0905  0.2365 -0.8711
 7675TIP3    H244441   2.413   4.232   3.393  0.9756  0.1339  0.4632
 7676TIP3   OH244442   2.893   0.411   4.195 -0.2927  0.3353  0.3371
 7676TIP3    H144443   2.986   0.408   4.214 -0.1112 -1.0534 -0.6273
 7676TIP3    H244444   2.861   0.487   4.244  1.3797  1.0299  0.4263
 7677TIP3   OH244445   5.528   2.709   6.512  0.3459 -0.5061  0.2372
 7677TIP3    H144446   5.531   2.614   6.502  1.2601 -0.5254  0.5794
 7677TIP3    H244447   5.608   2.740   6.469 -0.4666  0.2144 -0.8208
 7678TIP3   OH244448   5.518   1.144  16.158 -0.4483  0.0695 -0.3977
 7678TIP3    H144449   5.558   1.098  16.083 -0.2555 -0.4936  0.0396
 7678TIP3    H244450   5.482   1.224  16.120  0.2916  0.1472 -0.9709
 7679TIP3   OH244451   0.470   4.428   1.270  0.0434  0.2253 -0.6481
 7679TIP3    H144452   0.423   4.347   1.291  2.1653 -0.6617  1.1687
 7679TIP3    H244453   0.416   4.498   1.307  0.4724 -0.8211  2.2398
 7680TIP3   OH244454   1.747   5.149  16.985  0.2194 -0.3049  0.5972
 7680TIP3    H144455   1.761   5.243  16.983  1.3014 -0.4509  0.4858
 7680TIP3    H244456   1.657   5.137  16.954 -0.0470  0.6985  0.9381
 7681TIP3   OH244457   6.363   5.754   4.414 -0.0737  0.0358 -0.4449
 7681TIP3    H144458   6.378   5.768   4.507 -2.2470  0.5037 -0.1078
 7681TIP3    H244459   6.321   5.668   4.409  2.6826 -1.3650 -1.3461
 7682TIP3   OH244460   5.321   3.247  15.828  0.3836 -0.2709  0.3651
 7682TIP3    H144461   5.301   3.324  15.773 -0.5042  0.3533  1.5226
 7682TIP3    H244462   5.341   3.284  15.914  0.8228 -1.2980  0.7157
 7683TIP3   OH244463   2.490   5.742   5.639 -0.6210  0.1197 -0.6048
 7683TIP3    H144464   2.526   5.830   5.651 -0.6574  0.4915 -2.7920
 7683TIP3    H244465   2.398   5.750   5.664 -0.4284  0.4575  0.0364
 7684TIP3   OH244466   3.044   3.264  13.565 -0.0532 -0.6049 -0.4044
 7684TIP3    H144467   3.069   3.294  13.478 -0.8774 -0.0128 -0.4465
 7684TIP3    H244468   3.010   3.343  13.608 -0.2732 -1.0391  0.2246
 7685TIP3   OH244469   3.850   4.545  11.224  0.3021  0.1258 -0.2730
 7685TIP3    H144470   3.935   4.588  11.215 -0.1388  1.2429  0.6585
 7685TIP3    H244471   3.794   4.612  11.264 -0.4080 -1.3378  1.2864
 7686TIP3   OH244472   1.793   2.776  16.084 -0.2135  0.1934  0.3557
 7686TIP3    H144473   1.808   2.817  15.999  1.1127  0.7683  0.8508
 7686TIP3    H244474   1.700   2.791  16.101 -0.2855  0.8862 -0.5664
 7687TIP3   OH244475   3.333   6.124  17.228 -0.6015 -0.0881 -0.3929
 7687TIP3    H144476   3.346   6.035  17.195  1.8606 -0.2671  0.8318
 7687TIP3    H244477   3.356   6.118  17.321 -1.3767  1.6394 -0.0545
 7688TIP3   OH244478   3.848   4.169   0.804 -0.7682 -0.2631  0.5662
 7688TIP3    H144479   3.849   4.246   0.748 -0.0244 -0.3107  0.5011
 7688TIP3    H244480   3.920   4.115   0.771 -0.3947 -0.3460  1.4899
 7689TIP3   OH244481   4.277   3.143  16.292 -0.2621  0.2305  0.4170
 7689TIP3    H144482   4.203   3.166  16.236 -0.4160 -1.0058  0.0802
 7689TIP3    H244483   4.237   3.110  16.373 -0.1427 -1.7819 -0.3021
 7690TIP3   OH244484   3.345   6.078  12.575  0.5031 -0.1161 -0.5579
 7690TIP3    H144485   3.380   6.149  12.629 -0.2645 -0.0922 -0.0721
 7690TIP3    H244486   3.291   6.121  12.510  1.6729 -0.1240 -1.5677
 7691TIP3   OH244487   3.931   6.401   2.335  0.1949  0.5162  0.8935
 7691TIP3    H144488   3.894   6.486   2.357  0.2984  0.5022  1.1275
 7691TIP3    H244489   3.864   6.338   2.359 -0.0286  0.5520  0.3793
 7692TIP3   OH244490   5.275   5.840  13.401 -0.0182 -0.1317 -0.1002
 7692TIP3    H144491   5.198   5.817  13.453  0.6968  0.4765  1.2603
 7692TIP3    H244492   5.240   5.857  13.313 -1.3603 -0.3932  0.3622
 7693TIP3   OH244493   1.263   5.756  11.204 -0.4294  0.3566  0.2650
 7693TIP3    H144494   1.295   5.690  11.265  1.9123  0.8958 -0.2666
 7693TIP3    H244495   1.325   5.829  11.214 -1.3788  1.3856 -1.0523
 7694TIP3   OH244496   5.882   3.953  13.384 -0.1392 -0.1885  0.7062
 7694TIP3    H144497   5.916   3.864  13.382 -0.3766 -0.2669  0.1794
 7694TIP3    H244498   5.960   4.008  13.373 -0.1580 -0.3659 -0.4267
 7695TIP3   OH244499   5.412   1.770   5.012 -0.5383 -0.3156 -0.8322
 7695TIP3    H144500   5.498   1.777   5.055  0.3366 -1.4511 -2.3200
 7695TIP3    H244501   5.349   1.788   5.083  0.8632 -1.1020  0.6852
 7696TIP3   OH244502   6.187   4.013  11.398 -0.9161 -0.0368  0.6649
 7696TIP3    H144503   6.267   4.039  11.444  0.3224 -0.3112 -1.2175
 7696TIP3    H244504   6.212   3.932  11.352 -1.6333  0.9061 -1.5198
 7697TIP3   OH244505   0.676   1.188  12.436 -0.3756 -0.3690 -0.1763
 7697TIP3    H144506   0.620   1.162  12.363 -1.8573 -0.3667  0.9149
 7697TIP3    H244507   0.615   1.224  12.501  1.1009  1.4738  0.2646
 7698TIP3   OH244508   4.073   3.228   3.340  0.1657 -0.4794  0.5352
 7698TIP3    H144509   4.116   3.287   3.403 -0.1984  1.6526 -1.1117
 7698TIP3    H244510   4.042   3.285   3.271 -2.7142 -2.2990  0.1644
 7699TIP3   OH244511   0.885   4.329   5.661  0.4698  0.4728 -0.8752
 7699TIP3    H144512   0.912   4.261   5.599  1.3151 -1.0721  1.0744
 7699TIP3    H244513   0.926   4.304   5.743 -2.6205  0.9817  0.9967
 7700TIP3   OH244514   4.522   1.748  15.991  0.4714 -0.5932  0.3817
 7700TIP3    H144515   4.591   1.808  16.019  1.6368 -2.4627  1.8281
 7700TIP3    H244516   4.568   1.665  15.976 -1.2569 -1.5006 -0.1158
 7701TIP3   OH244517   5.376   3.137   4.578 -0.0972  0.7198 -0.6328
 7701TIP3    H144518   5.372   3.131   4.673 -0.2961 -1.0582 -0.7174
 7701TIP3    H244519   5.442   3.073   4.553  0.2207  1.4263 -1.6907
 7702TIP3   OH244520   4.148   6.487   1.830 -0.0212 -0.4888 -0.1850
 7702TIP3    H144521   4.108   6.403   1.853 -1.4678 -0.0293 -0.8663
 7702TIP3    H244522   4.095   6.551   1.877  3.2280 -0.0239  3.3280
 7703TIP3   OH244523   6.252   2.526  13.722  0.6389 -0.1657  0.4985
 7703TIP3    H144524   6.234   2.619  13.734 -0.7497 -0.5888  2.1132
 7703TIP3    H244525   6.171   2.490  13.685  1.7185 -0.5034 -1.6857
 7704TIP3   OH244526   5.164   1.245   4.508 -0.1103 -0.6961 -0.2394
 7704TIP3    H144527   5.078   1.268   4.473 -0.8432  0.8755  2.3434
 7704TIP3    H244528   5.147   1.176   4.571  0.2691  0.4761  1.2061
 7705TIP3   OH244529   2.316   5.204   0.963  0.5300 -0.2940  0.1986
 7705TIP3    H144530   2.410   5.192   0.966  0.5443 -0.0263  1.5899
 7705TIP3    H244531   2.292   5.189   0.872  2.1280  1.1911 -0.5185
 7706TIP3   OH244532   0.197   6.116  14.420  0.1050  0.7642 -0.2141
 7706TIP3    H144533   0.270   6.138  14.361  0.1209  1.2585 -0.0182
 7706TIP3    H244534   0.200   6.021  14.428 -0.4578  0.5914 -1.7422
 7707TIP3   OH244535   1.425   6.629   6.055  0.1998 -0.2461  0.0671
 7707TIP3    H144536   1.405   6.560   6.118 -1.4599 -0.5987 -0.7865
 7707TIP3    H244537   1.437   6.583   5.972 -1.2357  0.4900 -0.5746
 7708TIP3   OH244538   5.377   0.706  12.912  0.5906 -0.5389 -0.3314
 7708TIP3    H144539   5.299   0.743  12.871  2.1521  2.7201 -0.6692
 7708TIP3    H244540   5.413   0.646  12.847 -0.2007 -0.0569 -1.2212
 7709TIP3   OH244541   5.838   4.570   0.887  0.3454 -0.2121  0.2669
 7709TIP3    H144542   5.773   4.559   0.955  1.0527  0.0348  0.9991
 7709TIP3    H244543   5.870   4.482   0.868  1.0545 -0.1661  1.1791
 7710TIP3   OH244544   3.680   3.660   5.503 -0.3952  0.3004  0.0084
 7710TIP3    H144545   3.755   3.717   5.518  0.0602 -0.2866  0.0068
 7710TIP3    H244546   3.644   3.644   5.590 -0.4639  0.5094  0.0184
 7711TIP3   OH244547   2.905   0.009   1.649  0.0091  0.1789  0.0046
 7711TIP3    H144548   2.847  -0.049   1.697 -1.1034  1.3826  0.1638
 7711TIP3    H244549   2.867   0.096   1.660  1.3224  0.8763 -0.6811
 7712TIP3   OH244550   3.932   4.836  13.735  0.4540 -0.3253  0.0276
 7712TIP3    H144551   3.848   4.852  13.778  0.1260 -0.5315 -0.5227
 7712TIP3    H244552   3.960   4.751  13.768 -0.5212 -1.1929 -1.2542
 7713TIP3   OH244553   4.344   0.069   5.804 -0.5034  0.1343 -0.6553
 7713TIP3    H144554   4.318   0.073   5.712 -1.1709 -1.8215 -0.5856
 7713TIP3    H244555   4.360  -0.024   5.821  0.7066  0.5849  0.9256
 7714TIP3   OH244556   0.209   0.547   4.681 -0.5579  0.1450 -0.0807
 7714TIP3    H144557   0.276   0.479   4.674 -1.4581 -0.9046  1.1950
 7714TIP3    H244558   0.256   0.624   4.713  0.2837 -0.1484 -0.5760
 7715TIP3   OH244559   0.749   6.283   0.928 -0.1781 -0.0930 -0.0617
 7715TIP3    H144560   0.835   6.316   0.902 -0.4478  0.4838 -0.2455
 7715TIP3    H244561   0.703   6.270   0.845 -0.7137  0.8461  0.0697
 7716TIP3   OH244562   4.914   3.447   5.809  0.3506 -1.1927  0.0534
 7716TIP3    H144563   4.913   3.427   5.903  1.1012 -1.1314  0.0773
 7716TIP3    H244564   4.834   3.499   5.795  0.1320 -1.3710  0.6182
 7717TIP3   OH244565   3.760   2.458   3.574  0.6599  0.5296  0.1276
 7717TIP3    H144566   3.789   2.390   3.513 -0.0313  1.3138 -1.1009
 7717TIP3    H244567   3.665   2.454   3.572  0.5439  2.6463 -1.2993
 7718TIP3   OH244568   0.885   1.724  16.722 -0.3688 -0.3328  0.7990
 7718TIP3    H144569   0.915   1.775  16.797 -0.3101 -0.1745  0.6676
 7718TIP3    H244570   0.965   1.687  16.684 -0.1273  1.4166 -0.5305
 7719TIP3   OH244571   0.626   6.089   0.071  0.2737  0.5180 -0.5137
 7719TIP3    H144572   0.651   6.180   0.087 -0.9860  0.8660 -0.3856
 7719TIP3    H244573   0.580   6.063   0.151  0.2216 -0.0895 -0.7343
 7720TIP3   OH244574   4.388   4.456   3.222  0.0279  0.1822 -0.1378
 7720TIP3    H144575   4.332   4.437   3.147  1.3430 -1.2225 -0.8142
 7720TIP3    H244576   4.477   4.440   3.190  0.7180  0.8214  1.3593
 7721TIP3   OH244577   1.957   3.559  15.623 -0.2599  0.4737 -0.7308
 7721TIP3    H144578   1.993   3.601  15.544 -1.5301  2.0078 -0.5468
 7721TIP3    H244579   1.862   3.566  15.613 -0.4606  1.4645  1.2746
 7722TIP3   OH244580   1.619   3.914   4.752  0.0157 -0.1731 -0.1518
 7722TIP3    H144581   1.653   3.864   4.678 -0.0780  0.6892 -0.7950
 7722TIP3    H244582   1.591   3.997   4.714 -0.7453 -0.0068  0.7302
 7723TIP3   OH244583   5.524   0.115  12.242  0.1511  0.2661  0.5066
 7723TIP3    H144584   5.571   0.185  12.285  0.2130 -0.0379  0.9374
 7723TIP3    H244585   5.438   0.113  12.284 -0.3515  0.9769 -0.4376
 7724TIP3   OH244586   5.947   4.105   4.878 -0.2886  0.0369 -0.1844
 7724TIP3    H144587   5.945   4.183   4.822  1.4908 -0.0878 -0.5064
 7724TIP3    H244588   5.856   4.076   4.884 -1.1130  2.5179  0.5038
 7725TIP3   OH244589   4.524   4.745   6.544 -0.2121 -0.1907  0.6122
 7725TIP3    H144590   4.583   4.812   6.577  0.9843 -1.1547  0.5322
 7725TIP3    H244591   4.583   4.676   6.512 -1.3903 -1.3265  0.8228
 7726TIP3   OH244592   3.269   6.006   2.212 -0.2697  0.1840 -0.2438
 7726TIP3    H144593   3.363   6.007   2.198 -0.0052 -1.5650  1.0186
 7726TIP3    H244594   3.252   6.080   2.270  0.5028 -0.1316  0.3978
 7727TIP3   OH244595   5.497   3.958  14.512 -0.4050 -0.1749 -0.4872
 7727TIP3    H144596   5.545   3.980  14.433 -2.1803  0.9669 -1.2929
 7727TIP3    H244597   5.410   3.932  14.482 -0.0247 -3.4885  0.8160
 7728TIP3   OH244598   5.405   1.478   3.003 -0.4807 -0.4560  0.3330
 7728TIP3    H144599   5.464   1.531   3.058 -0.3169  0.5092 -0.7476
 7728TIP3    H244600   5.392   1.398   3.054 -1.1543  0.8009  2.2628
 7729TIP3   OH244601   3.654   6.040   5.448 -0.1110  0.0910 -0.0988
 7729TIP3    H144602   3.591   5.999   5.507  0.5086 -1.2668 -0.3315
 7729TIP3    H244603   3.611   6.120   5.418 -2.2728 -1.3965 -1.2258
 7730TIP3   OH244604   0.042   2.127   4.799 -0.4250  0.3270  0.2963
 7730TIP3    H144605   0.052   2.135   4.894 -0.7397  2.1672  0.2222
 7730TIP3    H244606   0.119   2.171   4.763  0.4041 -1.5492 -0.3451
 7731TIP3   OH244607   2.488   5.392   1.757 -0.7677 -0.7996 -0.2317
 7731TIP3    H144608   2.552   5.329   1.789  0.1211 -0.8442 -1.9464
 7731TIP3    H244609   2.448   5.349   1.681 -2.4489 -0.5423  0.4628
 7732TIP3   OH244610   4.863   3.566   4.308  0.9634  0.1787 -0.2337
 7732TIP3    H144611   4.797   3.498   4.313 -1.5629  2.2202 -2.7622
 7732TIP3    H244612   4.944   3.520   4.288 -0.1670 -2.2146  0.3821
 7733TIP3   OH244613   3.433   1.890  13.432  0.4339 -0.1850  0.4848
 7733TIP3    H144614   3.436   1.965  13.373  2.5379 -0.6498 -0.0950
 7733TIP3    H244615   3.524   1.859  13.436 -0.3422 -2.6469  0.7549
 7734TIP3   OH244616   3.567   3.227  14.257  0.0325 -0.1993 -0.3514
 7734TIP3    H144617   3.525   3.311  14.271 -0.0544 -0.5023  1.4190
 7734TIP3    H244618   3.581   3.222  14.162 -4.1118 -0.2113 -1.1259
 7735TIP3   OH244619   6.629   6.589  11.725  0.2417 -1.0634  0.0823
 7735TIP3    H144620   6.670   6.535  11.792  1.4954 -1.2741 -0.8215
 7735TIP3    H244621   6.694   6.595  11.655 -0.4561  0.3588 -0.4973
 7736TIP3   OH244622   1.260   2.367  12.997  0.3924  0.2598  0.1331
 7736TIP3    H144623   1.167   2.383  12.983  0.2654  0.9530  1.5505
 7736TIP3    H244624   1.263   2.298  13.064  0.9274 -0.8113 -0.9418
 7737TIP3   OH244625   4.992   4.912  15.203  0.2193 -0.1911  0.4390
 7737TIP3    H144626   5.034   4.864  15.274 -1.0025 -3.0355 -0.6510
 7737TIP3    H244627   4.902   4.880  15.201 -0.6553  2.0631 -0.5048
 7738TIP3   OH244628   5.736   6.544   2.742 -0.1399 -0.6901  0.5221
 7738TIP3    H144629   5.738   6.547   2.646  0.9809 -2.1594  0.4686
 7738TIP3    H244630   5.645   6.561   2.765 -0.5929 -1.1399 -0.8470
 7739TIP3   OH244631   0.748   3.276  12.041  0.2516  0.5488 -0.5879
 7739TIP3    H144632   0.730   3.278  12.135 -1.8283 -0.7672 -0.8869
 7739TIP3    H244633   0.690   3.342  12.003  0.2650  0.3085 -1.0406
 7740TIP3   OH244634   4.893   3.118   4.945  0.0808 -0.0302  0.3636
 7740TIP3    H144635   4.962   3.098   4.882  0.0113  2.1062 -0.4918
 7740TIP3    H244636   4.912   3.062   5.020  2.5928  0.2811  0.0582
 7741TIP3   OH244637   6.670   0.757  14.179  0.1520 -0.3850  0.3583
 7741TIP3    H144638   6.595   0.701  14.157 -2.8049  2.2554  2.6277
 7741TIP3    H244639   6.647   0.842  14.143  1.6023  0.7526  1.9536
 7742TIP3   OH244640   4.772   4.776  15.173  0.4819 -0.4397  0.0046
 7742TIP3    H144641   4.740   4.702  15.122 -1.1397  1.6089 -2.2351
 7742TIP3    H244642   4.720   4.775  15.253 -0.6535 -0.8726 -0.7064
 7743TIP3   OH244643   6.687   3.268   5.182  0.3741  0.7773  0.2848
 7743TIP3    H144644   6.674   3.363   5.175  1.6822  0.9345 -0.1356
 7743TIP3    H244645   6.669   3.249   5.274 -1.9663  1.0699 -0.0371
 7744TIP3   OH244646   6.612   0.394   5.097  0.4303 -0.6427  0.0930
 7744TIP3    H144647   6.690   0.378   5.044  0.0866 -0.4662 -0.4790
 7744TIP3    H244648   6.646   0.411   5.185  0.9325 -2.2808  0.2435
 7745TIP3   OH244649   6.682   6.609  13.861 -0.1403  0.5117  0.0083
 7745TIP3    H144650   6.679   6.572  13.949 -0.4966 -1.2929 -0.7235
 7745TIP3    H244651   6.776   6.615  13.841 -0.0647  0.6919  0.4101
 7746TIP3   OH244652   3.664   4.345   4.808 -0.2563 -0.4312  0.5951
 7746TIP3    H144653   3.758   4.337   4.820 -0.2381  0.1892  0.9157
 7746TIP3    H244654   3.645   4.297   4.728  0.4905  0.3017 -0.0401
 7747TIP3   OH244655   6.232   6.316  10.707  0.1177  0.4642 -0.6733
 7747TIP3    H144656   6.257   6.250  10.642  0.4755  0.8504 -0.9341
 7747TIP3    H244657   6.300   6.311  10.774  0.5896  1.1102 -1.0903
 7748TIP3   OH244658   4.694   6.253   3.491 -0.4272  0.1011 -0.2944
 7748TIP3    H144659   4.640   6.319   3.447 -0.8599 -0.4358 -0.5795
 7748TIP3    H244660   4.662   6.251   3.581 -0.2166  0.4908 -0.2122
 7749TIP3   OH244661   2.874   0.465   0.806  0.0276  0.3198  0.2252
 7749TIP3    H144662   2.909   0.520   0.877 -0.9268 -0.4567  1.3353
 7749TIP3    H244663   2.789   0.436   0.838 -0.8712  0.7414 -1.6762
 7750TIP3   OH244664   5.903   6.232  11.484 -1.1876 -0.5588  0.0538
 7750TIP3    H144665   5.878   6.255  11.395 -0.4832 -0.2067 -0.0604
 7750TIP3    H244666   5.933   6.314  11.523  1.4118 -1.1876 -0.3812
 7751TIP3   OH244667   4.766   3.421   5.468 -0.1810 -0.3525  0.2363
 7751TIP3    H144668   4.700   3.371   5.516 -0.7515 -0.2171 -0.3924
 7751TIP3    H244669   4.849   3.387   5.501 -0.5561 -1.5228  0.0356
 7752TIP3   OH244670   3.117   3.766  12.643  0.0278  0.2928 -0.2055
 7752TIP3    H144671   3.050   3.709  12.605 -0.2425  1.1573 -1.0630
 7752TIP3    H244672   3.068   3.823  12.702  0.2146  0.0464  0.1946
 7753TIP3   OH244673   4.949   3.214   4.153  0.4680 -0.3687  0.0370
 7753TIP3    H144674   4.857   3.202   4.177  1.0064 -0.8019  2.0883
 7753TIP3    H244675   4.965   3.146   4.088 -0.9698  0.5660 -1.3792
 7754TIP3   OH244676   1.556   5.745  14.834  0.6000  0.4866  0.3466
 7754TIP3    H144677   1.634   5.782  14.876  0.1880 -0.2435  1.8216
 7754TIP3    H244678   1.565   5.650  14.846 -0.5223  0.3950  0.5610
 7755TIP3   OH244679   6.028   3.097  16.029 -0.4970 -0.1789 -0.4814
 7755TIP3    H144680   6.069   3.183  16.038 -0.4846 -0.3541  1.3553
 7755TIP3    H244681   5.941   3.115  15.993 -0.6777  0.6453  0.3668
 7756TIP3   OH244682   3.485   2.047   3.872 -0.3745  0.2628  0.2183
 7756TIP3    H144683   3.506   1.959   3.842 -0.4647 -0.2109  1.4700
 7756TIP3    H244684   3.565   2.097   3.858  0.4798 -0.6135  1.5948
 7757TIP3   OH244685   5.501   6.647  16.452 -0.1784 -0.0851  0.1465
 7757TIP3    H144686   5.501   6.722  16.511  1.0652  0.1863 -0.1681
 7757TIP3    H244687   5.593   6.622  16.445 -0.2187  0.1433 -1.9626
 7758TIP3   OH244688   5.142   5.283   2.917 -0.3507 -0.2759 -0.1058
 7758TIP3    H144689   5.108   5.370   2.899 -0.2334 -0.3606 -0.7449
 7758TIP3    H244690   5.064   5.229   2.932 -0.4079  0.0441  0.8195
 7759TIP3   OH244691   4.652   0.153  14.314 -0.2479 -0.5826  0.1124
 7759TIP3    H144692   4.678   0.145  14.406  2.9905 -0.4573 -0.6805
 7759TIP3    H244693   4.733   0.175  14.268 -1.9397  0.2950 -2.6856
 7760TIP3   OH244694   2.410   5.043   0.376 -0.0296 -0.2996 -0.2689
 7760TIP3    H144695   2.325   5.077   0.405 -0.5876  0.4871 -2.6163
 7760TIP3    H244696   2.389   4.959   0.334  0.7070 -1.2217  1.1141
 7761TIP3   OH244697   2.574   0.761  12.726 -0.0429 -0.8577  0.6166
 7761TIP3    H144698   2.598   0.668  12.720  2.1975 -0.2836 -0.3839
 7761TIP3    H244699   2.636   0.798  12.790  2.0149  0.6830 -2.0265
 7762TIP3   OH244700   5.851   3.034  11.821  0.1938  0.5129 -0.1851
 7762TIP3    H144701   5.843   2.955  11.767 -2.3210  0.3001  0.3543
 7762TIP3    H244702   5.911   3.009  11.891  1.2378 -0.1361 -1.2637
 7763TIP3   OH244703   0.568   3.415  11.600 -0.3438 -0.0689 -0.3240
 7763TIP3    H144704   0.536   3.463  11.677 -2.0927 -0.0183 -1.0474
 7763TIP3    H244705   0.653   3.455  11.581 -0.1995  0.3962  1.1394
 7764TIP3   OH244706   6.064   2.050   4.091  0.4563 -0.8817  0.1176
 7764TIP3    H144707   6.093   2.135   4.060  0.3852 -1.2876 -1.0899
 7764TIP3    H244708   6.099   1.988   4.028  0.2022 -1.7203  0.7856
 7765TIP3   OH244709   2.473   4.196   0.013  0.4873 -0.5679  0.5996
 7765TIP3    H144710   2.504   4.283   0.040 -0.5578  0.1571 -0.4215
 7765TIP3    H244711   2.510   4.184  -0.074 -0.6959 -0.4119  0.0561
 7766TIP3   OH244712   2.374   5.263  11.631  0.4900 -0.2002 -0.1447
 7766TIP3    H144713   2.289   5.251  11.672 -0.0675  0.6430 -1.0078
 7766TIP3    H244714   2.426   5.309  11.697 -0.8943  2.6069 -0.8571
 7767TIP3   OH244715   6.476   2.345  11.329  0.5096  0.1280  0.0263
 7767TIP3    H144716   6.458   2.266  11.278  1.2250 -0.3092  0.4407
 7767TIP3    H244717   6.485   2.314  11.419 -1.3959  0.9725  0.5587
 7768TIP3   OH244718   3.101   2.315   5.285 -0.4879  0.5983 -0.1719
 7768TIP3    H144719   3.158   2.361   5.346  0.1480  0.9632 -1.0173
 7768TIP3    H244720   3.026   2.373   5.273  0.8106  2.0514 -2.0930
 7769TIP3   OH244721   4.989   3.373  16.918 -0.3229 -0.0214 -0.3395
 7769TIP3    H144722   5.034   3.389  16.835 -0.4204  2.7515  0.0506
 7769TIP3    H244723   5.027   3.292  16.951  1.5694  0.1847 -1.8522
 7770TIP3   OH244724   1.520   1.870   1.006  0.0179  0.6283  0.2073
 7770TIP3    H144725   1.477   1.857   1.090  0.7166  0.4970  0.5520
 7770TIP3    H244726   1.449   1.894   0.946 -0.7258 -0.8113  0.4595
 7771TIP3   OH244727   5.210   2.522  14.565 -0.0498 -0.1222  0.2663
 7771TIP3    H144728   5.150   2.519  14.491 -0.6907  2.1254  0.6338
 7771TIP3    H244729   5.189   2.444  14.616 -1.4544 -0.2867 -0.5094
 7772TIP3   OH244730   2.337   3.417   2.257  0.2101  0.4287  0.6291
 7772TIP3    H144731   2.327   3.506   2.224  0.0345  0.4738  0.8036
 7772TIP3    H244732   2.426   3.392   2.231 -0.5486 -0.2381 -1.5547
 7773TIP3   OH244733   4.931   0.694   5.373  0.0360 -0.3165  0.2751
 7773TIP3    H144734   4.978   0.611   5.375  1.9023  0.6715  3.2876
 7773TIP3    H244735   4.941   0.725   5.283 -0.6947 -3.2323 -0.9334
 7774TIP3   OH244736   4.770   0.680  14.949 -0.1690  0.6436  0.0310
 7774TIP3    H144737   4.803   0.613  15.009  0.0644  0.5608 -0.1863
 7774TIP3    H244738   4.845   0.738  14.935 -0.2061  0.6269 -0.2286
 7775TIP3   OH244739   4.190   2.176  11.458 -0.3190  0.2980 -0.2406
 7775TIP3    H144740   4.179   2.271  11.445  2.0268  0.7380  0.5910
 7775TIP3    H244741   4.217   2.167  11.549  0.1590 -1.1244 -0.5068
 7776TIP3   OH244742   0.075   5.250  15.359  0.1820  0.1446 -0.5110
 7776TIP3    H144743   0.049   5.210  15.276  0.7287  0.3644 -0.7896
 7776TIP3    H244744   0.076   5.344  15.341  1.8035  0.1137 -0.7001
 7777TIP3   OH244745   5.091   6.746  17.107  0.1686  0.7431  0.0317
 7777TIP3    H144746   5.123   6.767  17.195 -0.0769 -0.5176  0.4424
 7777TIP3    H244747   5.143   6.801  17.049  0.9659  0.9360  0.9042
 7778TIP3   OH244748   3.761   6.349   0.396  0.3622  0.5092  0.2684
 7778TIP3    H144749   3.762   6.296   0.476  1.7962 -0.7586 -0.5267
 7778TIP3    H244750   3.853   6.368   0.380  0.0642  0.9965 -0.9214
 7779TIP3   OH244751   3.881   3.956   0.481 -0.4688 -0.2188  0.1042
 7779TIP3    H144752   3.849   3.866   0.490  0.7646 -0.7061 -0.3118
 7779TIP3    H244753   3.921   3.976   0.566  2.2545 -1.2886 -0.8335
 7780TIP3   OH244754   6.079   1.912  12.433  1.0409 -0.0052  0.0736
 7780TIP3    H144755   6.142   1.881  12.368 -0.5000  0.5561 -1.7808
 7780TIP3    H244756   6.030   1.833  12.457  0.3856  0.0942 -0.8918
 7781TIP3   OH244757   1.393   5.399   2.266 -0.5367  0.1349  0.7507
 7781TIP3    H144758   1.419   5.458   2.195  1.0471  1.4776  2.3594
 7781TIP3    H244759   1.304   5.428   2.288 -0.4681  0.7089  0.3164
 7782TIP3   OH244760   5.665   2.983  16.159  0.0584  0.1523 -0.0849
 7782TIP3    H144761   5.590   2.926  16.141  0.2750  0.2245 -1.2807
 7782TIP3    H244762   5.737   2.945  16.108  0.6594  0.4823  0.5075
 7783TIP3   OH244763   5.198   5.614   1.032 -0.1445 -0.1927 -0.6657
 7783TIP3    H144764   5.188   5.581   0.943  1.5086 -1.7468 -0.3261
 7783TIP3    H244765   5.141   5.558   1.085  0.4571 -0.6337 -0.4781
 7784TIP3   OH244766   2.155   6.546  13.404 -0.1736 -0.0689  0.4535
 7784TIP3    H144767   2.080   6.572  13.350 -0.5614 -1.3217  0.3557
 7784TIP3    H244768   2.231   6.565  13.349 -0.6151 -3.2731 -1.5497
 7785TIP3   OH244769   2.961   0.003  11.565 -0.3726 -0.2288  0.4091
 7785TIP3    H144770   2.989  -0.039  11.484  0.3062 -2.9706  1.9400
 7785TIP3    H244771   2.943   0.093  11.540  0.3824 -0.8071 -2.6457
 7786TIP3   OH244772   6.320   5.030  15.116 -0.4266  0.5992 -0.2253
 7786TIP3    H144773   6.377   4.961  15.083 -1.5213  0.2233 -1.4238
 7786TIP3    H244774   6.285   4.997  15.199 -2.1562 -1.0391 -1.5116
 7787TIP3   OH244775   6.559   0.055   1.776 -0.0812  0.1958  0.4037
 7787TIP3    H144776   6.471   0.041   1.810 -0.1668 -1.4129 -0.3948
 7787TIP3    H244777   6.613   0.071   1.853 -1.0363  1.1397  0.8998
 7788TIP3   OH244778   6.022   4.673  16.620 -0.2145  0.1121  0.1890
 7788TIP3    H144779   5.940   4.716  16.595 -1.1839 -1.7469  0.0263
 7788TIP3    H244780   6.067   4.656  16.538  1.3953  2.9314  0.3465
 7789TIP3   OH244781   0.330   2.197   4.845 -0.1344 -0.0577 -0.2599
 7789TIP3    H144782   0.302   2.283   4.815  0.0861  0.4330  0.8801
 7789TIP3    H244783   0.425   2.198   4.834 -0.1467 -0.2176 -0.3851
 7790TIP3   OH244784   2.746   4.484  12.900  0.5826 -0.4025  0.2572
 7790TIP3    H144785   2.770   4.446  12.815  0.4223  1.0672 -0.4781
 7790TIP3    H244786   2.824   4.473  12.954  0.8380 -0.9669 -0.2152
 7791TIP3   OH244787   1.711   1.909   5.372 -0.3891  0.6207  0.4369
 7791TIP3    H144788   1.799   1.887   5.402 -0.8870 -0.0542  1.4620
 7791TIP3    H244789   1.657   1.836   5.401 -0.8130 -0.5339 -2.8138
 7792TIP3   OH244790   2.708   5.997  16.162 -0.3054  0.1003  0.0987
 7792TIP3    H144791   2.728   5.903  16.167 -2.6458 -0.3917  3.0405
 7792TIP3    H244792   2.617   6.000  16.130 -0.5164  1.2826  0.7609
 7793TIP3   OH244793   4.597   0.987  14.905 -0.4452 -0.4268 -0.5178
 7793TIP3    H144794   4.654   0.910  14.901  0.7362  0.4042 -0.2774
 7793TIP3    H244795   4.549   0.986  14.823  0.8143 -0.4991 -1.2799
 7794TIP3   OH244796   0.750   0.042  17.052  0.3047 -0.0059 -0.1294
 7794TIP3    H144797   0.795   0.125  17.041 -0.8352  0.6940  0.2826
 7794TIP3    H244798   0.815  -0.016  17.092  1.4114  0.3748 -1.3095
 7795TIP3   OH244799   6.060   2.118  11.361 -0.2614  0.3557  0.2560
 7795TIP3    H144800   6.009   2.189  11.321 -1.3210 -0.2183  0.5299
 7795TIP3    H244801   6.092   2.067  11.287 -2.5729 -0.9540  0.0380
 7796TIP3   OH244802   1.731   4.009   5.759  0.3558 -0.2700  0.0723
 7796TIP3    H144803   1.754   4.086   5.812  0.9558  0.0255 -0.6036
 7796TIP3    H244804   1.682   3.953   5.819 -2.4028  1.7551 -0.0915
 7797TIP3   OH244805   3.476   5.783  13.177  0.1468 -0.6855  0.4061
 7797TIP3    H144806   3.393   5.828  13.190  0.4913  0.0006  0.2668
 7797TIP3    H244807   3.524   5.794  13.259  1.4748  1.8715 -0.6089
 7798TIP3   OH244808   2.813   4.853  17.282  0.0925  0.4629  0.4143
 7798TIP3    H144809   2.761   4.793  17.230 -1.7219  0.9231  1.5954
 7798TIP3    H244810   2.764   4.862  17.364  2.8622 -0.3391  2.2981
 7799TIP3   OH244811   0.213   3.679  10.811  0.1299 -0.5050 -0.3010
 7799TIP3    H144812   0.171   3.603  10.851 -0.5043  0.3716  0.7913
 7799TIP3    H244813   0.143   3.722  10.762  0.4751 -0.6069 -0.8846
 7800TIP3   OH244814   4.140   3.272   6.247  0.2008 -0.4043  0.0634
 7800TIP3    H144815   4.065   3.226   6.285 -0.3865 -0.1099 -0.7139
 7800TIP3    H244816   4.166   3.335   6.314  0.6269 -1.4230  0.8915
 7801TIP3   OH244817   3.698   0.545  14.578 -0.5067 -0.3739  0.3917
 7801TIP3    H144818   3.669   0.498  14.657 -0.5164 -0.7162  0.1854
 7801TIP3    H244819   3.620   0.593  14.549 -0.2485  0.5220  1.1339
 7802TIP3   OH244820   1.072   3.288   1.724 -0.1943  0.1264 -0.1315
 7802TIP3    H144821   1.080   3.378   1.694  0.4101  0.1574  0.1015
 7802TIP3    H244822   0.996   3.253   1.678 -0.1621  0.6199 -0.5599
 7803TIP3   OH244823   0.890   5.359   6.030 -0.1116  0.2265  0.0749
 7803TIP3    H144824   0.890   5.410   6.111  0.5912 -0.6632  0.6563
 7803TIP3    H244825   0.977   5.319   6.028  0.5285  1.5546 -1.9714
 7804TIP3   OH244826   4.830   4.849   5.175  0.3177  0.4671 -0.2514
 7804TIP3    H144827   4.782   4.929   5.198 -1.7483 -0.8206  0.2371
 7804TIP3    H244828   4.770   4.802   5.116  1.0308 -1.1641  0.2609
 7805TIP3   OH244829   5.663   4.171   2.985  0.1747 -0.1243  0.0940
 7805TIP3    H144830   5.669   4.266   2.983 -0.5223 -0.0830 -2.1937
 7805TIP3    H244831   5.707   4.146   3.066  2.8158  1.9736 -0.5758
 7806TIP3   OH244832   5.848   5.167   4.792 -0.2516  0.2619  0.9599
 7806TIP3    H144833   5.801   5.240   4.753 -1.1596  0.2565  1.9970
 7806TIP3    H244834   5.810   5.089   4.752  0.2452  0.3168  0.3602
 7807TIP3   OH244835   4.180   0.268   3.709 -0.2839 -0.5525 -0.2633
 7807TIP3    H144836   4.107   0.227   3.662 -0.2299  1.4763 -2.2917
 7807TIP3    H244837   4.258   0.235   3.666 -0.2502  1.9197 -2.3607
 7808TIP3   OH244838   6.468   5.549   0.618  0.6681 -0.3573  0.2503
 7808TIP3    H144839   6.430   5.463   0.635  0.6795 -0.0302  2.1364
 7808TIP3    H244840   6.435   5.604   0.689  1.3684  0.9778 -0.4191
 7809TIP3   OH244841   0.203   4.057   4.193  0.3668 -0.3429 -0.1377
 7809TIP3    H144842   0.160   3.972   4.180 -1.6533  0.9836 -3.6929
 7809TIP3    H244843   0.293   4.044   4.164  0.7989 -1.7369  1.6395
 7810TIP3   OH244844   3.336   1.437   0.686 -0.2265  0.4368 -0.3768
 7810TIP3    H144845   3.253   1.467   0.648 -1.1953 -1.9637 -0.3535
 7810TIP3    H244846   3.401   1.454   0.619 -1.1547  0.3455 -1.3230
 7811TIP3   OH244847   3.014   3.190  15.879 -1.1940  0.2013  0.3575
 7811TIP3    H144848   3.048   3.258  15.821  1.2573  0.1303  1.6005
 7811TIP3    H244849   2.950   3.235  15.934 -2.0750  0.7023 -1.0246
 7812TIP3   OH244850   4.425   1.028  14.671 -0.5773 -0.0442 -0.1055
 7812TIP3    H144851   4.443   1.085  14.596  0.4895 -1.3637 -0.8856
 7812TIP3    H244852   4.385   0.950  14.633  1.2375 -1.3192  0.4996
 7813TIP3   OH244853   6.647   5.078   4.153  0.1014  0.3924 -0.0564
 7813TIP3    H144854   6.733   5.115   4.133 -0.1147  0.9175 -0.0417
 7813TIP3    H244855   6.634   5.094   4.246 -0.4015  1.1714 -0.2436
 7814TIP3   OH244856   5.892   6.053   0.794 -0.2012  0.1042 -0.1579
 7814TIP3    H144857   5.979   6.056   0.833  0.2222 -0.5588 -1.0226
 7814TIP3    H244858   5.838   6.009   0.859  0.0630  0.6665  0.4543
 7815TIP3   OH244859   6.698   6.566  11.126 -0.1012  0.1606 -0.0884
 7815TIP3    H144860   6.629   6.576  11.061  0.2851  0.0263 -0.5294
 7815TIP3    H244861   6.726   6.475  11.118 -1.8278 -0.6430  2.0925
 7816TIP3   OH244862   2.300   5.667   6.339  0.2943 -0.9913 -0.2174
 7816TIP3    H144863   2.323   5.580   6.305  0.3348 -1.5311  1.1504
 7816TIP3    H244864   2.205   5.672   6.328  0.1738 -1.5706  0.4968
 7817TIP3   OH244865   1.548   4.094  10.042  0.4498  0.3286 -0.3539
 7817TIP3    H144866   1.627   4.041  10.029  0.2547  0.1780 -0.9300
 7817TIP3    H244867   1.573   4.156  10.111  1.1083  0.3523 -0.6056
 7818TIP3   OH244868   3.514   0.775  13.314 -0.3985 -0.3897 -0.0065
 7818TIP3    H144869   3.463   0.830  13.255 -0.5446 -0.6970 -0.1690
 7818TIP3    H244870   3.477   0.791  13.401 -0.8471 -0.6918 -0.1388
 7819TIP3   OH244871   3.006   5.821  13.923 -0.0850  0.1429  0.6808
 7819TIP3    H144872   2.942   5.875  13.877  0.4820  0.9070  0.7596
 7819TIP3    H244873   2.972   5.732  13.917 -1.3492  0.5719  1.0511
 7820TIP3   OH244874   6.190   1.961   5.187 -0.1435 -0.5745 -0.5348
 7820TIP3    H144875   6.126   2.019   5.146 -1.2373 -0.0764  1.7210
 7820TIP3    H244876   6.265   2.017   5.207 -0.3315 -0.4221 -0.2590
 7821TIP3   OH244877   1.794   6.339   6.041  0.5675 -0.4676 -0.3015
 7821TIP3    H144878   1.712   6.380   6.012 -0.4718 -0.6769  2.1426
 7821TIP3    H244879   1.832   6.304   5.960 -2.0083 -0.8140 -1.4844
 7822TIP3   OH244880   6.089   0.768   1.600  0.4646  0.3389 -0.1750
 7822TIP3    H144881   6.050   0.700   1.546  0.6823  0.6726 -0.7592
 7822TIP3    H244882   6.036   0.846   1.581  0.8030  0.5581 -0.2287
 7823TIP3   OH244883   6.150   4.480  13.917  0.1895  0.0311 -0.0752
 7823TIP3    H144884   6.140   4.573  13.934 -1.8438 -0.4884  2.0653
 7823TIP3    H244885   6.065   4.442  13.937  1.5107 -2.5572  1.1656
 7824TIP3   OH244886   2.690   6.008  12.907 -0.0412 -0.0255  0.2831
 7824TIP3    H144887   2.718   6.088  12.861 -0.0811 -0.2998 -0.2198
 7824TIP3    H244888   2.767   5.981  12.956 -0.2170  0.6807  0.9735
 7825TIP3   OH244889   0.216   6.605  13.245  0.2604 -0.0133 -0.8363
 7825TIP3    H144890   0.188   6.632  13.157  2.8161  0.4375 -1.5789
 7825TIP3    H244891   0.177   6.671  13.303  1.3540  1.7359 -2.0166
 7826TIP3   OH244892   5.354   3.297  12.807  0.2246  0.1525 -0.2829
 7826TIP3    H144893   5.412   3.225  12.783  2.6541  1.0867  2.3645
 7826TIP3    H244894   5.276   3.254  12.842  0.6285 -1.1387 -0.8885
 7827TIP3   OH244895   1.328   4.679  14.321 -0.0831  0.0926  0.5603
 7827TIP3    H144896   1.313   4.682  14.416  2.1131  1.1772  0.9144
 7827TIP3    H244897   1.422   4.670  14.311 -0.3715 -1.7401 -1.5572
 7828TIP3   OH244898   6.661   0.277  17.247  0.2829  0.5407  0.3987
 7828TIP3    H144899   6.731   0.300  17.308  2.3570 -0.2042 -1.5547
 7828TIP3    H244900   6.699   0.208  17.193 -1.9501  0.2182 -0.8407
 7829TIP3   OH244901   1.070   1.677   3.220 -0.1506 -0.2309 -0.4242
 7829TIP3    H144902   1.062   1.735   3.296  0.4862 -0.7386  0.0400
 7829TIP3    H244903   0.980   1.653   3.199 -0.4333  1.0031 -0.6890
 7830TIP3   OH244904   0.250   1.236   4.045 -0.0190  0.2748  0.0293
 7830TIP3    H144905   0.286   1.149   4.061 -2.4020 -0.5342  1.6791
 7830TIP3    H244906   0.324   1.295   4.059  1.6580 -1.4357 -1.1104
 7831TIP3   OH244907   0.599   1.949  11.654 -0.2721 -0.2333 -0.2952
 7831TIP3    H144908   0.553   1.970  11.735 -1.9732  0.4177 -1.3972
 7831TIP3    H244909   0.624   1.857  11.665  1.5199  0.4039  1.8604
 7832TIP3   OH244910   6.669   2.799   0.547  0.3066  0.5352 -0.5374
 7832TIP3    H144911   6.709   2.809   0.634  0.0835  0.7733 -0.4635
 7832TIP3    H244912   6.636   2.709   0.546  5.0026 -1.5278 -2.2886
 7833TIP3   OH244913   4.270   5.414   0.271 -0.1240  0.9542 -0.3336
 7833TIP3    H144914   4.338   5.401   0.336 -1.3886  0.3809  0.9346
 7833TIP3    H244915   4.309   5.472   0.206  0.9469  2.1874  1.3376
 7834TIP3   OH244916   2.524   2.886   1.277 -0.0068 -0.3072  0.0392
 7834TIP3    H144917   2.550   2.854   1.191  0.6958  0.5788 -0.0927
 7834TIP3    H244918   2.478   2.812   1.317 -0.2982 -0.7496 -1.0670
 7835TIP3   OH244919   4.368   2.307   1.550 -0.2078  0.0561  0.4354
 7835TIP3    H144920   4.457   2.275   1.536 -0.3118 -0.0940  0.0951
 7835TIP3    H244921   4.367   2.336   1.641  0.4815  1.0369  0.1410
 7836TIP3   OH244922   4.636   5.629   5.742  0.5875  0.7516 -0.2538
 7836TIP3    H144923   4.641   5.681   5.662 -0.3166  0.6467 -0.3884
 7836TIP3    H244924   4.715   5.653   5.791  0.2370  2.1981 -0.3485
 7837TIP3   OH244925   2.204   1.579  16.493 -0.3834 -0.1482 -0.1821
 7837TIP3    H144926   2.120   1.623  16.507 -0.4040 -0.4267  0.6023
 7837TIP3    H244927   2.181   1.493  16.458 -0.4760 -0.5276  0.7767
 7838TIP3   OH244928   3.718   5.695   3.732 -0.2297  0.6918 -0.3636
 7838TIP3    H144929   3.813   5.702   3.743 -0.2020  0.3515 -0.3891
 7838TIP3    H244930   3.693   5.618   3.783 -0.2060 -0.4301 -1.9809
 7839TIP3   OH244931   5.008   5.911  11.765 -0.3232  0.6187  0.4636
 7839TIP3    H144932   5.019   5.955  11.850  0.4382  0.6425  0.3607
 7839TIP3    H244933   5.058   5.965  11.704 -0.0624  0.0654  0.1805
 7840TIP3   OH244934   2.168   3.807  13.569  0.2731  0.0286 -0.2582
 7840TIP3    H144935   2.082   3.801  13.610 -1.0637 -1.9417 -3.0562
 7840TIP3    H244936   2.167   3.889  13.521 -0.9082 -0.9276 -1.9353
 7841TIP3   OH244937   0.713   1.383   6.657  0.7432 -0.3719  0.0799
 7841TIP3    H144938   0.752   1.457   6.704  3.9848 -0.2696 -2.4468
 7841TIP3    H244939   0.740   1.306   6.707 -0.7670 -0.0726  1.4685
 7842TIP3   OH244940   1.248   0.961   5.330 -0.5988 -0.4550 -0.4555
 7842TIP3    H144941   1.166   0.912   5.331 -1.5240  0.9646  1.5384
 7842TIP3    H244942   1.267   0.976   5.423  0.3256  1.7430 -0.9430
 7843TIP3   OH244943   2.855   5.376  14.822  0.0845 -0.7262 -0.5000
 7843TIP3    H144944   2.890   5.461  14.849 -0.0180 -0.2514 -1.7856
 7843TIP3    H244945   2.831   5.333  14.904 -1.3055  1.0986  0.1060
 7844TIP3   OH244946   1.005   1.411   0.602 -0.5829 -0.6387  0.2326
 7844TIP3    H144947   0.945   1.346   0.566 -0.2133 -0.4134 -0.8058
 7844TIP3    H244948   1.058   1.363   0.666 -1.4862 -0.9588  0.7535
 7845TIP3   OH244949   1.755   5.275   2.757  0.4300 -0.5886 -0.6645
 7845TIP3    H144950   1.719   5.309   2.839  1.6321 -1.0016  0.0768
 7845TIP3    H244951   1.683   5.281   2.694  0.2220  2.1986 -0.3001
 7846TIP3   OH244952   1.718   1.590  14.873  0.4769  0.2219  0.7066
 7846TIP3    H144953   1.812   1.594  14.851  0.3408 -2.9688 -1.0848
 7846TIP3    H244954   1.675   1.636  14.801  0.5930  0.8104  1.0051
 7847TIP3   OH244955   5.553   6.584   3.156  0.6840  0.1049  0.6557
 7847TIP3    H144956   5.621   6.519   3.177  1.9352  0.9461 -0.6060
 7847TIP3    H244957   5.600   6.667   3.155 -1.0929  1.2728  3.3598
 7848TIP3   OH244958   4.189   0.792  13.472  0.1031  0.3391 -0.4640
 7848TIP3    H144959   4.171   0.861  13.408  1.1603  1.4413  0.3798
 7848TIP3    H244960   4.140   0.819  13.550  0.8570  0.3712  0.0052
 7849TIP3   OH244961   0.501   0.209  12.547 -0.2590 -0.2363 -0.0178
 7849TIP3    H144962   0.531   0.251  12.467 -0.2362  2.1053  1.1135
 7849TIP3    H244963   0.432   0.149  12.519  2.2655 -2.3805 -2.1444
 7850TIP3   OH244964   6.209   5.267   1.014  0.3229 -0.3686 -0.2960
 7850TIP3    H144965   6.239   5.182   1.046 -2.1895 -0.7346  1.3664
 7850TIP3    H244966   6.120   5.251   0.982 -0.6904  1.8223  1.1983
 7851TIP3   OH244967   4.904   4.988   5.665  0.0085  0.4336 -0.3353
 7851TIP3    H144968   4.816   5.025   5.674  0.0972  0.8866 -1.2776
 7851TIP3    H244969   4.951   5.020   5.742 -0.0011  2.0772 -0.9899
 7852TIP3   OH244970   3.903   0.756   3.937 -0.4198 -0.4878  0.6624
 7852TIP3    H144971   3.993   0.757   3.904  0.3598 -1.9599  2.5596
 7852TIP3    H244972   3.878   0.848   3.944  0.7530 -0.0729 -0.2988
 7853TIP3   OH244973   6.536   0.169   3.128 -0.4114 -0.8256 -0.0312
 7853TIP3    H144974   6.543   0.150   3.222  1.7203  0.9413  0.2556
 7853TIP3    H244975   6.606   0.117   3.088 -0.1562 -0.2035 -0.3959
 7854TIP3   OH244976   5.113   3.683  15.630 -0.3912  0.0242  0.3886
 7854TIP3    H144977   5.155   3.693  15.544  0.6914 -0.3469  0.8641
 7854TIP3    H244978   5.175   3.633  15.682 -0.7423  0.8034  1.6063
 7855TIP3   OH244979   1.019   5.461   0.874  0.3926 -0.2957  0.1455
 7855TIP3    H144980   0.923   5.462   0.871  0.3485  0.7761  1.2803
 7855TIP3    H244981   1.045   5.549   0.846  0.8898  0.5100  2.8299
 7856TIP3   OH244982   2.886   4.001   3.405  0.1634  0.0319 -0.2351
 7856TIP3    H144983   2.916   3.932   3.464  1.6067  0.7039 -0.1324
 7856TIP3    H244984   2.889   3.961   3.318  1.4437  0.0814 -0.2317
 7857TIP3   OH244985   5.257   3.751  14.845  0.4876 -0.3831 -0.6376
 7857TIP3    H144986   5.313   3.826  14.823 -1.6736  1.7888  0.7524
 7857TIP3    H244987   5.209   3.779  14.923 -2.3836 -2.1408 -1.6207
 7858TIP3   OH244988   0.426   2.657  12.610 -0.3994 -0.5069  0.3695
 7858TIP3    H144989   0.521   2.669  12.606  0.1251 -3.9471 -0.6765
 7858TIP3    H244990   0.396   2.673  12.521 -0.8646  0.6104  0.7081
 7859TIP3   OH244991   4.990   2.509  13.380 -0.3446  0.1396 -0.0469
 7859TIP3    H144992   5.034   2.486  13.462 -2.4277 -0.3037  1.0108
 7859TIP3    H244993   4.917   2.448  13.373 -0.3218  0.2801 -2.1793
 7860TIP3   OH244994   6.195   4.010  14.648  0.2496  0.1228  0.6929
 7860TIP3    H144995   6.216   3.956  14.572  0.4994  0.2211  0.6926
 7860TIP3    H244996   6.126   3.961  14.694  0.9622 -0.5515  1.0765
 7861TIP3   OH244997   0.413   3.516   3.117 -0.2729 -0.4007  0.5031
 7861TIP3    H144998   0.338   3.494   3.062  0.6600  0.3783 -1.1706
 7861TIP3    H244999   0.477   3.446   3.100 -0.3108 -0.6331  1.2962
 7862TIP3   OH245000   6.686   5.908   5.946  0.3844 -0.4269  0.2759
 7862TIP3    H145001   6.599   5.941   5.925  0.4700 -0.7558 -0.6475
 7862TIP3    H245002   6.687   5.902   6.042 -0.2547  0.5005  0.3508
 7863TIP3   OH245003   5.258   5.001  14.623  0.4606 -0.5533  0.1126
 7863TIP3    H145004   5.280   5.069  14.686  0.1416 -0.5399  0.2111
 7863TIP3    H245005   5.232   4.926  14.676  0.0095 -0.4802 -0.0021
 7864TIP3   OH245006   3.331   5.441   3.311 -0.1066 -0.3248 -0.4978
 7864TIP3    H145007   3.377   5.496   3.374 -1.8373 -0.2588  0.7919
 7864TIP3    H245008   3.289   5.503   3.252 -0.0112 -0.3280 -0.5682
 7865TIP3   OH245009   0.138   3.250   3.628  0.0614  0.1398 -0.3924
 7865TIP3    H145010   0.200   3.261   3.700 -2.1455  1.3218  1.4360
 7865TIP3    H245011   0.129   3.155   3.618  1.0279 -0.0389  0.2883
 7866TIP3   OH245012   4.241   3.762  12.939 -0.8322  0.1448  0.4876
 7866TIP3    H145013   4.257   3.684  12.993  1.0293  0.6685  0.7661
 7866TIP3    H245014   4.316   3.765  12.879 -1.1662  1.4122  0.1188
 7867TIP3   OH245015   4.844   1.330   3.455  0.4079  0.4148  0.3285
 7867TIP3    H145016   4.872   1.300   3.369  0.8594  2.5043 -0.3250
 7867TIP3    H245017   4.795   1.257   3.492 -1.2569  0.0441 -2.3774
 7868TIP3   OH245018   1.043   6.369  16.263  0.4812 -0.3951 -0.0640
 7868TIP3    H145019   0.968   6.363  16.322 -0.0723  0.2939 -0.6735
 7868TIP3    H245020   1.015   6.324  16.184  0.7981 -0.3297 -0.2131
 7869TIP3   OH245021   4.556   4.266   4.550 -0.2451  0.4728 -0.1957
 7869TIP3    H145022   4.484   4.268   4.486  0.2942  3.4852 -0.8446
 7869TIP3    H245023   4.514   4.281   4.634 -0.6093 -0.3590 -0.2140
 7870TIP3   OH245024   1.419   6.039   2.125 -0.4302 -0.2544 -0.0691
 7870TIP3    H145025   1.365   6.033   2.204 -0.5138 -0.7445 -0.1562
 7870TIP3    H245026   1.393   6.122   2.085 -0.3243  0.0375  0.4582
 7871TIP3   OH245027   1.842   1.713   2.195 -0.5933 -0.0244  0.1056
 7871TIP3    H145028   1.804   1.665   2.122 -1.2323 -0.8780  0.9597
 7871TIP3    H245029   1.839   1.805   2.169 -0.1141 -0.3711 -1.2283
 7872TIP3   OH245030   5.309   2.253   5.480  0.0204  0.7404  0.0712
 7872TIP3    H145031   5.236   2.194   5.461 -0.0659  0.8637  0.0196
 7872TIP3    H245032   5.384   2.216   5.434  0.2967 -0.1057  1.1627
 7873TIP3   OH245033   6.236   3.404   4.092  0.1847 -0.6421 -0.0741
 7873TIP3    H145034   6.147   3.394   4.059 -0.2856 -0.7437  1.1705
 7873TIP3    H245035   6.281   3.324   4.065 -0.2312 -0.8071 -0.2879
 7874TIP3   OH245036   0.628   0.603  15.750 -0.3223 -0.2235  0.1909
 7874TIP3    H145037   0.552   0.658  15.770  0.8918  1.6457 -0.1685
 7874TIP3    H245038   0.642   0.551  15.830 -0.8650  0.7420  0.9258
 7875TIP3   OH245039   1.049   2.037   0.691 -0.1391 -0.6134  0.1686
 7875TIP3    H145040   1.097   1.980   0.631  0.9457 -1.2909  1.6253
 7875TIP3    H245041   1.017   2.108   0.635 -0.8739 -2.2026 -1.5599
 7876TIP3   OH245042   5.096   2.101  16.347  0.5463  0.1248 -0.1623
 7876TIP3    H145043   5.046   2.174  16.383 -0.5082 -0.5382 -0.2167
 7876TIP3    H245044   5.029   2.037  16.322  1.4658 -1.0915  0.3947
 7877TIP3   OH245045   3.343   1.652  12.051 -0.0603  0.1178  0.2378
 7877TIP3    H145046   3.412   1.623  11.991 -0.2397  0.3396 -0.0853
 7877TIP3    H245047   3.387   1.711  12.112  0.5263 -1.6323  1.5760
 7878TIP3   OH245048   4.708   2.298   3.332 -0.8530 -0.2890  0.2228
 7878TIP3    H145049   4.762   2.282   3.410 -2.3110 -1.4067  1.0420
 7878TIP3    H245050   4.713   2.392   3.319  2.4007 -0.4606 -0.5747
 7879TIP3   OH245051   4.468   4.139  14.355 -0.0772 -0.4519 -0.1737
 7879TIP3    H145052   4.468   4.217  14.411 -0.9627 -2.3956  2.7284
 7879TIP3    H245053   4.560   4.114  14.349  0.0045 -0.4065  0.7512
 7880TIP3   OH245054   3.606   0.295  14.663  0.0606 -0.2965  0.0294
 7880TIP3    H145055   3.645   0.326  14.581  1.0732  0.7491  0.8686
 7880TIP3    H245056   3.681   0.268  14.716 -0.5909 -1.0032  0.6103
 7881TIP3   OH245057   2.410   4.349   5.177 -0.6124  0.5100 -0.1903
 7881TIP3    H145058   2.476   4.412   5.207  2.8128 -2.5627 -0.5638
 7881TIP3    H245059   2.353   4.399   5.119  0.1816  3.7989  1.6422
 7882TIP3   OH245060   1.529   3.066  16.416 -0.0064 -0.2084 -0.1115
 7882TIP3    H145061   1.446   3.105  16.388  0.6020  0.4672 -1.0333
 7882TIP3    H245062   1.566   3.026  16.337  1.3532  1.0216 -0.1488
 7883TIP3   OH245063   1.235   4.068   1.941  0.1189 -0.2725  0.0039
 7883TIP3    H145064   1.318   4.048   1.983 -0.5809 -2.0057  0.6560
 7883TIP3    H245065   1.193   3.983   1.929 -1.5275  0.5535 -0.3807
 7884TIP3   OH245066   2.978   5.405  12.813  0.1146 -0.3842 -0.2361
 7884TIP3    H145067   2.933   5.320  12.816 -0.9171  0.1521 -0.0372
 7884TIP3    H245068   3.067   5.386  12.843 -0.3243 -1.2637  0.5877
 7885TIP3   OH245069   3.321   4.518  17.252 -0.0474  0.1100  0.6655
 7885TIP3    H145070   3.297   4.426  17.252 -0.7009  0.2584 -0.2907
 7885TIP3    H245071   3.277   4.554  17.175 -2.0320  1.8142  2.4693
 7886TIP3   OH245072   1.398   5.156  13.244  0.0167  0.0662  0.0959
 7886TIP3    H145073   1.369   5.247  13.242  1.8016  0.7109  1.3149
 7886TIP3    H245074   1.441   5.143  13.159 -0.1160  0.4005 -0.0253
 7887TIP3   OH245075   3.486   6.461   2.901 -0.7060  0.4961  0.2175
 7887TIP3    H145076   3.575   6.448   2.934 -0.8848  0.1885  0.5934
 7887TIP3    H245077   3.431   6.464   2.980 -1.1904 -0.6143 -0.0489
 7888TIP3   OH245078   5.967   5.120   0.954 -0.1708 -0.2301 -1.0975
 7888TIP3    H145079   5.954   5.038   1.001  1.7499  0.6627  1.1868
 7888TIP3    H245080   5.969   5.095   0.862  1.3489 -2.9301 -0.4357
 7889TIP3   OH245081   2.065   0.095  14.451  0.7734 -0.3288  0.1508
 7889TIP3    H145082   2.053   0.083  14.546  1.9198 -2.6747  0.0703
 7889TIP3    H245083   2.152   0.060  14.434  0.2733 -0.6722 -1.8930
 7890TIP3   OH245084   4.343   4.036   2.353  0.3386  0.2519  0.0503
 7890TIP3    H145085   4.300   4.112   2.314 -1.9281  0.0149  1.8244
 7890TIP3    H245086   4.277   4.000   2.413  1.1797 -3.2983 -0.9236
 7891TIP3   OH245087   1.033   6.154  14.414  0.2830  0.5835 -0.3639
 7891TIP3    H145088   1.118   6.144  14.372  0.7308 -1.4112  0.8741
 7891TIP3    H245089   1.053   6.180  14.504 -0.5860  3.0159 -0.8004
 7892TIP3   OH245090   6.310   0.395   5.751  0.2521  0.4640 -0.0895
 7892TIP3    H145091   6.338   0.466   5.809  0.6066  0.1396  0.1388
 7892TIP3    H245092   6.374   0.395   5.680  1.4399 -0.9064  0.9285
 7893TIP3   OH245093   6.182   3.140   5.324  0.5912 -0.2543  0.3145
 7893TIP3    H145094   6.172   3.049   5.294 -0.5588 -0.2883  0.7541
 7893TIP3    H245095   6.253   3.175   5.270 -0.6915 -0.6286 -1.7270
 7894TIP3   OH245096   6.319   4.833  15.440 -0.1247 -0.0597  0.8015
 7894TIP3    H145097   6.279   4.918  15.423 -0.3942 -0.4823 -0.8733
 7894TIP3    H245098   6.348   4.837  15.531  0.5518  2.0892  0.5367
 7895TIP3   OH245099   3.697   4.076  16.771  0.2754  0.4542 -0.3133
 7895TIP3    H145100   3.792   4.075  16.758  0.2351 -0.4185 -0.5674
 7895TIP3    H245101   3.685   4.124  16.853  1.0594 -0.9146  0.6307
 7896TIP3   OH245102   5.387   2.237  13.284 -0.4569 -0.0279 -0.7809
 7896TIP3    H145103   5.334   2.282  13.218 -0.3355 -1.5979 -2.0021
 7896TIP3    H245104   5.475   2.236  13.248 -0.2562 -0.3611 -0.2946
 7897TIP3   OH245105   6.273   1.986  14.048 -0.3173  0.3503  0.1639
 7897TIP3    H145106   6.252   1.933  13.971 -0.7603  1.0699 -0.2298
 7897TIP3    H245107   6.361   1.958  14.073  0.1748  0.6648 -1.1096
 7898TIP3   OH245108   6.764   5.437   3.017  0.6646 -0.5048 -0.3486
 7898TIP3    H145109   6.736   5.498   2.948  1.5813 -0.1743 -0.4387
 7898TIP3    H245110   6.815   5.370   2.971  1.2146 -0.3272 -0.0008
 7899TIP3   OH245111   1.169   5.440  13.949  0.1121  0.1952 -0.1931
 7899TIP3    H145112   1.244   5.404  13.997 -0.4103  0.5288  0.9029
 7899TIP3    H245113   1.203   5.458  13.861  1.4584  0.8184  0.4256
 7900TIP3   OH245114   0.980   2.452  12.753  0.2432 -0.1516 -0.0809
 7900TIP3    H145115   0.998   2.481  12.843  1.5009 -0.5637 -0.1801
 7900TIP3    H245116   0.978   2.356  12.760  2.0730 -0.2696 -0.7704
 7901TIP3   OH245117   5.706   5.460  13.236 -0.9690  0.2417  0.6676
 7901TIP3    H145118   5.650   5.536  13.250  1.2548  2.2093 -0.5328
 7901TIP3    H245119   5.738   5.437  13.323 -2.6142 -0.1771  1.2068
 7902TIP3   OH245120   3.138   1.785   0.560  0.1023 -0.0729  0.3233
 7902TIP3    H145121   3.116   1.693   0.546  2.6435 -0.8747  1.0998
 7902TIP3    H245122   3.213   1.801   0.503  0.6968  1.0589  1.3714
 7903TIP3   OH245123   6.039   6.679   1.335 -0.0529 -0.2279  0.5775
 7903TIP3    H145124   6.012   6.719   1.252 -0.8849  0.3085  1.0820
 7903TIP3    H245125   6.015   6.744   1.401  0.3883 -0.7442  1.2626
 7904TIP3   OH245126   1.052   6.152  15.587  0.6488 -0.6879  0.5457
 7904TIP3    H145127   1.118   6.132  15.520  0.1176  1.3200 -0.6517
 7904TIP3    H245128   1.101   6.197  15.655  0.4618  1.6634 -0.7720
 7905TIP3   OH245129   2.196   0.011   5.840 -0.4657 -0.3730 -0.0662
 7905TIP3    H145130   2.226   0.071   5.909  0.0951  0.3340 -0.9038
 7905TIP3    H245131   2.153   0.068   5.776 -2.6054 -1.2268  0.5346
 7906TIP3   OH245132   6.627   6.747  14.323 -0.5012  0.1891  0.2742
 7906TIP3    H145133   6.532   6.751  14.335 -0.6057 -0.6816 -0.1934
 7906TIP3    H245134   6.649   6.654  14.331  0.4664  0.4847  1.4166
 7907TIP3   OH245135   5.414   0.634   4.168 -0.1367 -0.2495 -0.4487
 7907TIP3    H145136   5.375   0.549   4.187 -0.1352 -0.4107 -1.1513
 7907TIP3    H245137   5.363   0.668   4.095 -2.0034  1.6484  1.5889
 7908TIP3   OH245138   0.747   0.827   6.033 -0.9058  0.3100  0.3790
 7908TIP3    H145139   0.838   0.800   6.044 -0.7665 -0.0200 -1.3190
 7908TIP3    H245140   0.707   0.813   6.119  0.1234 -1.5780  0.6046
 7909TIP3   OH245141   6.756   2.148   5.431 -0.2908 -0.0168 -0.3184
 7909TIP3    H145142   6.802   2.094   5.366  0.8706  0.2628  0.2465
 7909TIP3    H245143   6.811   2.143   5.509 -0.8338  0.9637  0.1415
 7910TIP3   OH245144   4.106   5.955   2.250  0.2227  0.3224 -0.2760
 7910TIP3    H145145   4.054   5.894   2.302  0.5060 -0.6069 -1.0351
 7910TIP3    H245146   4.068   5.949   2.162  0.5040  0.9589 -0.4421
 7911TIP3   OH245147   0.253   5.791   5.594 -0.7083 -0.4465 -0.1976
 7911TIP3    H145148   0.195   5.723   5.629 -1.1600 -0.7104 -1.4002
 7911TIP3    H245149   0.293   5.751   5.517  2.0398 -0.6974  1.2466
 7912TIP3   OH245150   6.756   4.716  12.135  0.0370 -0.1553  0.2997
 7912TIP3    H145151   6.787   4.627  12.119  0.4252 -0.2703  1.5853
 7912TIP3    H245152   6.695   4.733  12.063  0.9360 -0.9727 -0.6971
 7913TIP3   OH245153   3.104   5.750   5.676 -0.2505  0.1663  0.1632
 7913TIP3    H145154   3.138   5.738   5.764  0.5280 -0.2219 -0.1765
 7913TIP3    H245155   3.126   5.840   5.654  1.5720 -0.3624 -0.4372
 7914TIP3   OH245156   6.046   6.552  16.826 -0.3245 -0.0736 -0.0730
 7914TIP3    H145157   6.057   6.615  16.755  1.5102  1.4723  1.4692
 7914TIP3    H245158   5.994   6.598  16.891 -0.9689 -1.0385  0.1084
 7915TIP3   OH245159   0.195   1.149   0.067 -0.6341  0.4211  0.1477
 7915TIP3    H145160   0.255   1.076   0.052 -0.1554  0.8961 -0.2726
 7915TIP3    H245161   0.114   1.108   0.098 -0.6442 -0.3480 -0.8613
 7916TIP3   OH245162   1.878   0.168   6.102 -0.4128 -0.3142 -0.0393
 7916TIP3    H145163   1.889   0.136   6.192  1.2189 -0.8501 -0.3973
 7916TIP3    H245164   1.897   0.091   6.047  0.3370  0.4345 -0.8567
 7917TIP3   OH245165   1.037   1.444  16.980  0.4859  0.5794 -0.1556
 7917TIP3    H145166   1.058   1.438  17.073 -0.0627  0.8046 -0.0123
 7917TIP3    H245167   0.942   1.431  16.976  0.5330  0.3884 -0.7016
 7918TIP3   OH245168   6.119   4.793   0.848 -0.1248 -0.4764 -0.0618
 7918TIP3    H145169   6.206   4.827   0.866  0.4427 -0.6740 -2.1383
 7918TIP3    H245170   6.077   4.861   0.796 -0.3309 -1.3552 -1.0870
 7919TIP3   OH245171   5.172   5.385   1.730  0.3655  0.4136 -0.4599
 7919TIP3    H145172   5.207   5.379   1.642 -1.1180  0.1248 -1.0579
 7919TIP3    H245173   5.153   5.478   1.742  2.0886  0.7189  0.2061
 7920TIP3   OH245174   3.913   4.470  15.700 -0.3610 -0.1306 -0.5347
 7920TIP3    H145175   3.993   4.429  15.732 -1.2491 -2.8234 -1.4841
 7920TIP3    H245176   3.868   4.499  15.779  1.6698  1.8741 -0.0070
 7921TIP3   OH245177   0.525   0.928   2.089 -0.5420  0.1153  0.3556
 7921TIP3    H145178   0.480   0.848   2.116 -1.6774  1.0941  1.5203
 7921TIP3    H245179   0.465   0.998   2.114  0.3703  1.3371 -0.7485
 7922TIP3   OH245180   3.409   2.572   1.318  0.1459 -0.4302 -0.2876
 7922TIP3    H145181   3.360   2.534   1.245 -0.1459 -1.3323  0.3624
 7922TIP3    H245182   3.498   2.580   1.286  0.1303 -1.3040 -0.5821
 7923TIP3   OH245183   1.351   5.395  11.411  0.5265 -0.1333 -0.8794
 7923TIP3    H145184   1.443   5.383  11.434  1.2881  2.8675 -1.9031
 7923TIP3    H245185   1.347   5.373  11.318  0.1128 -0.6295 -0.7458
 7924TIP3   OH245186   0.603   5.652   2.675  0.3396  0.6820  0.1883
 7924TIP3    H145187   0.672   5.605   2.723  1.5021  2.1303 -0.0029
 7924TIP3    H245188   0.543   5.583   2.647  1.0559 -0.4966  1.4115
 7925TIP3   OH245189   1.106   2.055   3.117  0.3262  0.0642 -0.0286
 7925TIP3    H145190   1.123   1.987   3.182 -0.2728 -0.5650 -0.5198
 7925TIP3    H245191   1.043   2.114   3.160 -0.9951 -1.0039 -0.4577
 7926TIP3   OH245192   4.012   3.179  15.819  0.0314 -0.2362  0.1212
 7926TIP3    H145193   3.986   3.112  15.882 -0.9403  0.2939  0.2937
 7926TIP3    H245194   3.944   3.246  15.825  1.1404  0.9260  0.1710
 7927TIP3   OH245195   6.272   3.257   6.574 -0.2545 -0.2815  0.0240
 7927TIP3    H145196   6.295   3.164   6.578 -1.3222 -0.5511  0.1660
 7927TIP3    H245197   6.353   3.301   6.547 -0.0917 -1.4030 -1.4368
 7928TIP3   OH245198   5.800   6.407  10.880  0.5388  0.0690 -0.1724
 7928TIP3    H145199   5.772   6.474  10.818  1.2883 -0.2634 -0.8870
 7928TIP3    H245200   5.764   6.436  10.964  2.7859  2.6855  0.0432
 7929TIP3   OH245201   4.841   5.758  17.307  0.2694 -0.0319  0.0519
 7929TIP3    H145202   4.859   5.787  17.397 -1.4931  1.0907  0.0915
 7929TIP3    H245203   4.861   5.835  17.253 -1.0579  0.1405 -0.2283
 7930TIP3   OH245204   2.252   4.573  13.281 -0.1746 -0.5080 -0.9147
 7930TIP3    H145205   2.199   4.647  13.311  0.3111 -0.9588  1.2352
 7930TIP3    H245206   2.315   4.559  13.352  0.0774 -2.6649 -1.5076
 7931TIP3   OH245207   4.674   2.831   5.524  0.5017  0.0054 -0.4354
 7931TIP3    H145208   4.643   2.824   5.434  0.8926 -1.0313 -0.5005
 7931TIP3    H245209   4.763   2.797   5.522  0.9284  1.0275  0.1389
 7932TIP3   OH245210   5.747   3.146   1.581 -0.8718  0.5922 -0.2464
 7932TIP3    H145211   5.665   3.163   1.626 -1.5758 -1.6663 -0.5394
 7932TIP3    H245212   5.755   3.050   1.581  1.9773  0.7450  0.1324
 7933TIP3   OH245213   2.204   1.038   5.138  0.0739  0.3304 -0.0567
 7933TIP3    H145214   2.182   1.071   5.225 -0.1773  1.1380 -0.4231
 7933TIP3    H245215   2.142   1.081   5.079  1.6975  1.5596 -0.9469
 7934TIP3   OH245216   5.203   1.284  16.964 -0.4590 -0.0564  0.4147
 7934TIP3    H145217   5.218   1.201  17.010  1.2713 -0.0133 -0.0027
 7934TIP3    H245218   5.172   1.258  16.877 -2.3978 -0.1696  1.0964
 7935TIP3   OH245219   4.463   3.102   3.475  0.1186 -0.3498  0.3694
 7935TIP3    H145220   4.530   3.159   3.512  0.2973 -0.8635  0.8624
 7935TIP3    H245221   4.434   3.146   3.396  1.8755 -0.6916 -0.5046
 7936TIP3   OH245222   1.104   1.934  14.426 -0.1316  0.0151 -0.2186
 7936TIP3    H145223   1.054   1.862  14.387 -1.5431 -0.9722  3.0963
 7936TIP3    H245224   1.192   1.897  14.439 -0.1009 -0.1751 -0.9077
 7937TIP3   OH245225   3.426   2.745  15.289 -0.6549 -0.0412 -0.1911
 7937TIP3    H145226   3.468   2.819  15.245  0.8092  0.1113  1.3453
 7937TIP3    H245227   3.332   2.766  15.287 -0.2738  1.9302  0.3041
 7938TIP3   OH245228   1.806   6.496   3.959 -0.8917  0.2372 -0.0927
 7938TIP3    H145229   1.798   6.551   3.881 -0.4562  0.6151  0.1207
 7938TIP3    H245230   1.796   6.558   4.032 -1.1059 -0.0827  0.1508
 7939TIP3   OH245231   6.209   2.472  11.429  0.0476  0.5956  0.0336
 7939TIP3    H145232   6.272   2.461  11.357 -0.8215  1.6567 -0.9218
 7939TIP3    H245233   6.260   2.513  11.499  0.6319  0.5869 -0.3796
 7940TIP3   OH245234   0.679   5.899  15.393 -0.6151 -0.0648  0.5292
 7940TIP3    H145235   0.710   5.976  15.441  1.0689 -1.6268  2.0988
 7940TIP3    H245236   0.674   5.830  15.458  0.2195 -1.8991 -1.2305
 7941TIP3   OH245237   1.983   3.042  11.902  0.2128 -0.4492  0.2371
 7941TIP3    H145238   2.040   3.060  11.977  1.0751 -0.8584 -0.2909
 7941TIP3    H245239   1.946   3.127  11.879 -0.0526 -0.3151  1.1108
 7942TIP3   OH245240   0.130   2.267   3.641  0.2260 -0.7628 -0.3668
 7942TIP3    H145241   0.167   2.325   3.574 -1.6039 -0.6075 -1.3030
 7942TIP3    H245242   0.037   2.291   3.644  0.3134 -0.4295  2.5930
 7943TIP3   OH245243   3.254   0.047   6.256  0.0491 -0.3597  0.4866
 7943TIP3    H145244   3.210  -0.038   6.247  1.3297 -1.0065 -0.0803
 7943TIP3    H245245   3.236   0.092   6.174  0.4847 -0.6620  0.2163
 7944TIP3   OH245246   2.069   0.015   4.971  0.3280  0.2865  0.0459
 7944TIP3    H145247   2.157   0.032   4.939 -0.2796  2.1923 -0.7849
 7944TIP3    H245248   2.069   0.051   5.060  0.0992  1.3394 -0.3643
 7945TIP3   OH245249   3.894   4.392   0.594  0.5765 -0.0606 -0.4668
 7945TIP3    H145250   3.989   4.402   0.585  0.6543 -1.8302 -2.3925
 7945TIP3    H245251   3.863   4.479   0.617  2.8985  0.0345  3.1148
 7946TIP3   OH245252   3.013   5.538   5.514 -0.2880  0.3051 -0.3177
 7946TIP3    H145253   3.075   5.476   5.551 -0.1609  0.0654 -0.9201
 7946TIP3    H245254   3.055   5.624   5.525 -0.6173  0.3388  0.8281
 7947TIP3   OH245255   1.352   1.329   4.937 -0.4091  0.3124 -0.7861
 7947TIP3    H145256   1.356   1.247   4.986  2.1691 -0.3177 -1.9077
 7947TIP3    H245257   1.362   1.397   5.005  0.7298 -0.4450 -0.1605
 7948TIP3   OH245258   2.691   2.994   3.021  0.7163 -0.0810  0.0302
 7948TIP3    H145259   2.770   3.044   3.042  0.7213  0.1502 -0.5311
 7948TIP3    H245260   2.710   2.905   3.052  1.0011  0.0894  0.3460
 7949TIP3   OH245261   4.763   6.397  12.748 -0.2845  0.4493  0.3836
 7949TIP3    H145262   4.717   6.467  12.794  0.5849  0.7994  0.7396
 7949TIP3    H245263   4.842   6.382  12.800  1.1364  1.3985 -1.3945
 7950TIP3   OH245264   0.324   4.959  12.569 -0.4903 -0.8364  0.5069
 7950TIP3    H145265   0.356   4.910  12.645  1.3899  2.2968  1.9666
 7950TIP3    H245266   0.235   4.985  12.593  1.0180  2.7210  3.3905
 7951TIP3   OH245267   6.427   2.598  16.551 -0.9530  0.5157  0.0070
 7951TIP3    H145268   6.390   2.561  16.471 -0.5410  1.0183 -0.4209
 7951TIP3    H245269   6.373   2.676  16.568 -0.9853  0.4579  0.1744
 7952TIP3   OH245270   3.960   5.320  12.553  0.1586 -0.4099  0.1517
 7952TIP3    H145271   3.920   5.317  12.466  0.2083 -0.0299  0.1110
 7952TIP3    H245272   3.918   5.249  12.601 -0.0647 -0.4547 -0.1037
 7953TIP3   OH245273   3.515   6.269  13.855  0.0168 -0.6423  0.4527
 7953TIP3    H145274   3.591   6.294  13.802  0.0065 -1.6205 -0.0422
 7953TIP3    H245275   3.551   6.255  13.943  0.3524 -0.8172  0.2885
 7954TIP3   OH245276   3.408   5.049   1.555  0.1682 -0.3931 -0.0748
 7954TIP3    H145277   3.324   5.004   1.558 -0.1698  0.2078 -0.2292
 7954TIP3    H245278   3.393   5.124   1.497  0.5504  0.2348  0.6088
 7955TIP3   OH245279   4.702   3.088   4.259  0.3768  0.1222  0.0858
 7955TIP3    H145280   4.749   3.009   4.231 -0.1030  0.3322 -1.4138
 7955TIP3    H245281   4.627   3.055   4.308  0.0435 -0.3780 -0.7356
 7956TIP3   OH245282   2.459   6.417  13.156 -0.2791  0.5846 -0.0250
 7956TIP3    H145283   2.467   6.337  13.103 -0.5959  1.3039 -1.1948
 7956TIP3    H245284   2.485   6.390  13.244  1.3625 -0.4037 -0.7591
 7957TIP3   OH245285   3.171   5.563  13.122  0.4482  0.6569  0.6449
 7957TIP3    H145286   3.079   5.539  13.115  0.1772  1.9947 -1.2016
 7957TIP3    H245287   3.218   5.479  13.122 -0.7098 -0.0041  0.1916
 7958TIP3   OH245288   4.765   3.341  12.409 -0.1653  0.0622 -0.0715
 7958TIP3    H145289   4.790   3.276  12.343 -1.3534  1.7050 -2.2765
 7958TIP3    H245290   4.826   3.414  12.396 -0.5856  0.5180  0.4527
 7959TIP3   OH245291   5.785   4.822  17.048 -0.2479 -0.3948  0.2729
 7959TIP3    H145292   5.879   4.815  17.065 -0.0673  0.3445 -0.3141
 7959TIP3    H245293   5.744   4.818  17.134  0.5421  2.1101  0.8603
 7960TIP3   OH245294   5.909   1.195  11.224  0.3414 -0.1914 -0.1527
 7960TIP3    H145295   5.844   1.258  11.255  1.9911  0.7065  1.6759
 7960TIP3    H245296   5.860   1.138  11.165 -1.8784  0.9994  0.4113
 7961TIP3   OH245297   3.555   0.898   5.790  0.1487  0.0297 -0.4015
 7961TIP3    H145298   3.589   0.978   5.832 -0.1468  0.8958 -1.7429
 7961TIP3    H245299   3.596   0.826   5.838  1.0465  0.9995  0.3286
 7962TIP3   OH245300   3.680   5.381   5.976 -0.8892 -0.7872 -0.5510
 7962TIP3    H145301   3.745   5.448   5.994 -1.3270  0.0178 -1.8125
 7962TIP3    H245302   3.640   5.363   6.061 -1.0182  0.8279 -0.2422
 7963TIP3   OH245303   5.992   4.600   2.069  0.7658 -0.2197  0.4595
 7963TIP3    H145304   6.075   4.561   2.097 -0.1235 -0.5080  2.9675
 7963TIP3    H245305   5.993   4.592   1.974  3.4727 -0.4599  0.4306
 7964TIP3   OH245306   2.745   4.783   0.509  0.1083  0.0328  0.2613
 7964TIP3    H145307   2.768   4.727   0.434  1.7071 -0.0097  0.7370
 7964TIP3    H245308   2.721   4.722   0.578  0.7233 -0.0347  0.4236
 7965TIP3   OH245309   6.701   4.850   4.990 -0.1736 -0.2768 -0.2309
 7965TIP3    H145310   6.776   4.808   5.033  0.7213  1.0395 -0.4423
 7965TIP3    H245311   6.725   4.942   4.984 -1.4509  0.0313 -1.1002
 7966TIP3   OH245312   3.204   6.514   2.842 -0.4103  0.2444 -0.4606
 7966TIP3    H145313   3.185   6.549   2.929  0.1984 -2.9613  1.1244
 7966TIP3    H245314   3.299   6.508   2.839 -0.4740 -0.6690 -0.8899
 7967TIP3   OH245315   5.558   0.877   0.671 -0.3336  0.3853  0.3489
 7967TIP3    H145316   5.530   0.862   0.761  0.9389  0.7508  0.8261
 7967TIP3    H245317   5.637   0.823   0.661 -0.2895  0.5883 -0.4409
 7968TIP3   OH245318   5.177   3.057   1.716  0.0728  0.5553 -0.2919
 7968TIP3    H145319   5.209   3.101   1.638  0.9137  2.1559  0.8973
 7968TIP3    H245320   5.209   3.110   1.789 -0.3051 -1.1122  1.1752
 7969TIP3   OH245321   2.295   3.932  14.893  0.1933  0.3135 -0.2086
 7969TIP3    H145322   2.282   3.988  14.816  2.7355  1.3087 -0.0106
 7969TIP3    H245323   2.276   3.990  14.967 -1.8048 -0.5173 -0.0005
 7970TIP3   OH245324   0.061   0.329   2.624  0.7504  0.3776 -0.0458
 7970TIP3    H145325   0.018   0.409   2.597 -0.8565 -0.1849  0.6990
 7970TIP3    H245326   0.060   0.273   2.546  0.3944  0.4906 -0.1240
 7971TIP3   OH245327   2.175   0.559  13.079  0.0096  0.0403  0.0209
 7971TIP3    H145328   2.080   0.560  13.075  0.0579  0.2702 -1.6213
 7971TIP3    H245329   2.195   0.489  13.142 -1.2287  1.1240  1.7004
 7972TIP3   OH245330   0.624   2.529   1.150 -0.4975  0.5577  0.2530
 7972TIP3    H145331   0.561   2.558   1.084  1.3439  1.9674 -0.9637
 7972TIP3    H245332   0.675   2.461   1.106 -1.1419 -0.6108  1.2467
 7973TIP3   OH245333   3.656   1.765   3.798 -0.0756  0.2039  0.1264
 7973TIP3    H145334   3.564   1.762   3.772 -0.3549 -0.9496  1.1557
 7973TIP3    H245335   3.654   1.754   3.893  1.0045  2.4704  0.4861
 7974TIP3   OH245336   1.139   0.753   1.237 -0.0288 -0.1738 -0.0744
 7974TIP3    H145337   1.152   0.839   1.277 -0.3758 -0.1941  0.0839
 7974TIP3    H245338   1.145   0.692   1.309 -1.7285 -0.1296  0.1392
 7975TIP3   OH245339   4.151   6.534  12.377  1.0793 -0.4672  0.1730
 7975TIP3    H145340   4.127   6.508  12.288 -0.7081  1.5823 -0.0272
 7975TIP3    H245341   4.111   6.468  12.433 -0.9085  0.1912 -0.4177
 7976TIP3   OH245342   5.253   2.438   0.547  0.5504 -0.3092  0.0077
 7976TIP3    H145343   5.253   2.532   0.531 -3.8760  0.1724  1.3979
 7976TIP3    H245344   5.210   2.401   0.470 -0.6314 -0.7120  0.8289
 7977TIP3   OH245345   4.750   6.713   0.307  0.4554  0.3459 -0.8185
 7977TIP3    H145346   4.691   6.742   0.237 -0.3004 -0.1464 -0.4071
 7977TIP3    H245347   4.750   6.786   0.369 -1.4627 -0.4446  0.2268
 7978TIP3   OH245348   0.615   1.851   4.216  0.2387 -0.3993  0.0433
 7978TIP3    H145349   0.524   1.880   4.219 -0.4445 -2.0900 -2.0270
 7978TIP3    H245350   0.665   1.928   4.245 -1.8242  0.3461  1.9498
 7979TIP3   OH245351   3.040   5.501  12.160 -0.0508  0.1405  0.2639
 7979TIP3    H145352   2.959   5.537  12.125 -0.9561 -1.7774  0.2972
 7979TIP3    H245353   3.024   5.491  12.253  0.0722 -0.5960  0.2138
 7980TIP3   OH245354   6.070   6.763   4.101  0.1210  0.1359  0.2657
 7980TIP3    H145355   6.081   6.805   4.186  2.0278  1.5377 -0.6007
 7980TIP3    H245356   6.158   6.739   4.074 -0.3383  0.4197 -1.6588
 7981TIP3   OH245357   1.947   6.351   0.232 -0.4662 -0.3898 -0.5421
 7981TIP3    H145358   1.999   6.320   0.159  0.3465  0.0346 -0.1504
 7981TIP3    H245359   1.932   6.444   0.213 -1.1637 -0.5271 -0.6964
 7982TIP3   OH245360   0.765   6.333  15.795 -0.0734 -0.0404 -0.8552
 7982TIP3    H145361   0.799   6.249  15.826  0.7870  1.1418  1.7210
 7982TIP3    H245362   0.838   6.371  15.745  0.1491 -0.1476 -0.6162
 7983TIP3   OH245363   3.958   2.423   2.703 -0.2075  0.2426  0.0516
 7983TIP3    H145364   4.037   2.404   2.653 -0.3259 -0.4835  0.1291
 7983TIP3    H245365   3.983   2.408   2.794 -0.2555  0.6503  0.1356
 7984TIP3   OH245366   5.299   4.011  16.967  0.2541 -0.1530  0.1370
 7984TIP3    H145367   5.291   4.071  16.893 -1.3513  0.4414  0.7434
 7984TIP3    H245368   5.218   4.023  17.016  1.6605  0.2019  2.5385
 7985TIP3   OH245369   4.463   4.867  15.122 -0.2151 -0.3818  0.0276
 7985TIP3    H145370   4.541   4.892  15.172  1.4879 -0.5366 -2.3601
 7985TIP3    H245371   4.423   4.950  15.097  0.5529 -0.2116 -0.6886
 7986TIP3   OH245372   3.151   5.387   0.397 -0.2547 -0.2329 -0.2887
 7986TIP3    H145373   3.173   5.301   0.434  1.0310  0.4980  0.7294
 7986TIP3    H245374   3.216   5.400   0.328 -0.7853 -0.3008 -0.8077
 7987TIP3   OH245375   0.305   5.871  12.567 -0.3036 -0.2058 -0.0131
 7987TIP3    H145376   0.235   5.936  12.577 -1.0055 -0.6839 -1.4215
 7987TIP3    H245377   0.381   5.923  12.541 -0.7192  0.1276 -0.6100
 7988TIP3   OH245378   1.239   6.762  12.353 -0.0600 -0.3940  0.2727
 7988TIP3    H145379   1.207   6.781  12.442 -1.2378 -0.6088 -0.0823
 7988TIP3    H245380   1.221   6.668  12.341 -0.5111 -0.2288 -0.4165
 7989TIP3   OH245381   1.427   6.553  11.833  0.5436 -0.3419  0.4470
 7989TIP3    H145382   1.333   6.541  11.844  0.6458 -0.3278  1.4834
 7989TIP3    H245383   1.435   6.611  11.757 -0.3419  0.5979  1.0402
 7990TIP3   OH245384   2.579   4.739   4.871  0.2023  0.3641 -0.1982
 7990TIP3    H145385   2.559   4.658   4.919  0.4993  1.2083  1.4146
 7990TIP3    H245386   2.521   4.736   4.795 -0.7104 -0.7636  0.4967
 7991TIP3   OH245387   4.237   6.425  12.706  0.0325  0.3816  0.4272
 7991TIP3    H145388   4.152   6.443  12.666  0.4967  1.5488 -0.0579
 7991TIP3    H245389   4.277   6.359  12.649 -1.2903 -1.6147  1.6974
 7992TIP3   OH245390   2.648   3.927   0.681  0.4564  0.2997  0.5403
 7992TIP3    H145391   2.556   3.909   0.660  1.1741  0.2997 -3.4169
 7992TIP3    H245392   2.664   4.013   0.644  2.2714 -0.0993  0.3118
 7993TIP3   OH245393   1.002   5.749  13.973 -0.8302 -0.2341  0.4085
 7993TIP3    H145394   1.011   5.696  13.894 -0.1901 -0.4883  0.6438
 7993TIP3    H245395   0.964   5.832  13.942  1.6616  0.6352 -0.5949
 7994TIP3   OH245396   3.069   0.303  13.180 -0.5837  0.1440  0.4638
 7994TIP3    H145397   3.095   0.386  13.219  0.7221 -1.2769  2.8737
 7994TIP3    H245398   2.975   0.298  13.195 -0.4930  0.7057  1.2922
 7995TIP3   OH245399   1.030   0.103  14.466 -0.5650  0.4954 -0.1768
 7995TIP3    H145400   1.091   0.159  14.515 -0.2389 -0.1727  0.1832
 7995TIP3    H245401   0.985   0.164  14.407  0.3477  1.0263 -0.3541
 7996TIP3   OH245402   5.646   3.012  11.326 -0.0810 -0.0252  0.5629
 7996TIP3    H145403   5.579   2.944  11.335 -0.1054 -0.1891 -0.7276
 7996TIP3    H245404   5.635   3.046  11.238  2.5927 -1.2027 -0.3305
 7997TIP3   OH245405   0.846   3.875   6.264 -0.0681 -0.2527 -0.5147
 7997TIP3    H145406   0.772   3.921   6.302 -0.4936 -0.7340 -0.7549
 7997TIP3    H245407   0.923   3.921   6.298 -0.3650 -1.4363  1.9597
 7998TIP3   OH245408   1.928   2.253  14.445 -0.0303 -0.0844 -0.1255
 7998TIP3    H145409   1.997   2.310  14.480  0.0279  0.2508 -0.7742
 7998TIP3    H245410   1.912   2.286  14.356  0.9586 -1.9159 -1.0410
 7999TIP3   OH245411   0.384   1.859   3.590  0.2193 -0.1097 -0.6251
 7999TIP3    H145412   0.298   1.894   3.614  0.0155 -1.7956  1.3117
 7999TIP3    H245413   0.447   1.918   3.631 -0.0670 -0.3690  0.1951
 8000TIP3   OH245414   1.878   5.720  13.250 -0.2276  0.4177  0.1533
 8000TIP3    H145415   1.864   5.680  13.164  0.1592 -0.4488  0.4830
 8000TIP3    H245416   1.970   5.702  13.271 -0.5117 -0.0726  1.0781
 8001TIP3   OH245417   2.514   4.198  13.075 -0.0887  0.3411  0.4680
 8001TIP3    H145418   2.548   4.269  13.129  2.9634  0.0932 -0.8911
 8001TIP3    H245419   2.544   4.219  12.986  0.2348 -2.2035 -0.0971
 8002TIP3   OH245420   1.954   3.936  11.898 -0.5256  0.3477 -0.2495
 8002TIP3    H145421   2.007   3.984  11.961 -0.0840  1.9335 -1.7648
 8002TIP3    H245422   1.987   3.846  11.903 -1.2485  0.1334  2.5141
 8003TIP3   OH245423   2.342   0.644   4.055 -0.1650 -0.0603  0.5494
 8003TIP3    H145424   2.309   0.717   4.003  0.2205 -0.0512  0.3154
 8003TIP3    H245425   2.287   0.643   4.133  0.5063  1.1673  1.0665
 8004TIP3   OH245426   4.394   0.512  17.072 -0.2662 -0.4301  0.0528
 8004TIP3    H145427   4.328   0.469  17.126 -2.1481  2.0492 -0.0822
 8004TIP3    H245428   4.445   0.564  17.134 -1.4600  1.2289 -0.2717
 8005TIP3   OH245429   3.184   2.586   5.105 -0.3971 -0.1833  0.3606
 8005TIP3    H145430   3.105   2.560   5.153 -0.5587  0.1434  0.2711
 8005TIP3    H245431   3.153   2.644   5.036 -0.2913 -1.4536 -0.8107
 8006TIP3   OH245432   3.630   5.978  12.351 -0.2021 -0.3078  0.6762
 8006TIP3    H145433   3.555   6.011  12.302  0.3069 -0.0266  0.0683
 8006TIP3    H245434   3.699   6.044  12.337 -0.3029  0.2630  2.4994
 8007TIP3   OH245435   3.045   2.665  11.751  0.0051 -0.1202 -0.2217
 8007TIP3    H145436   2.964   2.616  11.762  2.0518 -3.4411  1.8212
 8007TIP3    H245437   3.056   2.712  11.834 -0.1018  0.8613 -0.7477
 8008TIP3   OH245438   2.162   5.846  17.270 -0.2437 -0.5183  0.0235
 8008TIP3    H145439   2.255   5.855  17.251 -0.0584 -0.3963  0.9147
 8008TIP3    H245440   2.119   5.908  17.211  0.2810 -0.2482 -0.0786
 8009TIP3   OH245441   2.239   0.024   0.880  0.4620 -0.1555  0.2073
 8009TIP3    H145442   2.231   0.107   0.833 -0.6538 -0.8487 -0.8973
 8009TIP3    H245443   2.195  -0.040   0.823 -2.0555 -0.8476  2.7141
 8010TIP3   OH245444   3.763   3.733  14.376 -0.6309  0.4631  0.6209
 8010TIP3    H145445   3.857   3.743  14.391 -0.5258 -0.0365  0.3233
 8010TIP3    H245446   3.725   3.816  14.404 -0.1841  0.3988  1.4312
 8011TIP3   OH245447   4.727   3.133  16.855  0.0576  0.6331  0.1319
 8011TIP3    H145448   4.762   3.154  16.768 -1.5161 -2.6751 -1.4790
 8011TIP3    H245449   4.638   3.167  16.854  0.1388  0.8747  0.6197
 8012TIP3   OH245450   2.755   2.029   1.472  0.1074 -0.1694 -0.2141
 8012TIP3    H145451   2.686   2.043   1.537 -1.2375  1.4924 -1.8640
 8012TIP3    H245452   2.718   2.064   1.390  1.6785 -2.2199 -1.9248
 8013TIP3   OH245453   3.223   6.482   5.707  0.0914  0.9362 -0.8960
 8013TIP3    H145454   3.303   6.524   5.676 -0.3437  2.6660  0.1365
 8013TIP3    H245455   3.152   6.533   5.667 -0.4576  2.0964  1.3443
 8014TIP3   OH245456   2.655   3.389  14.585 -0.0025 -0.2044 -0.1438
 8014TIP3    H145457   2.665   3.481  14.611 -2.7724  0.4169 -0.9727
 8014TIP3    H245458   2.716   3.342  14.643  0.8297  2.0167  0.9486
 8015TIP3   OH245459   3.309   6.034  11.271  0.2501 -0.2524 -0.0672
 8015TIP3    H145460   3.250   6.041  11.196 -0.5078 -0.4843  0.4916
 8015TIP3    H245461   3.358   5.953  11.254 -0.2972 -0.5915 -0.0499
 8016TIP3   OH245462   2.504   3.353  12.411 -0.4056 -0.0986  0.2387
 8016TIP3    H145463   2.570   3.422  12.416  0.3528 -0.7336 -0.8136
 8016TIP3    H245464   2.490   3.339  12.318 -0.7286 -1.2104  0.4425
 8017TIP3   OH245465   4.058   2.461   0.261  0.3077 -0.3775 -0.3453
 8017TIP3    H145466   4.023   2.389   0.312 -0.1981  0.0576 -0.0712
 8017TIP3    H245467   4.145   2.476   0.297  1.3349 -2.2674 -1.8284
 8018TIP3   OH245468   1.478   0.581  15.529  0.2279  0.1213  0.4244
 8018TIP3    H145469   1.417   0.507  15.532  0.2839  0.1006  1.5790
 8018TIP3    H245470   1.463   0.621  15.443 -0.4431 -0.6866  0.1451
 8019TIP3   OH245471   1.070   1.447  11.703  0.4121  0.0483 -0.1667
 8019TIP3    H145472   1.018   1.413  11.631  0.8084  0.3744 -0.6202
 8019TIP3    H245473   1.015   1.514  11.744  0.1169 -0.2629 -0.0509
 8020TIP3   OH245474   2.096   5.581  12.427  0.3334  0.4633  0.2990
 8020TIP3    H145475   2.099   5.621  12.514 -0.9196  1.6447 -0.1580
 8020TIP3    H245476   2.093   5.656  12.367  0.2684 -0.3343 -0.7048
 8021TIP3   OH245477   4.084   3.251   0.290  0.4247  0.5904 -0.4279
 8021TIP3    H145478   4.081   3.155   0.280 -3.1710  0.3868  0.9831
 8021TIP3    H245479   4.068   3.284   0.202  0.0791 -0.1709 -0.6665
 8022TIP3   OH245480   3.510   6.208   5.291  0.3516 -0.6777  0.0311
 8022TIP3    H145481   3.424   6.183   5.257 -0.2326  0.4154  0.6201
 8022TIP3    H245482   3.572   6.170   5.230 -0.5710 -0.9666 -0.7617
 8023TIP3   OH245483   6.365   3.677   1.803 -0.2723 -0.5237 -0.1511
 8023TIP3    H145484   6.280   3.707   1.771 -0.8918 -2.0881 -0.0762
 8023TIP3    H245485   6.429   3.722   1.748 -1.2384 -1.4276 -2.1235
 8024TIP3   OH245486   6.459   4.963  11.396 -0.4762 -0.0132 -0.3044
 8024TIP3    H145487   6.369   4.939  11.419 -0.3761 -0.7192 -0.6272
 8024TIP3    H245488   6.457   5.058  11.386 -1.2090 -0.0331 -0.3854
 8025TIP3   OH245489   5.303   6.494   2.370  0.2030 -0.0238  0.3217
 8025TIP3    H145490   5.332   6.495   2.278  1.3061 -0.3267  0.6469
 8025TIP3    H245491   5.209   6.512   2.366  0.1311 -0.5936 -0.9068
 8026TIP3   OH245492   4.801   4.222  14.836 -0.6927 -0.0255 -0.0573
 8026TIP3    H145493   4.722   4.250  14.882 -1.1707 -0.1606 -0.7784
 8026TIP3    H245494   4.823   4.137  14.875 -0.3827  0.4092  0.7531
 8027TIP3   OH245495   0.234   6.027  10.630 -0.1625 -0.1989  0.2508
 8027TIP3    H145496   0.165   6.023  10.564  1.4306 -2.5625 -1.4478
 8027TIP3    H245497   0.254   6.120  10.639 -1.4234  0.2893 -1.5344
 8028TIP3   OH245498   3.495   2.260  14.118  0.0859 -0.2279 -0.7565
 8028TIP3    H145499   3.528   2.260  14.207  0.6924 -0.0374 -0.9769
 8028TIP3    H245500   3.423   2.323  14.119  0.0978 -0.2225 -0.4057
 8029TIP3   OH245501   2.653   5.838  14.947 -0.5092 -0.8845  0.1170
 8029TIP3    H145502   2.586   5.799  14.890 -0.5164 -1.5447  0.5615
 8029TIP3    H245503   2.617   5.831  15.035 -0.4137 -0.0466  0.2275
 8030TIP3   OH245504   4.878   2.553  11.287  0.1379 -0.1275  0.1934
 8030TIP3    H145505   4.904   2.484  11.226 -2.7021 -0.7400 -0.4777
 8030TIP3    H245506   4.799   2.591  11.247  0.4695  2.1438  1.5629
 8031TIP3   OH245507   2.606   0.756  15.134 -0.5157  0.1775 -0.2603
 8031TIP3    H145508   2.650   0.671  15.138  1.3838  1.0334 -1.4399
 8031TIP3    H245509   2.672   0.815  15.097 -1.8859  2.1037  0.2303
 8032TIP3   OH245510   1.667   1.389  15.946 -0.0227  0.2693  0.2155
 8032TIP3    H145511   1.615   1.424  15.874 -1.6615  1.0466  1.7060
 8032TIP3    H245512   1.673   1.295  15.929  1.3768  0.6775 -1.9599
 8033TIP3   OH245513   0.273   5.335  10.862  0.5603  0.8491 -0.0002
 8033TIP3    H145514   0.260   5.268  10.930 -0.0840 -0.6483 -1.5251
 8033TIP3    H245515   0.288   5.416  10.911 -1.1295  0.0838  1.9277
 8034TIP3   OH245516   5.426   5.345   1.984 -0.5136  0.1849 -0.1415
 8034TIP3    H145517   5.428   5.407   1.911 -1.6268  0.0819 -0.2653
 8034TIP3    H245518   5.407   5.261   1.944 -0.0074 -0.0701  0.1436
 8035TIP3   OH245519   1.357   0.525   5.130  0.8653  0.5335  0.3779
 8035TIP3    H145520   1.372   0.433   5.112  2.5241  0.7448  0.5721
 8035TIP3    H245521   1.424   0.549   5.193  0.5125  1.8996  0.2740
 8036TIP3   OH245522   1.080   2.873  14.264 -0.6254  0.0558  0.4170
 8036TIP3    H145523   1.023   2.798  14.249 -1.2827  0.3419  1.3618
 8036TIP3    H245524   1.093   2.873  14.359 -0.1283  0.7770  0.3500
 8037TIP3   OH245525   1.732   6.473  15.161  0.1611  0.3205 -0.5804
 8037TIP3    H145526   1.692   6.550  15.200  0.0589 -0.4554  0.9060
 8037TIP3    H245527   1.774   6.505  15.081  2.1415  2.3800  1.1762
 8038TIP3   OH245528   2.410   4.328  11.042  0.1615  0.3026 -0.3821
 8038TIP3    H145529   2.458   4.360  11.119 -0.6127  0.7725 -0.0754
 8038TIP3    H245530   2.365   4.406  11.008 -1.9423 -0.4415  0.5023
 8039TIP3   OH245531   4.729   5.968  16.479 -0.7938  0.1428 -0.0020
 8039TIP3    H145532   4.753   5.878  16.503  1.6358  0.9053  0.7353
 8039TIP3    H245533   4.714   6.011  16.563  2.6685  1.5265  0.0623
 8040TIP3   OH245534   1.159   2.927  16.126  0.2378 -0.2619  0.4197
 8040TIP3    H145535   1.131   2.976  16.048 -2.0067 -1.0666  0.6530
 8040TIP3    H245536   1.215   2.857  16.092  0.9701  0.5979 -0.2166
 8041TIP3   OH245537   4.725   3.941  11.687 -0.1733 -0.2158  0.5591
 8041TIP3    H145538   4.810   3.971  11.718 -0.8425  0.7613  1.5244
 8041TIP3    H245539   4.702   4.001  11.617 -0.9243  0.7767  1.6165
 8042TIP3   OH245540   0.303   2.839   3.102 -0.2029  0.7472  0.1318
 8042TIP3    H145541   0.219   2.809   3.134  0.3670  1.4524  2.4842
 8042TIP3    H245542   0.345   2.761   3.066 -0.9622 -0.0909  1.0210
 8043TIP3   OH245543   0.188   2.103   5.610  0.0731  0.4281  0.0596
 8043TIP3    H145544   0.263   2.161   5.613  2.0608 -1.9261 -0.8652
 8043TIP3    H245545   0.182   2.066   5.698 -0.1746  0.7771  0.1934
 8044TIP3   OH245546   5.721   6.277  14.742  0.2847 -0.1505 -0.3212
 8044TIP3    H145547   5.640   6.246  14.702 -0.5067 -2.1845  2.5926
 8044TIP3    H245548   5.712   6.372  14.745 -1.5959 -0.2810 -0.8311
 8045TIP3   OH245549   3.295   6.514   0.159  0.7328 -0.4307 -0.5679
 8045TIP3    H145550   3.350   6.463   0.218  1.3088  0.6689 -0.1242
 8045TIP3    H245551   3.255   6.449   0.101  1.2542 -1.3942  0.1273
 8046TIP3   OH245552   1.404   3.131  11.235  0.4719  0.5093 -0.2099
 8046TIP3    H145553   1.315   3.126  11.200  1.1979  0.2613 -2.1387
 8046TIP3    H245554   1.393   3.165  11.324 -1.4027  2.6601 -1.1580
 8047TIP3   OH245555   0.339   2.610   1.322  0.0231 -0.1482  0.0748
 8047TIP3    H145556   0.250   2.612   1.357 -0.8251  3.1075 -1.8027
 8047TIP3    H245557   0.329   2.583   1.231  0.8961  0.4167 -0.2089
 8048TIP3   OH245558   1.033   4.239  12.978 -0.0506 -0.5403  0.1561
 8048TIP3    H145559   0.998   4.314  12.930  2.2223 -0.1507 -1.0576
 8048TIP3    H245560   0.956   4.192  13.011 -1.5565  2.3189  1.0278
 8049TIP3   OH245561   6.125   4.943  12.925  0.3433  0.1932 -0.3753
 8049TIP3    H145562   6.114   4.850  12.941  0.4618  0.6131  2.9985
 8049TIP3    H245563   6.038   4.980  12.940  0.4491  0.6951 -0.9708
 8050TIP3   OH245564   4.426   5.934   2.758  0.0727  0.6661 -0.1550
 8050TIP3    H145565   4.406   5.977   2.842 -1.2332  0.5710 -0.3911
 8050TIP3    H245566   4.408   6.001   2.693 -1.0816  0.0763 -0.4732
 8051TIP3   OH245567   2.352   1.710   2.113 -0.1037  0.9124 -0.8433
 8051TIP3    H145568   2.260   1.735   2.115 -0.6080 -0.5602 -2.5614
 8051TIP3    H245569   2.366   1.675   2.025  1.3477 -1.4922  0.2148
 8052TIP3   OH245570   4.211   4.541  14.736 -0.1747  0.5624  0.0189
 8052TIP3    H145571   4.127   4.522  14.694 -1.1918 -0.5281  2.3696
 8052TIP3    H245572   4.276   4.524  14.668 -1.7666  0.3334 -1.5367
 8053TIP3   OH245573   1.271   2.254  11.402  0.2024 -0.8862 -0.5335
 8053TIP3    H145574   1.308   2.176  11.442  0.7993 -0.2919  0.1145
 8053TIP3    H245575   1.260   2.315  11.475 -0.2594 -0.3698 -1.0272
 8054TIP3   OH245576   1.947   5.784  15.914 -0.0358  0.5965  0.2936
 8054TIP3    H145577   1.973   5.825  15.832  0.1798  1.9816  1.0249
 8054TIP3    H245578   2.000   5.827  15.981  0.2002 -0.8976  1.1137
 8055TIP3   OH245579   6.661   3.855  16.324  0.0024  0.0811 -0.5158
 8055TIP3    H145580   6.633   3.911  16.251  1.7111  3.7042  1.3665
 8055TIP3    H245581   6.607   3.882  16.398 -0.5351 -2.3212  0.0649
 8056TIP3   OH245582   5.306   4.992   4.923 -0.0580 -0.7827  0.0477
 8056TIP3    H145583   5.224   4.945   4.942  0.6328 -1.5593  1.2373
 8056TIP3    H245584   5.303   5.007   4.829 -1.5352 -0.8664  0.0456
 8057TIP3   OH245585   5.906   4.723   4.392  0.0657  0.2114 -0.2100
 8057TIP3    H145586   5.862   4.793   4.440 -2.5251 -0.7511 -1.0021
 8057TIP3    H245587   5.901   4.750   4.300  2.2489  0.5979 -0.2669
 8058TIP3   OH245588   2.609   5.708   2.885 -0.5371  0.2428  0.3060
 8058TIP3    H145589   2.581   5.618   2.865 -2.8998  0.9383  0.2121
 8058TIP3    H245590   2.664   5.732   2.810  0.3435 -1.1958  0.4567
 8059TIP3   OH245591   5.790   3.496  13.616 -0.0741 -0.1799 -0.3961
 8059TIP3    H145592   5.815   3.530  13.530 -2.2886 -1.3984 -1.6290
 8059TIP3    H245593   5.844   3.417  13.626 -0.3983 -0.5095 -1.1049
 8060TIP3   OH245594   3.900   5.641   0.099 -0.0537  0.2158 -0.2807
 8060TIP3    H145595   3.936   5.579   0.035  1.5771 -0.8328  1.5086
 8060TIP3    H245596   3.806   5.639   0.084  0.1803 -0.7887 -1.9188
 8061TIP3   OH245597   0.073   2.215   0.752  0.2914 -0.6616 -0.5052
 8061TIP3    H145598   0.100   2.127   0.724  0.9911 -0.6287  0.0204
 8061TIP3    H245599  -0.020   2.206   0.770  0.3084 -1.2454 -0.6712
 8062TIP3   OH245600   4.238   2.742   6.143 -0.4436  0.4786  0.3498
 8062TIP3    H145601   4.261   2.668   6.199  0.4328  0.2249 -0.3163
 8062TIP3    H245602   4.150   2.767   6.171 -0.5773 -0.5315  0.8911
 8063TIP3   OH245603   6.693   3.631   5.497  0.1676  0.1222 -0.2162
 8063TIP3    H145604   6.620   3.675   5.452  0.0736 -0.2385 -0.4231
 8063TIP3    H245605   6.743   3.702   5.537 -1.5040  0.2507  1.7853
 8064TIP3   OH245606   0.644   6.068   5.295  0.2768 -0.1334 -0.1050
 8064TIP3    H145607   0.569   6.023   5.334  0.4106 -0.1831  0.0964
 8064TIP3    H245608   0.610   6.154   5.269  0.1566 -0.1458  0.0097
 8065TIP3   OH245609   6.056   1.531   0.922  0.0750 -0.2341 -0.6283
 8065TIP3    H145610   6.149   1.548   0.934 -0.2420  1.2934 -0.2117
 8065TIP3    H245611   6.032   1.582   0.844 -0.8444  1.1353  0.5019
 8066TIP3   OH245612   6.056   4.604  16.890 -0.0471 -0.7495  0.2980
 8066TIP3    H145613   6.020   4.593  16.802 -1.9828  0.0110  0.9569
 8066TIP3    H245614   6.132   4.661  16.878  0.3418 -1.4927 -0.9872
 8067TIP3   OH245615   4.536   3.684  16.761  0.5141 -0.6128  0.1395
 8067TIP3    H145616   4.456   3.642  16.730 -0.7033  1.6514  0.0026
 8067TIP3    H245617   4.512   3.776  16.773  2.8490 -0.0415  1.0380
 8068TIP3   OH245618   4.379   2.487  14.222 -0.6469  0.3315  0.2546
 8068TIP3    H145619   4.316   2.495  14.293 -0.8672  0.6651  0.0253
 8068TIP3    H245620   4.358   2.560  14.164 -2.1116 -1.3364 -1.4502
 8069TIP3   OH245621   2.623   3.345   2.140 -0.7144  0.1844  0.0501
 8069TIP3    H145622   2.640   3.256   2.112  0.7389  0.6995 -0.8483
 8069TIP3    H245623   2.581   3.387   2.065  0.3733  0.7432 -0.2763
 8070TIP3   OH245624   1.630   0.050   5.198  0.1079 -0.1856  0.0087
 8070TIP3    H145625   1.702   0.082   5.253  0.4338 -0.3113 -0.3424
 8070TIP3    H245626   1.569   0.009   5.260  0.4414 -0.2667  0.2873
 8071TIP3   OH245627   0.554   4.336   6.294 -0.5159 -0.5320 -0.7069
 8071TIP3    H145628   0.501   4.262   6.264 -1.2022 -0.7315  0.9065
 8071TIP3    H245629   0.613   4.299   6.359 -1.3018  0.4164  0.5966
 8072TIP3   OH245630   0.435   2.679  15.851 -0.0404  0.2071 -0.6947
 8072TIP3    H145631   0.512   2.730  15.827  0.1705 -0.5409 -1.6404
 8072TIP3    H245632   0.466   2.589  15.859 -0.0070  0.3803  2.7642
 8073TIP3   OH245633   2.455   2.997  11.895 -0.1861  0.5085  0.7771
 8073TIP3    H145634   2.399   3.073  11.913 -0.5856 -0.0027  1.7773
 8073TIP3    H245635   2.409   2.949  11.827 -0.0709  1.0104  0.3375
 8074TIP3   OH245636   0.050   1.668   1.410 -0.2453 -0.4851 -0.0502
 8074TIP3    H145637   0.052   1.749   1.462 -0.8031  0.1044 -0.9025
 8074TIP3    H245638   0.137   1.663   1.371 -0.1290 -0.4250  0.1975
 8075TIP3   OH245639   2.022   3.954   1.537 -0.4540 -0.4432  0.6778
 8075TIP3    H145640   1.933   3.953   1.572 -0.5142  0.9225  0.6325
 8075TIP3    H245641   2.078   3.947   1.615 -0.5890  2.3609  1.1489
 8076TIP3   OH245642   3.700   4.419  15.315  0.2834  0.5042  0.1138
 8076TIP3    H145643   3.621   4.365  15.323  1.4788 -1.3211 -0.0393
 8076TIP3    H245644   3.705   4.441  15.222 -0.1795  0.8742  0.1687
 8077TIP3   OH245645   6.040   5.698  10.346 -0.0696  0.5969  0.4372
 8077TIP3    H145646   6.135   5.699  10.341 -0.0699 -1.7177 -2.3881
 8077TIP3    H245647   6.017   5.787  10.373  2.8491  0.8290  2.7466
 8078TIP3   OH245648   0.994   3.841  15.688 -0.7062 -0.4167 -0.2938
 8078TIP3    H145649   0.948   3.902  15.746 -0.3279 -1.3141  0.9918
 8078TIP3    H245650   1.026   3.896  15.617 -2.2779  0.5164 -0.3445
 8079TIP3   OH245651   1.755   2.185  11.667  0.1775  0.3216 -0.1015
 8079TIP3    H145652   1.671   2.176  11.712  0.0246  2.1955  0.0938
 8079TIP3    H245653   1.806   2.110  11.695 -1.2475 -0.5843  0.1740
 8080TIP3   OH245654   3.046   5.228   0.069 -0.2173  0.6018  0.1085
 8080TIP3    H145655   3.002   5.224   0.154  1.0034 -0.9928  0.7088
 8080TIP3    H245656   3.059   5.137   0.044  0.9234  1.0414 -1.0104
 8081TIP3   OH245657   6.139   0.582   2.883 -0.7237  0.0780 -0.3531
 8081TIP3    H145658   6.194   0.544   2.814  1.7624  1.6585  0.6202
 8081TIP3    H245659   6.117   0.669   2.850 -0.4982  0.4033  0.3364
 8082TIP3   OH245660   3.947   3.618  13.072  0.5290  0.7005 -0.1901
 8082TIP3    H145661   3.880   3.570  13.121  3.5473 -1.6061  2.0672
 8082TIP3    H245662   3.962   3.698  13.123  0.2626  0.6800 -0.0792
 8083TIP3   OH245663   0.574   1.006  15.478  0.0877  0.3631 -0.1532
 8083TIP3    H145664   0.530   0.932  15.521  1.1374  0.1810  0.6331
 8083TIP3    H245665   0.666   0.996  15.501  0.4052  1.3030 -0.9604
 8084TIP3   OH245666   6.204   5.385   2.989 -0.5019  0.3083  0.7440
 8084TIP3    H145667   6.150   5.331   3.046  0.4813  1.4943  2.9546
 8084TIP3    H245668   6.294   5.368   3.018  0.0520  0.9149 -0.5271
 8085TIP3   OH245669   3.608   0.973   3.488  0.0396 -0.4297  0.1412
 8085TIP3    H145670   3.605   0.942   3.579  0.8479  0.3199  0.4439
 8085TIP3    H245671   3.520   0.959   3.455 -0.3640 -0.3885  1.1553
 8086TIP3   OH245672   4.739   5.059   2.879  0.3353  0.0373  0.0865
 8086TIP3    H145673   4.646   5.078   2.890 -0.0688 -1.5116 -0.3716
 8086TIP3    H245674   4.781   5.145   2.881 -1.3537  1.0345 -2.2519
 8087TIP3   OH245675   4.749   1.006   2.882  0.6452  0.2398 -0.6510
 8087TIP3    H145676   4.842   1.010   2.906  0.8792  0.3177 -1.5604
 8087TIP3    H245677   4.725   0.915   2.896  0.2105  0.6504  1.8815
 8088TIP3   OH245678   1.853   0.649   1.497  0.2459  0.5640 -0.2216
 8088TIP3    H145679   1.915   0.709   1.455  0.5346  0.9427  0.7143
 8088TIP3    H245680   1.820   0.698   1.572  1.4579 -0.8807  1.3346
 8089TIP3   OH245681   1.308   0.071  16.240 -0.9476 -0.3633 -1.0279
 8089TIP3    H145682   1.399   0.093  16.220 -0.5307  0.0756  1.0859
 8089TIP3    H245683   1.297  -0.019  16.208  0.0764 -0.2658 -1.7036
 8090TIP3   OH245684   3.975   4.264   4.242 -0.4393 -0.1681  0.4638
 8090TIP3    H145685   4.030   4.197   4.202  0.6069  0.5344  0.7027
 8090TIP3    H245686   3.991   4.255   4.336 -2.0142 -1.0509  0.6813
 8091TIP3   OH245687   0.686   0.056   1.918  0.1545  0.1388  0.2506
 8091TIP3    H145688   0.682  -0.039   1.930 -1.6467  0.1658  0.0657
 8091TIP3    H245689   0.756   0.084   1.978  0.9058 -1.3189  0.0970
 8092TIP3   OH245690   4.121   2.916  10.929  0.7570 -0.2000 -0.5718
 8092TIP3    H145691   4.043   2.892  10.879  0.7343  1.9065 -1.6760
 8092TIP3    H245692   4.186   2.938  10.862  0.8486  2.3334  0.2368
 8093TIP3   OH245693   6.150   1.357  14.107 -0.1545 -0.1467  0.2417
 8093TIP3    H145694   6.193   1.297  14.167  1.5063  0.8254  0.0684
 8093TIP3    H245695   6.171   1.322  14.020 -0.0753  0.0972  0.1638
 8094TIP3   OH245696   3.280   5.034  14.247 -0.3543  0.0422  0.1577
 8094TIP3    H145697   3.240   5.118  14.223  0.8950  0.7503  0.5141
 8094TIP3    H245698   3.280   5.033  14.342  0.5266  0.0732  0.1628
 8095TIP3   OH245699   6.084   6.616   2.522 -0.6311  0.1192 -0.0332
 8095TIP3    H145700   6.134   6.618   2.440  1.5724 -1.1438  1.1809
 8095TIP3    H245701   6.024   6.542   2.512  1.7050 -1.9768  0.5128
 8096TIP3   OH245702   6.247   6.027  13.446  0.3374 -0.6314  0.0619
 8096TIP3    H145703   6.320   6.042  13.387 -1.1744 -2.3479 -2.4266
 8096TIP3    H245704   6.282   6.047  13.533  3.2220  0.2127 -1.1697
 8097TIP3   OH245705   1.558   6.151  14.900 -0.0364 -0.4748  0.0725
 8097TIP3    H145706   1.496   6.105  14.844 -1.0212 -0.7251  1.3023
 8097TIP3    H245707   1.581   6.230  14.852 -2.1185  0.1312 -0.0211
 8098TIP3   OH245708   2.069   6.762   4.412  0.1230 -0.2938  0.0983
 8098TIP3    H145709   1.974   6.773   4.418  0.0255 -0.8410 -0.3592
 8098TIP3    H245710   2.091   6.701   4.482  0.5216  1.8118  1.9476
 8099TIP3   OH245711   5.074   3.225  14.664  0.0882 -0.1585 -0.0029
 8099TIP3    H145712   5.036   3.235  14.751  0.0348 -1.7061  0.1662
 8099TIP3    H245713   4.999   3.213  14.606  0.2016 -0.7706 -0.0241
 8100TIP3   OH245714   6.697   5.851  10.853  0.2461  0.2547 -0.2133
 8100TIP3    H145715   6.689   5.945  10.868  1.5484 -0.1012  3.8630
 8100TIP3    H245716   6.790   5.837  10.835  0.1756 -0.3317 -0.1449
 8101TIP3   OH245717   4.602   2.179   1.472 -0.2382 -0.0463 -0.4927
 8101TIP3    H145718   4.644   2.114   1.416  0.3937  2.6111 -3.3752
 8101TIP3    H245719   4.672   2.212   1.529 -0.2286 -0.8238 -0.0452
 8102TIP3   OH245720   2.954   0.015  14.496 -0.3795  0.5359  0.1910
 8102TIP3    H145721   2.964   0.037  14.403 -1.8674 -1.2400 -0.4670
 8102TIP3    H245722   3.034   0.046  14.537  0.0399  1.9496 -1.5600
 8103TIP3   OH245723   2.862   1.704   5.775  0.3512 -0.1558  0.1540
 8103TIP3    H145724   2.931   1.735   5.833 -0.1921  2.2360 -0.3524
 8103TIP3    H245725   2.844   1.778   5.717 -2.0761 -0.9570 -0.2541
 8104TIP3   OH245726   0.533   6.454   3.265  0.0784 -0.0727 -0.0532
 8104TIP3    H145727   0.561   6.539   3.232  0.1465 -0.2911 -0.5670
 8104TIP3    H245728   0.481   6.416   3.194 -1.0435  0.0771  0.6606
 8105TIP3   OH245729   4.586   4.593  14.297 -0.4584  0.3175 -0.5073
 8105TIP3    H145730   4.541   4.671  14.330  0.9454  1.6945 -1.6854
 8105TIP3    H245731   4.678   4.617  14.296 -0.1161 -0.8858 -2.1087
 8106TIP3   OH245732   0.414   5.914  14.687 -0.2524  0.0715 -0.1686
 8106TIP3    H145733   0.437   5.823  14.665  0.2359  0.1624 -0.0555
 8106TIP3    H245734   0.456   5.966  14.619  0.8868  0.3192  0.6841
 8107TIP3   OH245735   5.362   4.359   3.024  0.3084  0.7912  0.0035
 8107TIP3    H145736   5.452   4.346   3.052  0.1468 -0.3791  0.0014
 8107TIP3    H245737   5.369   4.386   2.932  0.6444  0.5102 -0.0552
 8108TIP3   OH245738   5.943   3.776  15.610 -0.4494 -0.4393 -0.2194
 8108TIP3    H145739   6.018   3.798  15.554 -0.9054 -0.3269 -0.7990
 8108TIP3    H245740   5.905   3.698  15.568 -2.4747  1.2582 -1.7305
 8109TIP3   OH245741   1.684   2.853   5.453 -0.0728  0.1387 -0.1179
 8109TIP3    H145742   1.612   2.862   5.516 -0.7674 -0.3922 -0.8334
 8109TIP3    H245743   1.690   2.759   5.436 -0.2570  0.3276 -1.2746
 8110TIP3   OH245744   1.583   3.758   2.340 -0.3905 -0.3177  0.0362
 8110TIP3    H145745   1.661   3.810   2.361  0.4407 -1.4954  0.0274
 8110TIP3    H245746   1.510   3.811   2.371  0.3654  1.1021 -0.5199
 8111TIP3   OH245747   5.126   5.229  16.262 -0.2425 -0.4564 -0.7451
 8111TIP3    H145748   5.069   5.306  16.251 -0.0829 -0.1911  0.1687
 8111TIP3    H245749   5.124   5.185  16.177 -1.3602 -0.1372 -0.9082
 8112TIP3   OH245750   1.996   1.163   5.004 -0.3682  0.1444  0.3542
 8112TIP3    H145751   1.924   1.112   4.967 -0.7783  0.7802  0.2574
 8112TIP3    H245752   2.037   1.206   4.929 -0.2771  0.2751  0.4779
 8113TIP3   OH245753   5.334   4.264  11.985 -0.0518  0.3845 -0.2334
 8113TIP3    H145754   5.371   4.195  11.930  1.6342  0.6829  0.4690
 8113TIP3    H245755   5.286   4.216  12.053 -1.0563 -0.0080 -1.1919
 8114TIP3   OH245756   1.104   5.943  16.454  0.0442  0.1806  0.1264
 8114TIP3    H145757   1.133   5.879  16.389 -0.8397 -0.6131  0.4961
 8114TIP3    H245758   1.083   5.891  16.531  0.6639  1.0703  0.9065
 8115TIP3   OH245759   3.471   3.678  16.167  0.0602  0.6177 -0.3773
 8115TIP3    H145760   3.376   3.677  16.184  0.3830  1.4344  1.6369
 8115TIP3    H245761   3.511   3.685  16.253  1.9826  0.4939 -1.2188
 8116TIP3   OH245762   0.492   4.562   5.150 -0.5178 -0.3592 -0.0990
 8116TIP3    H145763   0.582   4.560   5.182  0.8407  2.6958 -3.0812
 8116TIP3    H245764   0.480   4.477   5.108  1.0831 -0.7348  0.1281
 8117TIP3   OH245765   5.733   0.201   2.786  0.0494  0.0395  0.0298
 8117TIP3    H145766   5.757   0.119   2.830 -0.4760 -0.8289 -1.2718
 8117TIP3    H245767   5.777   0.268   2.838 -0.4937 -0.9406  1.8555
 8118TIP3   OH245768   1.982   2.769  11.934  0.0613 -0.1320  0.0173
 8118TIP3    H145769   1.986   2.861  11.907  0.8498 -0.3898 -0.8061
 8118TIP3    H245770   1.916   2.767  12.003 -1.3986  0.7270 -1.2889
 8119TIP3   OH245771   6.557   3.930  11.706  0.2763 -0.2276 -0.0531
 8119TIP3    H145772   6.486   3.869  11.686  0.5099 -0.1636 -1.1291
 8119TIP3    H245773   6.620   3.878  11.757 -1.1390  0.0721  2.1647
 8120TIP3   OH245774   5.573   1.728  16.100 -0.1562 -0.2619  0.0844
 8120TIP3    H145775   5.609   1.787  16.033 -0.6561  0.1048  0.1331
 8120TIP3    H245776   5.531   1.786  16.163  0.8525 -0.5637  1.0654
 8121TIP3   OH245777   3.776   4.015  13.401  0.2017 -0.3740  0.6682
 8121TIP3    H145778   3.730   4.041  13.322  1.7307  0.9126  0.1353
 8121TIP3    H245779   3.759   4.085  13.464  0.1389 -0.6769  0.9917
 8122TIP3   OH245780   5.177   4.891   0.901 -0.2706  0.0338  0.7781
 8122TIP3    H145781   5.253   4.847   0.940  0.7634 -0.0519 -1.2141
 8122TIP3    H245782   5.127   4.922   0.976  2.3145  1.1150  2.1966
 8123TIP3   OH245783   3.511   4.998  14.074 -0.0407  0.0878  0.0522
 8123TIP3    H145784   3.516   5.092  14.093  2.7021  0.2971 -1.2477
 8123TIP3    H245785   3.425   4.987  14.032 -0.6751  1.8645  0.7798
 8124TIP3   OH245786   3.610   5.910  15.957  0.2046  0.1393 -0.1903
 8124TIP3    H145787   3.542   5.845  15.937  0.0176  0.4840 -0.7054
 8124TIP3    H245788   3.569   5.994  15.940  0.4418  0.4022  0.4904
 8125TIP3   OH245789   3.894   5.430  16.809  0.1156 -0.3465  0.4684
 8125TIP3    H145790   3.870   5.411  16.719 -0.0833 -1.9707  0.8453
 8125TIP3    H245791   3.816   5.410  16.860  0.9126 -1.6110  1.2360
 8126TIP3   OH245792   4.301   2.901  15.394  0.2934 -0.2761 -0.5063
 8126TIP3    H145793   4.235   2.908  15.463  0.3970  0.0318 -0.4352
 8126TIP3    H245794   4.372   2.851  15.434  0.0218 -0.7878 -0.6494
 8127TIP3   OH245795   1.170   6.044   0.399  0.0151  0.0271  0.7913
 8127TIP3    H145796   1.137   6.114   0.455 -0.5986  2.2495 -2.0687
 8127TIP3    H245797   1.265   6.051   0.405 -0.0362  1.3278  0.3617
 8128TIP3   OH245798   5.809   1.448   5.866  0.1883 -0.2372 -0.3087
 8128TIP3    H145799   5.825   1.440   5.960  0.2917 -0.8871 -0.3742
 8128TIP3    H245800   5.730   1.395   5.852 -0.0415  0.1659 -0.5276
 8129TIP3   OH245801   4.911   2.119   0.316 -0.3445 -0.1456  0.3217
 8129TIP3    H145802   4.968   2.104   0.391 -0.0476 -2.9530 -0.3753
 8129TIP3    H245803   4.876   2.208   0.330  0.0763 -0.3639  3.4729
 8130TIP3   OH245804   0.671   4.621   4.196  0.3648  0.2690 -0.1825
 8130TIP3    H145805   0.599   4.676   4.226  1.0875  0.6581  0.8861
 8130TIP3    H245806   0.748   4.677   4.199  0.8203 -0.3057 -0.7545
 8131TIP3   OH245807   5.278   0.181  14.951  0.2766  0.2244  0.1302
 8131TIP3    H145808   5.303   0.226  15.032 -1.9090  0.1697  0.8926
 8131TIP3    H245809   5.287   0.088  14.971 -0.1686  0.2130  0.2780
 8132TIP3   OH245810   0.547   2.708  17.069 -0.2488  0.5880  0.4477
 8132TIP3    H145811   0.556   2.798  17.040  1.0841  0.7474  1.2531
 8132TIP3    H245812   0.460   2.682  17.040  0.0303  1.5267 -1.3978
 8133TIP3   OH245813   6.605   6.608   0.707  0.2229 -0.0978 -0.5198
 8133TIP3    H145814   6.538   6.541   0.694 -0.8108  1.0477 -1.2627
 8133TIP3    H245815   6.682   6.574   0.662 -0.1187 -1.0236 -0.4219
 8134TIP3   OH245816   2.484   4.779  11.994  0.1363 -0.1267 -0.0680
 8134TIP3    H145817   2.509   4.858  11.946 -1.2047 -1.9913 -4.3004
 8134TIP3    H245818   2.532   4.709  11.950 -2.5070 -2.2104  0.1654
 8135TIP3   OH245819   5.897   0.323   2.563 -0.1516  0.5456  0.4866
 8135TIP3    H145820   5.824   0.263   2.579 -0.8944  1.6815  1.6242
 8135TIP3    H245821   5.973   0.266   2.554 -1.2031 -0.6990 -1.0861
 8136TIP3   OH245822   2.011   5.082  13.461 -0.6251 -0.1069  0.1338
 8136TIP3    H145823   2.041   5.063  13.550  0.8206  0.5527 -0.1848
 8136TIP3    H245824   1.916   5.077  13.466 -0.5153 -2.1124  1.2398
 8137TIP3   OH245825   3.885   3.516   6.249  0.2893 -0.2364 -0.1630
 8137TIP3    H145826   3.859   3.608   6.248  1.0186 -0.0285  0.0496
 8137TIP3    H245827   3.804   3.469   6.270  0.1469  0.4267  0.8126
 8138TIP3   OH245828   5.567   4.337  15.069  0.0202  0.0969  0.5842
 8138TIP3    H145829   5.661   4.333  15.053  0.1374 -0.4117  1.3469
 8138TIP3    H245830   5.540   4.421  15.031  0.8542  0.4546  0.7485
 8139TIP3   OH245831   4.381   5.880  16.574 -0.5875 -0.6663  0.4043
 8139TIP3    H145832   4.457   5.928  16.606  0.1033 -0.1072 -1.9154
 8139TIP3    H245833   4.347   5.835  16.652  1.1616  0.3148  1.8107
 8140TIP3   OH245834   6.171   1.406  11.641 -0.3073  0.1269  0.6431
 8140TIP3    H145835   6.154   1.321  11.681  2.2125 -0.1270  1.3746
 8140TIP3    H245836   6.207   1.386  11.555  1.4435  0.3572  1.2878
 8141TIP3   OH245837   3.277   5.812  12.954 -0.3883 -0.7999 -0.1103
 8141TIP3    H145838   3.224   5.732  12.951 -0.2277 -1.0016  1.5403
 8141TIP3    H245839   3.362   5.783  12.986 -0.8566  0.2265  2.3039
 8142TIP3   OH245840   4.100   2.089  15.846 -0.2569  0.2235  0.2883
 8142TIP3    H145841   4.096   2.123  15.757  0.9153  1.3293  0.6362
 8142TIP3    H245842   4.061   2.002  15.840 -0.3164  0.3356 -1.2701
 8143TIP3   OH245843   0.643   5.173   0.651 -0.1038 -0.8502  0.1907
 8143TIP3    H145844   0.553   5.146   0.668 -1.2585  1.3305 -1.8382
 8143TIP3    H245845   0.658   5.153   0.559  1.7144 -1.6691  0.6252
 8144TIP3   OH245846   0.848   6.361   1.209  0.2844 -0.1937 -0.3564
 8144TIP3    H145847   0.812   6.334   1.293  1.9214  1.0409  0.8070
 8144TIP3    H245848   0.812   6.299   1.146 -1.9145 -0.4436  1.0495
 8145TIP3   OH245849   0.310   4.820   1.125 -0.2154  0.4972 -0.2577
 8145TIP3    H145850   0.336   4.781   1.208 -2.2028 -1.9939 -0.7149
 8145TIP3    H245851   0.378   4.792   1.063 -0.3143 -0.1498 -0.0766
 8146TIP3   OH245852   5.086   1.810  12.708  0.3315  0.1558  0.1549
 8146TIP3    H145853   5.074   1.871  12.781 -0.5018  2.8646 -2.0642
 8146TIP3    H245854   5.178   1.818  12.683  0.1756  0.7184 -0.2651
 8147TIP3   OH245855   0.652   4.866  14.683  0.7045  0.0935  0.0024
 8147TIP3    H145856   0.740   4.880  14.717  0.3110  0.4856  0.9036
 8147TIP3    H245857   0.625   4.782  14.720  1.0409 -0.4793 -1.0302
 8148TIP3   OH245858   4.025   2.553   4.050 -0.4318 -0.0839  0.3002
 8148TIP3    H145859   4.084   2.478   4.040 -0.6590 -0.1318 -0.7735
 8148TIP3    H245860   3.952   2.535   3.990 -1.1535  0.3589  1.0188
 8149TIP3   OH245861   3.982   1.594  14.869 -0.5060  0.0134 -0.4454
 8149TIP3    H145862   3.961   1.505  14.900 -1.5448  0.2021 -0.5502
 8149TIP3    H245863   3.909   1.616  14.811 -0.7260  1.2676  0.2744
 8150TIP3   OH245864   4.602   4.565   3.458  0.4579 -0.2112  0.2724
 8150TIP3    H145865   4.633   4.567   3.367 -1.1151  0.4115 -0.2852
 8150TIP3    H245866   4.677   4.597   3.509  1.6366 -1.2962 -0.6965
 8151TIP3   OH245867   0.396   3.606  11.728 -0.5068  0.0013  0.2597
 8151TIP3    H145868   0.356   3.527  11.766  1.5036 -0.6952  1.0614
 8151TIP3    H245869   0.341   3.677  11.761 -2.2939 -1.0103 -0.3705
 8152TIP3   OH245870   2.010   0.940  13.853 -0.3948  0.1853  0.0777
 8152TIP3    H145871   2.010   0.984  13.768 -1.2035 -0.2329 -0.1533
 8152TIP3    H245872   2.102   0.936  13.878  0.0718 -1.2294 -1.6089
 8153TIP3   OH245873   4.968   4.942   6.112  0.6122  0.0908 -0.3659
 8153TIP3    H145874   4.951   4.850   6.128 -2.2718  0.5071 -0.5117
 8153TIP3    H245875   5.035   4.966   6.175 -0.6669 -1.4495  1.7060
 8154TIP3   OH245876   5.797   4.896   5.090 -0.2949  0.2114 -0.5218
 8154TIP3    H145877   5.815   4.817   5.141 -1.2978  0.2587 -0.0822
 8154TIP3    H245878   5.720   4.874   5.038 -0.2532  0.7227 -0.8049
 8155TIP3   OH245879   0.986   5.063   4.668 -0.5987  0.3689  0.8218
 8155TIP3    H145880   1.064   5.034   4.716  0.0019  1.0317  0.2689
 8155TIP3    H245881   0.944   4.982   4.640 -0.6856 -0.0174  2.0155
 8156TIP3   OH245882   2.141   2.248   2.478  0.1690  0.4585  0.5894
 8156TIP3    H145883   2.155   2.190   2.403 -1.1221  1.0262 -0.1240
 8156TIP3    H245884   2.229   2.264   2.513  0.5546 -2.2642  1.1111
 8157TIP3   OH245885   4.781   5.060   3.550 -0.2210 -0.1577 -0.3056
 8157TIP3    H145886   4.794   5.150   3.579  0.3107 -0.7682  1.4463
 8157TIP3    H245887   4.690   5.056   3.523 -0.2792  0.8732 -0.2939
 8158TIP3   OH245888   6.038   1.959  12.071  0.1914  0.3730 -0.2449
 8158TIP3    H145889   5.951   1.968  12.032 -0.3256 -0.3711  0.7073
 8158TIP3    H245890   6.054   2.044  12.113 -0.8144 -0.0393  1.0240
 8159TIP3   OH245891   2.697   5.175   5.327  0.3827 -0.5654 -0.1124
 8159TIP3    H145892   2.637   5.223   5.269  0.5489  0.1218  0.2684
 8159TIP3    H245893   2.772   5.234   5.337 -0.3815  0.0975  2.1740
 8160TIP3   OH245894   0.837   5.069  12.021  0.2114 -0.0247  0.3449
 8160TIP3    H145895   0.910   5.120  12.056 -0.3508  0.6067  0.6174
 8160TIP3    H245896   0.794   5.032  12.098 -1.0669  1.4239  0.3805
 8161TIP3   OH245897   4.738   4.474  10.498  0.7122  0.1186  0.0802
 8161TIP3    H145898   4.729   4.567  10.476  1.3584  0.3537  0.7803
 8161TIP3    H245899   4.796   4.439  10.430 -0.9629 -0.1939 -1.2445
 8162TIP3   OH245900   6.432   6.480  14.840 -0.2889  0.1557 -0.2705
 8162TIP3    H145901   6.352   6.491  14.892 -0.9276 -1.6829 -0.7892
 8162TIP3    H245902   6.405   6.426  14.766  1.8522 -2.3430  0.6524
 8163TIP3   OH245903   0.491   4.190   2.246  0.6470 -0.3797 -0.3231
 8163TIP3    H145904   0.487   4.150   2.159 -0.2422  2.0038 -1.4653
 8163TIP3    H245905   0.472   4.282   2.231  0.2875  0.0894  2.4514
 8164TIP3   OH245906   2.535   2.247   0.878  0.2865  0.1371  0.8996
 8164TIP3    H145907   2.477   2.174   0.855 -1.2500  1.9847 -1.7102
 8164TIP3    H245908   2.477   2.312   0.918  1.3590  0.4856  1.9401
 8165TIP3   OH245909   0.428   2.255   5.564 -0.7862 -0.2864 -0.1792
 8165TIP3    H145910   0.428   2.266   5.659  0.7347 -2.2107  0.1157
 8165TIP3    H245911   0.504   2.199   5.547 -1.0353  0.0113 -2.5391
 8166TIP3   OH245912   2.981   1.025  14.372 -0.7035  0.2892  0.4752
 8166TIP3    H145913   2.969   1.117  14.350 -0.5368 -0.1888 -1.9162
 8166TIP3    H245914   2.977   0.979  14.288  2.5703 -1.5450  1.1550
 8167TIP3   OH245915   0.189   1.108   3.678  0.3811  0.2846 -0.1136
 8167TIP3    H145916   0.156   1.193   3.649  0.2581  0.3304  0.1587
 8167TIP3    H245917   0.227   1.069   3.600 -0.7675  0.0104 -0.5506
 8168TIP3   OH245918   3.050   4.067   6.157 -0.4876  0.1253 -0.0642
 8168TIP3    H145919   3.004   4.080   6.074  1.5593  3.1534 -0.8624
 8168TIP3    H245920   3.118   4.003   6.136 -1.0363 -0.4129 -0.2393
 8169TIP3   OH245921   5.737   5.983   3.873  0.2210 -0.2078  0.3243
 8169TIP3    H145922   5.704   5.971   3.962 -1.2432 -0.1509 -0.1820
 8169TIP3    H245923   5.813   5.926   3.867 -1.4471 -2.6422  0.6875
 8170TIP3   OH245924   1.946   5.619  11.738 -0.2933 -0.0333  0.5946
 8170TIP3    H145925   1.880   5.585  11.798 -1.4544 -1.4357 -1.3461
 8170TIP3    H245926   2.025   5.568  11.757 -0.7858 -0.7962  0.6152
 8171TIP3   OH245927   4.958   2.756   0.348  0.2163  0.3663 -0.2049
 8171TIP3    H145928   4.899   2.827   0.321  1.9629  1.9460 -0.0558
 8171TIP3    H245929   4.981   2.776   0.439  1.6712  0.3096 -0.5335
 8172TIP3   OH245930   5.565   5.384  13.803 -0.1862 -0.0788  0.8266
 8172TIP3    H145931   5.485   5.339  13.830  0.0150 -1.4755 -0.6884
 8172TIP3    H245932   5.635   5.340  13.852 -0.1309 -0.4936  0.3866
 8173TIP3   OH245933   2.128   4.402   4.759 -0.0175 -0.3040 -0.2330
 8173TIP3    H145934   2.110   4.489   4.795  1.4872 -0.4083  0.8468
 8173TIP3    H245935   2.148   4.348   4.836 -1.0095 -1.6526 -0.8715
 8174TIP3   OH245936   5.002   3.571  15.064 -0.0754  0.1716 -0.0412
 8174TIP3    H145937   5.043   3.652  15.094 -0.5278  0.6203 -0.6175
 8174TIP3    H245938   4.933   3.553  15.127 -0.0504  0.2964  0.0217
 8175TIP3   OH245939   2.488   1.958  16.290  0.2224 -0.1035  0.3123
 8175TIP3    H145940   2.488   1.967  16.195 -0.0733  0.0961  0.3286
 8175TIP3    H245941   2.501   2.047  16.323 -0.0930 -0.1080  0.4586
 8176TIP3   OH245942   2.872   5.576   2.210  0.8371  0.2446  0.2432
 8176TIP3    H145943   2.895   5.638   2.279 -0.7636  0.6736  0.4279
 8176TIP3    H245944   2.881   5.626   2.129  0.6185  0.3869  0.3071
 8177TIP3   OH245945   3.137   6.572  13.795  0.3688 -0.3434  0.0229
 8177TIP3    H145946   3.176   6.639  13.738  1.7159 -0.6094  0.5837
 8177TIP3    H245947   3.188   6.493  13.777  0.8653 -0.4198  1.6044
 8178TIP3   OH245948   4.596   4.591   1.808  0.0523  0.0208 -0.0808
 8178TIP3    H145949   4.690   4.588   1.791 -0.2527 -1.0390 -1.7154
 8178TIP3    H245950   4.559   4.641   1.735 -0.5663  1.5167  1.1791
 8179TIP3   OH245951   5.409   6.724  15.838  0.2939 -1.2275  0.2195
 8179TIP3    H145952   5.432   6.738  15.929 -1.4675  2.9552  0.2583
 8179TIP3    H245953   5.319   6.691  15.840 -0.6500  1.1243  0.1426
 8180TIP3   OH245954   4.864   6.075   2.174  0.8837  0.2453 -0.0393
 8180TIP3    H145955   4.827   5.993   2.142  1.7654 -0.4073  0.5424
 8180TIP3    H245956   4.800   6.142   2.150  0.0327 -0.6435 -0.3109
 8181TIP3   OH245957   4.291   2.683  14.024  0.1248  0.1298  0.6805
 8181TIP3    H145958   4.339   2.762  14.052  0.0001  0.4016  0.1318
 8181TIP3    H245959   4.199   2.706  14.034  0.0720  0.3389 -0.2433
 8182TIP3   OH245960   1.569   3.235  12.926  0.2872  0.1066 -0.1142
 8182TIP3    H145961   1.550   3.155  12.975  0.7127  0.0865  0.0207
 8182TIP3    H245962   1.495   3.244  12.865  0.6273 -0.8215 -0.6825
 8183TIP3   OH245963   5.643   4.696   3.420  0.7886  0.1579 -0.2164
 8183TIP3    H145964   5.678   4.668   3.505 -0.2978 -2.0144 -0.4128
 8183TIP3    H245965   5.554   4.662   3.418  0.6498  0.5228 -2.0651
 8184TIP3   OH245966   2.101   5.736  16.538 -0.0414 -0.2194 -0.1006
 8184TIP3    H145967   2.121   5.821  16.500  0.3960  0.5008  1.6556
 8184TIP3    H245968   2.060   5.687  16.466  0.3289  1.2108 -1.3421
 8185TIP3   OH245969   5.145   5.333   6.039  0.6303  0.2758 -0.7334
 8185TIP3    H145970   5.212   5.266   6.047 -0.0555 -0.2351  2.2263
 8185TIP3    H245971   5.192   5.416   6.048  1.1180  0.0356 -1.0937
 8186TIP3   OH245972   2.430   1.612  11.080 -0.6012  0.2560  0.2327
 8186TIP3    H145973   2.369   1.557  11.129 -0.8742  0.1080 -0.2675
 8186TIP3    H245974   2.511   1.609  11.131 -0.9467  0.2872  0.7898
 8187TIP3   OH245975   1.013   3.512   4.505 -0.3241 -0.4432 -0.2061
 8187TIP3    H145976   1.098   3.521   4.548 -0.1370 -1.3466 -0.3633
 8187TIP3    H245977   0.964   3.453   4.561 -0.6127 -0.4409 -0.4533
 8188TIP3   OH245978   6.069   5.042  14.335  0.9902 -0.2888 -0.1060
 8188TIP3    H145979   6.080   5.067  14.243  0.4910  0.6864  0.0839
 8188TIP3    H245980   6.154   5.006  14.360  1.2886 -0.1040 -0.8119
 8189TIP3   OH245981   2.010   4.271  11.476  0.0938 -0.0474  0.3227
 8189TIP3    H145982   1.948   4.339  11.448  1.7381  1.9430  1.2959
 8189TIP3    H245983   1.969   4.232  11.553 -1.0088 -0.4066 -0.4218
 8190TIP3   OH245984   6.691   1.740  12.155  0.1124  0.5835 -0.5740
 8190TIP3    H145985   6.630   1.761  12.084  0.3520  2.0331 -0.3981
 8190TIP3    H245986   6.662   1.796  12.228  1.0067  0.5175 -0.1533
 8191TIP3   OH245987   0.425   3.867   0.668 -0.4350  0.0656  0.1979
 8191TIP3    H145988   0.443   3.785   0.624 -0.2253  0.3608 -0.2721
 8191TIP3    H245989   0.484   3.930   0.627 -1.1232  0.6145  0.0355
 8192TIP3   OH245990   6.740   0.964   6.972 -0.6543  0.0364 -0.7039
 8192TIP3    H145991   6.688   1.004   7.041  0.2980 -0.2849  0.2274
 8192TIP3    H245992   6.725   0.870   6.982  1.2912 -0.1869  0.6139
 8193TIP3   OH245993   1.083   2.221  11.221 -0.3599 -0.0202 -0.0107
 8193TIP3    H145994   1.162   2.206  11.274 -0.5509 -0.4820  0.1485
 8193TIP3    H245995   1.016   2.247  11.285 -0.6660 -0.8534  0.0164
 8194TIP3   OH245996   3.819   5.739  16.498  0.1014 -0.0550  0.5088
 8194TIP3    H145997   3.750   5.802  16.516  0.6392  0.5925  0.3513
 8194TIP3    H245998   3.773   5.658  16.476 -0.5859 -0.0859  1.9982
 8195TIP3   OH245999   1.637   4.336   1.303 -0.5013  0.0692 -0.1228
 8195TIP3    H146000   1.698   4.305   1.236 -1.8046  1.1009 -1.8754
 8195TIP3    H246001   1.685   4.403   1.351  0.7977 -1.3836  0.7141
 8196TIP3   OH246002   4.355   5.324  17.200 -0.6146  0.0831  0.3960
 8196TIP3    H146003   4.385   5.396  17.255 -1.9994  1.4636 -0.5590
 8196TIP3    H246004   4.288   5.364  17.143 -3.0908 -2.3957  1.3381
 8197TIP3   OH246005   3.482   3.919   1.911 -0.1267 -0.3871  0.0898
 8197TIP3    H146006   3.567   3.948   1.943 -0.6839  0.2813  0.9961
 8197TIP3    H246007   3.492   3.917   1.815  0.5474  0.8400  0.1107
 8198TIP3   OH246008   1.510   6.444   5.656 -0.1545 -1.0407 -0.0961
 8198TIP3    H146009   1.442   6.465   5.592 -0.8915  0.1175  1.0185
 8198TIP3    H246010   1.473   6.471   5.740  2.0618  0.6745  0.4316
 8199TIP3   OH246011   2.509   6.631  14.382 -0.1565 -0.1147 -0.3314
 8199TIP3    H146012   2.472   6.577  14.452 -3.7372  1.5800 -0.6991
 8199TIP3    H246013   2.564   6.695  14.428  2.3486 -2.5204  0.2724
 8200TIP3   OH246014   1.080   6.704   5.733 -0.0613 -0.3642 -0.1390
 8200TIP3    H146015   1.023   6.686   5.658 -0.2709  2.4488 -0.7705
 8200TIP3    H246016   1.046   6.786   5.769  0.9483 -0.8809  2.1696
 8201TIP3   OH246017   0.291   2.201  15.748  0.6836  0.6439 -0.7706
 8201TIP3    H146018   0.248   2.140  15.689  1.1483  0.6875 -1.1671
 8201TIP3    H246019   0.299   2.154  15.831 -1.2832  1.0886 -0.2688
 8202TIP3   OH246020   3.500   1.265   5.385  0.0746 -0.3201  0.4619
 8202TIP3    H146021   3.562   1.338   5.391  0.9528 -0.9898 -0.1955
 8202TIP3    H246022   3.444   1.286   5.311 -0.6038  0.3586  1.1475
 8203TIP3   OH246023   6.685   5.793  11.744 -0.7681  0.1887 -0.2156
 8203TIP3    H146024   6.696   5.705  11.779 -0.4137  0.4873  0.4293
 8203TIP3    H246025   6.761   5.842  11.776 -1.1920  0.8461 -0.1892
 8204TIP3   OH246026   1.989   0.046  14.878  0.0290  0.4458 -0.0181
 8204TIP3    H146027   1.940   0.110  14.826 -1.4343 -1.0403 -0.5830
 8204TIP3    H246028   2.071   0.033  14.830 -0.3432  0.7469 -0.7504
 8205TIP3   OH246029   0.090   2.037   2.083 -0.4704  0.2029 -0.0840
 8205TIP3    H146030   0.020   2.084   2.038 -1.2486 -2.1243 -1.4953
 8205TIP3    H246031   0.077   1.945   2.058  2.5991 -0.4302  0.2751
 8206TIP3   OH246032   0.798   1.954  15.608  0.3938 -0.3378  0.1819
 8206TIP3    H146033   0.717   2.005  15.621 -0.1070 -1.3596  1.2214
 8206TIP3    H246034   0.823   1.927  15.696  1.9968  0.1138 -0.1134
 8207TIP3   OH246035   6.424   2.174   1.987 -0.0585 -0.1004 -0.1196
 8207TIP3    H146036   6.373   2.093   1.980 -2.1127  0.8446  2.1960
 8207TIP3    H246037   6.359   2.241   2.008  1.9365  1.5788  1.0848
 8208TIP3   OH246038   3.174   1.844  11.202  0.5960  0.4943 -0.1394
 8208TIP3    H146039   3.104   1.823  11.140 -0.4108 -0.0167  1.1213
 8208TIP3    H246040   3.251   1.800  11.167  0.0368  0.1474 -0.9733
 8209TIP3   OH246041   4.045   3.205  14.264  0.4652  0.4826  0.2603
 8209TIP3    H146042   4.115   3.268  14.282  0.3830  0.8427 -0.6528
 8209TIP3    H246043   4.069   3.166  14.180  0.5594 -0.7774  0.8623
 8210TIP3   OH246044   1.290   3.558   4.542  0.0814  0.4818  0.8622
 8210TIP3    H146045   1.315   3.647   4.570  1.0796  0.6024 -0.3169
 8210TIP3    H246046   1.371   3.521   4.507 -0.8777 -0.0162 -0.9228
 8211TIP3   OH246047   0.439   6.053  13.292  0.4620  0.0546 -0.1374
 8211TIP3    H146048   0.410   5.964  13.314  1.1136 -0.4206 -1.1201
 8211TIP3    H246049   0.445   6.053  13.196  1.8237  0.7134 -0.0723
 8212TIP3   OH246050   6.546   1.489  15.594 -0.3956  0.3449 -0.3400
 8212TIP3    H146051   6.625   1.449  15.560 -1.5257 -1.8695 -0.5482
 8212TIP3    H246052   6.538   1.455  15.683 -0.7442  1.1398 -0.0521
 8213TIP3   OH246053   5.657   1.143  15.473  0.3373 -0.6945  0.1605
 8213TIP3    H146054   5.676   1.090  15.550  0.2082 -0.0403  0.6474
 8213TIP3    H246055   5.626   1.080  15.407  0.0393 -1.2003  0.7777
 8214TIP3   OH246056   3.475   6.302   1.808 -0.4986 -0.6739  0.6126
 8214TIP3    H146057   3.454   6.309   1.715 -1.1141 -0.8546  0.7324
 8214TIP3    H246058   3.418   6.232   1.840 -1.6048  0.5621  1.4893
 8215TIP3   OH246059   2.609   2.063   5.476  0.4715  0.6296 -0.8163
 8215TIP3    H146060   2.528   2.077   5.427  0.7343 -1.5796 -2.0243
 8215TIP3    H246061   2.637   2.151   5.501 -1.6930  1.5413 -1.3307
 8216TIP3   OH246062   4.044   0.456  16.248  0.3012 -0.5388 -0.0075
 8216TIP3    H146063   4.036   0.378  16.193 -0.2931  0.2509 -1.0718
 8216TIP3    H246064   3.964   0.458  16.299 -0.4484  0.2551 -1.1804
 8217TIP3   OH246065   2.889   6.753   3.650  0.2388 -0.3526  0.3895
 8217TIP3    H146066   2.896   6.842   3.616 -1.6369 -0.6140 -0.8195
 8217TIP3    H246067   2.821   6.759   3.718 -0.5462 -1.0025 -0.3187
 8218TIP3   OH246068   6.107   3.343   5.959 -0.2755 -0.1046  0.8052
 8218TIP3    H146069   6.140   3.313   6.044  0.2994 -2.5273 -0.1932
 8218TIP3    H246070   6.012   3.341   5.968 -0.4232 -4.3427  0.3016
 8219TIP3   OH246071   4.163   1.020  14.430  0.0610  0.3520 -0.0297
 8219TIP3    H146072   4.159   0.955  14.500 -1.6194 -1.5623 -1.7710
 8219TIP3    H246073   4.210   0.976  14.359  0.1079  1.5553 -0.7634
 8220TIP3   OH246074   6.614   4.827   0.355  0.3968  0.2264  0.1767
 8220TIP3    H146075   6.674   4.876   0.411  3.2075 -3.8503  1.1613
 8220TIP3    H246076   6.567   4.769   0.416  1.4397 -2.2932 -1.2678
 8221TIP3   OH246077   3.190   5.284  13.337 -0.3999 -0.1086 -0.5498
 8221TIP3    H146078   3.175   5.253  13.426 -1.1803  0.9112 -0.3084
 8221TIP3    H246079   3.132   5.360  13.328 -2.0155 -1.4646 -2.6323
 8222TIP3   OH246080   5.491   4.575   2.538  0.3861  0.2283 -0.1083
 8222TIP3    H146081   5.493   4.667   2.512  1.2916  0.1598 -0.3193
 8222TIP3    H246082   5.560   4.534   2.486  1.1671 -0.2208  1.2255
 8223TIP3   OH246083   0.998   1.683  14.310 -0.4370 -0.0006 -0.5420
 8223TIP3    H146084   1.084   1.672  14.271 -1.0128  0.8914 -2.1759
 8223TIP3    H246085   0.940   1.704  14.236 -2.1166 -0.8521  0.4660
 8224TIP3   OH246086   4.473   3.759  11.186 -0.4108  0.2617 -0.0827
 8224TIP3    H146087   4.550   3.738  11.132  0.0605  0.9283  0.3231
 8224TIP3    H246088   4.469   3.854  11.186 -0.8813  0.2434  0.4019
 8225TIP3   OH246089   4.264   3.967  12.486 -0.3326  0.3638 -0.9626
 8225TIP3    H146090   4.216   3.950  12.404 -1.3336 -1.1751 -0.1066
 8225TIP3    H246091   4.301   3.882  12.510  3.9924  1.6471 -2.1791
 8226TIP3   OH246092   1.021   3.475   2.731  1.2932 -0.1940 -0.3150
 8226TIP3    H146093   1.057   3.478   2.642 -1.1392  0.2651 -1.3557
 8226TIP3    H246094   0.934   3.436   2.721  1.2374 -0.8269  1.9981
 8227TIP3   OH246095   2.512   1.591   0.161  0.1919 -0.2551  0.2293
 8227TIP3    H146096   2.451   1.527   0.197 -0.1094  0.0684  0.3050
 8227TIP3    H246097   2.598   1.563   0.192  0.2573 -1.4757 -0.9660
 8228TIP3   OH246098   0.231   5.814  14.411 -0.5321 -0.2979 -0.3962
 8228TIP3    H146099   0.143   5.794  14.379 -0.6725  0.1132 -0.2687
 8228TIP3    H246100   0.226   5.796  14.505 -1.0462  1.5979 -0.0276
 8229TIP3   OH246101   2.444   0.373  14.698 -0.4630 -0.3153  0.0104
 8229TIP3    H146102   2.453   0.420  14.616 -0.4001  0.4980  0.4692
 8229TIP3    H246103   2.486   0.288  14.683 -0.1917 -0.0565 -0.6970
 8230TIP3   OH246104   1.905   5.049   1.575  0.5198  0.0160  0.0901
 8230TIP3    H146105   1.833   4.995   1.543 -1.0600  2.7021 -1.2889
 8230TIP3    H246106   1.973   5.040   1.509 -0.3351  0.7927 -0.9435
 8231TIP3   OH246107   2.479   6.501  17.114 -0.2420 -0.1186 -0.1925
 8231TIP3    H146108   2.387   6.516  17.091 -0.2078 -0.2401 -0.4110
 8231TIP3    H246109   2.521   6.477  17.031 -0.6472 -3.2861  0.3882
 8232TIP3   OH246110   5.678   3.181  15.308  0.1884  0.4597 -0.1581
 8232TIP3    H146111   5.698   3.250  15.370  1.0113 -0.8469  1.0944
 8232TIP3    H246112   5.759   3.129  15.303  1.2165  2.0287 -4.4757
 8233TIP3   OH246113   4.079   1.729   2.209 -0.7430 -0.1603  0.7987
 8233TIP3    H146114   4.094   1.638   2.184 -2.2723 -0.1775 -0.2181
 8233TIP3    H246115   4.166   1.766   2.221 -0.0873 -1.5880  0.5836
 8234TIP3   OH246116   5.749   2.143  15.321  0.0298  0.5415 -0.9274
 8234TIP3    H146117   5.803   2.087  15.266  0.2702  1.2076 -1.3792
 8234TIP3    H246118   5.675   2.168  15.264  0.1968  1.1028 -0.9050
 8235TIP3   OH246119   6.511   3.769  13.156 -0.1960 -0.4396  0.2954
 8235TIP3    H146120   6.519   3.769  13.061 -0.8716 -1.8877  0.2069
 8235TIP3    H246121   6.433   3.821  13.174  1.9680  3.0974  0.3669
 8236TIP3   OH246122   4.908   5.522   1.061  0.3789 -0.0021 -0.0133
 8236TIP3    H146123   4.911   5.446   1.119 -0.4962  1.1034  1.5692
 8236TIP3    H246124   4.941   5.490   0.977 -0.5418 -2.2795  0.4233
 8237TIP3   OH246125   4.513   0.187  14.791 -0.0349  0.0386  0.1987
 8237TIP3    H146126   4.568   0.207  14.866  0.1870 -0.4872  0.1750
 8237TIP3    H246127   4.426   0.172  14.827 -0.3954  1.7357  0.1620
 8238TIP3   OH246128   2.661   2.604  12.221 -0.3788 -0.0376 -0.3706
 8238TIP3    H146129   2.649   2.600  12.315 -1.5483  2.3369 -0.3573
 8238TIP3    H246130   2.576   2.631  12.186 -0.7648 -3.2714 -2.4239
 8239TIP3   OH246131   1.144   2.387  13.769  0.2668 -0.2538  0.3619
 8239TIP3    H146132   1.149   2.292  13.779 -0.7024 -0.3380  0.1310
 8239TIP3    H246133   1.161   2.421  13.857 -0.6113 -0.6955  0.7139
 8240TIP3   OH246134   2.300   0.086   2.199  0.4245 -0.2470 -0.2664
 8240TIP3    H146135   2.317   0.071   2.292 -0.4151 -1.3617 -0.2739
 8240TIP3    H246136   2.209   0.061   2.186  0.4174  0.2525 -1.3216
 8241TIP3   OH246137   1.785   0.433   3.526  0.4302  0.0007  0.4404
 8241TIP3    H146138   1.820   0.509   3.478 -1.5632  0.3572 -0.5363
 8241TIP3    H246139   1.819   0.444   3.615 -0.2979  2.4360  0.5066
 8242TIP3   OH246140   3.925   2.407  13.119 -0.1083 -0.4131 -0.6158
 8242TIP3    H146141   3.939   2.495  13.085 -0.5044  1.4017  3.4082
 8242TIP3    H246142   4.012   2.377  13.146 -0.3523  0.1038  0.8332
 8243TIP3   OH246143   2.769   0.536   3.980  0.7015 -0.0161 -0.6004
 8243TIP3    H146144   2.823   0.473   4.026  0.5216  0.9250  0.9679
 8243TIP3    H246145   2.785   0.619   4.024 -1.4557  0.4317 -0.5284
 8244TIP3   OH246146   6.503   4.856  13.156 -0.2181 -0.1489 -0.1163
 8244TIP3    H146147   6.504   4.797  13.081  0.0451  0.1209 -0.3293
 8244TIP3    H246148   6.472   4.802  13.229  1.3278 -0.9255  0.0114
 8245TIP3   OH246149   5.531   2.880  16.914 -0.3812 -0.3121  0.3825
 8245TIP3    H146150   5.582   2.925  16.981  0.7828 -2.6905  1.1865
 8245TIP3    H246151   5.476   2.819  16.962 -0.2996 -1.3213 -0.7516
 8246TIP3   OH246152   0.628   6.718   3.177 -0.3241 -0.5713  0.9778
 8246TIP3    H146153   0.603   6.784   3.241  0.1931  1.1242 -0.4834
 8246TIP3    H246154   0.722   6.708   3.187  0.0531  0.9651 -0.5697
 8247TIP3   OH246155   5.180   4.540  16.560  0.0698  0.0094  0.0369
 8247TIP3    H146156   5.174   4.460  16.613  0.4752 -0.8039 -1.0931
 8247TIP3    H246157   5.266   4.575  16.580 -0.2363  0.3563  0.7845
 8248TIP3   OH246158   2.659   6.552  16.632  0.4154 -0.1021  0.5775
 8248TIP3    H146159   2.629   6.627  16.581  0.6505 -0.7512 -0.5677
 8248TIP3    H246160   2.674   6.586  16.720 -0.7667  0.8866  0.4214
 8249TIP3   OH246161   0.217   2.465  13.360 -0.3632  0.3061  0.3113
 8249TIP3    H146162   0.142   2.463  13.302  0.2514  0.3361 -0.5034
 8249TIP3    H246163   0.258   2.550  13.343 -0.6659  0.6913  1.4270
 8250TIP3   OH246164   1.663   4.718   1.218  0.4494  0.3273 -0.3602
 8250TIP3    H146165   1.718   4.656   1.171 -0.8244 -1.1803  0.0483
 8250TIP3    H246166   1.598   4.747   1.154  0.2908  0.2828 -0.2211
 8251TIP3   OH246167   5.975   5.927  12.594 -0.4035 -0.3930  0.2432
 8251TIP3    H146168   6.036   5.993  12.629  0.5551 -0.8273 -0.5634
 8251TIP3    H246169   5.913   5.912  12.666  0.7654 -0.3460  1.3028
 8252TIP3   OH246170   1.924   2.223  13.450  0.2927 -0.6501 -0.1596
 8252TIP3    H146171   1.980   2.297  13.425  1.1854 -0.9711  0.8033
 8252TIP3    H246172   1.981   2.146  13.440  0.4527 -0.8725  1.9755
 8253TIP3   OH246173   3.124   5.021  13.020  0.3093  0.3747 -0.0739
 8253TIP3    H146174   3.154   4.934  12.995  1.0491  1.0070 -1.5251
 8253TIP3    H246175   3.166   5.038  13.104 -0.2030 -0.8325  0.4435
 8254TIP3   OH246176   1.791   4.448   2.476  0.8532  0.1355  0.2923
 8254TIP3    H146177   1.709   4.493   2.462  0.9616  0.6931  1.3807
 8254TIP3    H246178   1.833   4.448   2.390 -0.7663 -1.1905 -0.5573
 8255TIP3   OH246179   3.920   1.056   0.411  0.4749 -0.3277  0.3221
 8255TIP3    H146180   3.878   1.141   0.425  0.8415 -0.3260  1.4677
 8255TIP3    H246181   3.853   0.992   0.435  0.8032 -0.3365  1.2246
 8256TIP3   OH246182   2.889   3.412  12.276 -0.2246  0.0410  0.1791
 8256TIP3    H146183   2.927   3.373  12.354  0.3375  1.1667  0.4934
 8256TIP3    H246184   2.938   3.372  12.203  0.3987  0.2083  0.4977
 8257TIP3   OH246185   4.178   3.041  12.298 -0.2388  0.9687  0.6770
 8257TIP3    H146186   4.124   3.053  12.376 -3.0534 -1.0697 -0.7708
 8257TIP3    H246187   4.245   2.979  12.325 -1.2905  0.1355  1.4793
 8258TIP3   OH246188   6.501   3.817   3.329 -0.1321 -0.8235  0.2616
 8258TIP3    H146189   6.581   3.770   3.304 -0.1672 -1.6175  1.5408
 8258TIP3    H246190   6.480   3.784   3.416 -1.1300  0.3431  0.4933
 8259TIP3   OH246191   3.869   4.765   5.435 -0.8558 -0.3587 -0.0490
 8259TIP3    H146192   3.840   4.817   5.360 -0.0209 -1.2509 -1.0173
 8259TIP3    H246193   3.847   4.675   5.412 -0.4260 -0.6681  0.7116
 8260TIP3   OH246194   4.564   1.294  10.911 -0.1327 -0.3158 -0.3533
 8260TIP3    H146195   4.594   1.222  10.967 -1.4238 -1.1941 -0.7642
 8260TIP3    H246196   4.532   1.252  10.832 -2.2119  0.5649 -0.0436
 8261TIP3   OH246197   4.628   6.230   1.704  0.2681  0.0673 -0.1610
 8261TIP3    H146198   4.576   6.217   1.624  1.8595 -0.5253 -1.1606
 8261TIP3    H246199   4.604   6.156   1.759  0.8655 -0.8682 -1.1031
 8262TIP3   OH246200   1.383   3.384  16.495 -0.2446  0.6749  0.3143
 8262TIP3    H146201   1.321   3.356  16.562 -0.9104 -0.4995 -0.7478
 8262TIP3    H246202   1.469   3.363  16.531 -0.5207  1.1096  1.2576
 8263TIP3   OH246203   6.015   4.855  15.147 -0.5521 -0.0951 -0.0327
 8263TIP3    H146204   5.997   4.945  15.175 -1.7271  0.5847 -2.6401
 8263TIP3    H246205   6.017   4.860  15.051  2.5704 -2.3081 -0.2140
 8264TIP3   OH246206   1.154   6.215   3.099 -0.2112 -0.3204  0.0241
 8264TIP3    H146207   1.109   6.269   3.035 -0.3906  0.3946  0.7375
 8264TIP3    H246208   1.218   6.273   3.140  0.1786 -0.8725  0.2159
 8265TIP3   OH246209   5.181   0.428  11.271 -0.3344  0.1799  0.3927
 8265TIP3    H146210   5.157   0.353  11.217  0.9571 -0.7100  1.0052
 8265TIP3    H246211   5.158   0.402  11.360  1.3550 -0.0786  0.7890
 8266TIP3   OH246212   2.220   1.522  13.925  0.0086 -0.1570  0.0881
 8266TIP3    H146213   2.207   1.526  13.830 -0.2958  2.2135  0.1720
 8266TIP3    H246214   2.137   1.550  13.962  1.0313  2.0534  0.9233
 8267TIP3   OH246215   1.420   3.990   5.800  0.7450 -0.2451 -0.3454
 8267TIP3    H146216   1.475   3.984   5.722  0.4212  0.1628 -0.6077
 8267TIP3    H246217   1.465   3.937   5.866 -0.2114 -2.6058 -1.5065
 8268TIP3   OH246218   6.595   1.667  10.928  0.6336  0.2471 -0.5341
 8268TIP3    H146219   6.563   1.746  10.972 -3.2585 -1.0122 -0.6949
 8268TIP3    H246220   6.578   1.684  10.835 -2.3037 -1.3814 -0.4307
 8269TIP3   OH246221   2.828   4.962   5.463 -0.6296  0.1295 -0.1409
 8269TIP3    H146222   2.777   5.043   5.465 -0.9947 -0.1013  0.4342
 8269TIP3    H246223   2.820   4.930   5.373 -1.5643  0.0689 -0.0466
 8270TIP3   OH246224   3.735   5.459   6.483  0.8441  0.2872 -0.3102
 8270TIP3    H146225   3.795   5.532   6.469  0.8165  0.4685  0.4769
 8270TIP3    H246226   3.785   5.396   6.534  0.6389  0.0628 -0.3833
 8271TIP3   OH246227   6.390   0.581   4.958 -0.4973 -0.0213 -0.3149
 8271TIP3    H146228   6.427   0.496   4.935 -0.4348 -0.0592 -0.0744
 8271TIP3    H246229   6.370   0.622   4.874  1.8943  0.8163 -0.5504
 8272TIP3   OH246230   1.923   2.123   5.513  0.1388  0.2519 -0.1790
 8272TIP3    H146231   1.925   2.027   5.511 -0.0694  0.2034  1.2429
 8272TIP3    H246232   1.864   2.144   5.586 -1.3495  1.4700 -1.6560
 8273TIP3   OH246233   6.263   5.923   3.066 -0.4009  0.2688 -0.7177
 8273TIP3    H146234   6.184   5.875   3.093 -0.7952  0.3242 -1.7286
 8273TIP3    H246235   6.233   6.013   3.053 -0.0042  0.4531 -0.3875
 8274TIP3   OH246236   4.807   2.098  12.299  0.3253 -0.5041  0.1757
 8274TIP3    H146237   4.812   2.137  12.387  1.7642 -0.3189  0.0374
 8274TIP3    H246238   4.875   2.143  12.249 -0.3976 -0.6965 -1.0191
 8275TIP3   OH246239   0.056   4.836   3.703  0.4157 -0.0690 -0.1611
 8275TIP3    H146240   0.075   4.757   3.652  0.5389 -0.4389  0.4531
 8275TIP3    H246241   0.020   4.897   3.638  0.3752 -0.6006 -0.6569
 8276TIP3   OH246242   1.392   3.947   3.753 -0.2155 -0.3531 -0.3352
 8276TIP3    H146243   1.326   3.883   3.777 -0.1296 -0.7264 -1.0596
 8276TIP3    H246244   1.347   4.032   3.757 -0.0172 -0.2866  1.8241
 8277TIP3   OH246245   1.007   5.918  14.710  0.0831  0.1107 -0.6552
 8277TIP3    H146246   0.934   5.980  14.707 -0.9924 -1.1459 -1.2140
 8277TIP3    H246247   1.079   5.963  14.665 -0.3469  1.3359 -0.1589
 8278TIP3   OH246248   3.608   6.455  15.736 -0.1423  0.4414  0.1845
 8278TIP3    H146249   3.593   6.448  15.830 -2.4399  0.1136 -0.1457
 8278TIP3    H246250   3.664   6.380  15.715  1.1065  0.9862  1.3603
 8279TIP3   OH246251   6.399   1.049  11.856 -0.7986 -0.3426 -0.1020
 8279TIP3    H146252   6.345   1.029  11.932 -1.8399 -0.0834 -0.7597
 8279TIP3    H246253   6.489   1.050  11.890 -1.3274  0.9443  1.3898
 8280TIP3   OH246254   1.315   4.645  13.930  0.0953  0.2224 -0.0876
 8280TIP3    H146255   1.346   4.602  13.851  1.7134  2.4610 -0.7601
 8280TIP3    H246256   1.225   4.671  13.909 -0.3311 -1.3169 -0.2602
 8281TIP3   OH246257   4.947   2.120   3.782 -0.6105 -0.5908 -0.1632
 8281TIP3    H146258   4.944   2.052   3.850 -0.2899 -0.0600  0.3925
 8281TIP3    H246259   4.951   2.202   3.831  0.5383 -0.2403 -0.8155
 8282TIP3   OH246260   4.818   4.357  12.054  0.9014  0.7518  0.6842
 8282TIP3    H146261   4.910   4.361  12.080  1.4773 -1.4867 -0.7616
 8282TIP3    H246262   4.775   4.312  12.127  1.8567 -2.2246 -0.4165
 8283TIP3   OH246263   4.637   4.403  13.936 -0.1592  0.0466  0.1780
 8283TIP3    H146264   4.630   4.334  13.870 -1.2606 -0.0162  0.3386
 8283TIP3    H246265   4.567   4.465  13.913 -0.4366  0.1132  1.1793
 8284TIP3   OH246266   3.423   0.931   4.967  0.2205 -0.3147 -0.1012
 8284TIP3    H146267   3.362   0.857   4.969  0.2656 -0.3677 -0.6744
 8284TIP3    H246268   3.369   1.006   4.942  0.6983 -0.6786 -2.4116
 8285TIP3   OH246269   0.801   4.235  17.015  0.6428  0.3947  0.2682
 8285TIP3    H146270   0.852   4.306  16.977  1.6504 -0.1574  0.5533
 8285TIP3    H246271   0.810   4.247  17.109 -0.7198  0.9559  0.3534
 8286TIP3   OH246272   6.637   6.228  13.814  0.2904  0.1777  0.0594
 8286TIP3    H146273   6.732   6.234  13.804  0.3095 -0.7648 -0.4094
 8286TIP3    H246274   6.606   6.197  13.729 -0.6960  2.6587 -0.5671
 8287TIP3   OH246275   1.860   4.223  16.990 -0.0478  0.3834 -0.6377
 8287TIP3    H146276   1.863   4.153  17.054  0.7745  0.1812 -0.8835
 8287TIP3    H246277   1.930   4.202  16.928  0.3525  1.5315 -0.5992
 8288TIP3   OH246278   1.925   4.328  16.536  0.1681 -0.3056  0.1178
 8288TIP3    H146279   1.858   4.359  16.597 -0.4001 -1.0348 -0.1165
 8288TIP3    H246280   1.948   4.241  16.568  1.2529  0.0623  0.3797
 8289TIP3   OH246281   0.750   6.397  15.401 -0.2531 -0.3694 -0.1680
 8289TIP3    H146282   0.835   6.376  15.362 -0.1663 -0.5031  0.0911
 8289TIP3    H246283   0.729   6.320  15.454 -0.0581  0.0778  0.5710
 8290TIP3   OH246284   0.876   2.939  15.784  0.0798 -0.1773 -0.3153
 8290TIP3    H146285   0.908   2.962  15.696  1.8001  2.1199  0.8140
 8290TIP3    H246286   0.954   2.914  15.832 -0.6477 -0.0509  0.9639
 8291TIP3   OH246287   5.488   4.369  12.799 -0.1020  0.2197  0.4188
 8291TIP3    H146288   5.456   4.360  12.889 -0.6835 -0.2957  0.1640
 8291TIP3    H246289   5.443   4.447  12.766  1.3335  1.3888  1.0772
 8292TIP3   OH246290   3.379   5.619   6.838 -0.4250 -0.0043 -0.9569
 8292TIP3    H146291   3.421   5.534   6.830 -0.0311  0.2320 -1.4644
 8292TIP3    H246292   3.287   5.603   6.816 -0.3216 -0.2702 -1.1922
 8293TIP3   OH246293   4.266   2.495   2.395  0.2542 -0.1817 -0.1138
 8293TIP3    H146294   4.326   2.567   2.414  0.5782  0.2538 -2.4028
 8293TIP3    H246295   4.178   2.534   2.402  0.2229 -0.5803  2.3166
 8294TIP3   OH246296   6.154   4.761   5.517  0.4389 -0.3646 -0.7925
 8294TIP3    H146297   6.199   4.698   5.573  0.0772  0.0002 -0.0851
 8294TIP3    H246298   6.102   4.815   5.577  1.8721  1.5861 -1.1952
 8295TIP3   OH246299   0.629   3.259   3.162 -0.7168  0.0446  0.1498
 8295TIP3    H146300   0.640   3.235   3.070  1.9665 -1.9152  0.8634
 8295TIP3    H246301   0.562   3.199   3.194  0.4063 -1.2990  0.0858
 8296TIP3   OH246302   0.321   3.565   1.863  0.1018 -0.1526  0.1280
 8296TIP3    H146303   0.358   3.486   1.902  1.6970  0.3615 -0.2551
 8296TIP3    H246304   0.309   3.542   1.771  0.2306 -0.0741  0.0907
 8297TIP3   OH246305   6.039   6.519   3.981  0.2960 -0.1864  0.0725
 8297TIP3    H146306   6.116   6.486   3.934 -0.5457  0.5393 -1.9186
 8297TIP3    H246307   5.982   6.442   3.990 -0.2696  0.0040 -1.6653
 8298TIP3   OH246308   6.530   0.606   2.810 -0.2131 -0.2411 -0.2435
 8298TIP3    H146309   6.458   0.584   2.751  2.3146  0.0544 -3.7973
 8298TIP3    H246310   6.569   0.522   2.834  0.9902 -0.3498 -2.2828
 8299TIP3   OH246311   5.146   6.132   2.125 -0.4587  0.3598 -0.2844
 8299TIP3    H146312   5.168   6.089   2.207  0.1833 -2.8503 -1.9530
 8299TIP3    H246313   5.072   6.082   2.090 -1.3675  2.2487 -1.2531
 8300TIP3   OH246314   4.475   0.642  17.291 -0.0344  0.1744 -0.3833
 8300TIP3    H146315   4.550   0.697  17.268  0.5981 -0.3679  0.3031
 8300TIP3    H246316   4.432   0.690  17.362 -0.2939  0.4455 -0.7206
 8301TIP3   OH246317   5.910   2.433   5.424  0.0803  0.1875 -0.0828
 8301TIP3    H146318   5.884   2.416   5.514 -0.6829  1.3376 -0.0664
 8301TIP3    H246319   5.873   2.360   5.374 -0.9460  0.4138  0.3155
 8302TIP3   OH246320   5.376   0.388   4.445 -0.4869  0.0120 -0.0657
 8302TIP3    H146321   5.457   0.338   4.432 -1.6338 -1.6045 -1.2345
 8302TIP3    H246322   5.362   0.387   4.540  0.4559 -0.3291  0.0808
 8303TIP3   OH246323   0.521   5.896  16.975  0.4590  0.2153 -0.0875
 8303TIP3    H146324   0.470   5.976  16.957  0.1587 -0.0776 -0.5707
 8303TIP3    H246325   0.599   5.927  17.020 -0.2484  0.6590  0.8572
 8304TIP3   OH246326   4.786   5.010   4.790 -0.2338  0.5027  0.0916
 8304TIP3    H146327   4.816   5.100   4.793 -2.0437  1.3093 -2.4483
 8304TIP3    H246328   4.797   4.983   4.699 -2.6987 -0.6798  0.0564
 8305TIP3   OH246329   2.734   4.031  11.503  1.0416 -0.2621 -0.5834
 8305TIP3    H146330   2.666   3.963  11.503 -1.1508  1.7448 -2.4967
 8305TIP3    H246331   2.723   4.076  11.586  0.1439 -0.1418 -0.7474
 8306TIP3   OH246332   3.465   5.079  13.432 -0.1132 -0.0381 -0.2859
 8306TIP3    H146333   3.505   5.161  13.461  0.6504 -0.2297 -0.7828
 8306TIP3    H246334   3.538   5.017  13.429 -0.6036 -0.6135 -0.3765
 8307TIP3   OH246335   5.925   4.916   1.889  0.6500 -0.3524  0.0492
 8307TIP3    H146336   5.951   4.835   1.845 -2.5592 -2.2448  1.2664
 8307TIP3    H246337   5.838   4.897   1.924 -0.0478  3.5128  0.8550
 8308TIP3   OH246338   4.805   1.076  14.237  0.3030  0.2286  0.1811
 8308TIP3    H146339   4.846   0.990  14.240 -1.1359 -0.4744  1.3530
 8308TIP3    H246340   4.870   1.135  14.275  0.0166 -1.0093  2.8929
 8309TIP3   OH246341   2.323   1.770   4.932  0.0581 -0.1554 -0.2600
 8309TIP3    H146342   2.339   1.766   5.026  1.2069  0.4733 -0.4139
 8309TIP3    H246343   2.375   1.697   4.896 -1.4908 -1.2967 -0.2998
 8310TIP3   OH246344   6.687   2.176   1.941  0.0598 -0.1290 -0.8295
 8310TIP3    H146345   6.592   2.179   1.948 -0.5036 -0.3010 -5.4518
 8310TIP3    H246346   6.709   2.249   1.884  2.9486  0.6555  1.0831
 8311TIP3   OH246347   6.541   3.760  13.751 -0.0681 -0.2833  0.0719
 8311TIP3    H146348   6.604   3.758  13.823  1.9280  0.1107 -1.5573
 8311TIP3    H246349   6.509   3.850  13.750 -2.3430 -0.9529  2.1702
 8312TIP3   OH246350   2.576   3.620   4.035  0.9119 -0.4968 -0.1711
 8312TIP3    H146351   2.560   3.526   4.023  0.9770 -0.6036  0.5498
 8312TIP3    H246352   2.616   3.627   4.121 -1.2465  0.4092  0.8400
 8313TIP3   OH246353   2.252   5.143  12.594  0.0569  0.3525  0.9403
 8313TIP3    H146354   2.329   5.086  12.595 -0.1147  0.0081 -0.9825
 8313TIP3    H246355   2.288   5.230  12.573  0.0981  0.5789  1.8949
 8314TIP3   OH246356   2.886   2.257   4.713  0.0828 -0.4715  0.4473
 8314TIP3    H146357   2.863   2.349   4.698 -0.0458 -0.4397  0.8372
 8314TIP3    H246358   2.981   2.254   4.707  0.0355 -0.4778 -0.4894
 8315TIP3   OH246359   6.482   0.072   2.704 -0.0063  0.1094 -0.0903
 8315TIP3    H146360   6.489   0.014   2.779 -0.4894  0.0889 -0.0590
 8315TIP3    H246361   6.542   0.144   2.724  0.2334 -0.1338  0.0876
 8316TIP3   OH246362   2.543   2.606   1.849 -0.2755  0.0813 -0.2967
 8316TIP3    H146363   2.620   2.551   1.863 -1.1947 -1.1774 -0.0712
 8316TIP3    H246364   2.578   2.686   1.811  1.2324 -0.1509  0.5317
 8317TIP3   OH246365   0.918   0.688   0.230  0.2349  0.1452  0.2310
 8317TIP3    H146366   0.997   0.732   0.261 -0.2445  0.1473  1.4823
 8317TIP3    H246367   0.949   0.601   0.201  0.7007  0.1711  0.6358
 8318TIP3   OH246368   0.639   1.148  17.300  0.4250  0.1285 -0.2168
 8318TIP3    H146369   0.642   1.056  17.328  0.0720  0.1702 -0.0334
 8318TIP3    H246370   0.641   1.144  17.204 -1.3016 -0.1648 -0.2782
 8319TIP3   OH246371   1.288   5.564   1.183 -0.5626  0.1112  0.5363
 8319TIP3    H146372   1.348   5.636   1.201  0.0852 -0.8060  2.3709
 8319TIP3    H246373   1.201   5.599   1.206 -0.1622  0.1184  2.2226
 8320TIP3   OH246374   0.403   4.467  14.662 -0.3339  0.0793 -0.2251
 8320TIP3    H146375   0.357   4.550  14.676 -0.0819  0.1656  0.1007
 8320TIP3    H246376   0.419   4.433  14.750 -1.4260 -0.8707 -0.3769
 8321TIP3   OH246377   1.426   1.039  11.021  0.7524  0.6173 -0.1715
 8321TIP3    H146378   1.479   1.057  11.099  0.3652  1.1660 -0.0278
 8321TIP3    H246379   1.353   0.987  11.053  1.2598 -0.2427 -0.3906
 8322TIP3   OH246380   2.838   2.764  13.509  0.2705 -0.0428 -0.0140
 8322TIP3    H146381   2.886   2.765  13.592 -1.8900 -0.2135  1.3050
 8322TIP3    H246382   2.786   2.684  13.512  1.3870 -0.9516 -2.3519
 8323TIP3   OH246383   5.758   0.092  15.757  0.2378  0.4230 -0.6131
 8323TIP3    H146384   5.766   0.017  15.815  1.2015 -0.5177 -1.8919
 8323TIP3    H246385   5.675   0.078  15.711  0.7356 -0.2640 -1.3405
 8324TIP3   OH246386   3.753   6.663   2.642  0.9674  0.0931 -0.1541
 8324TIP3    H146387   3.775   6.698   2.728  1.0488 -1.5354  0.5364
 8324TIP3    H246388   3.658   6.650   2.645  0.7337  1.4907 -0.9079
 8325TIP3   OH246389   0.595   6.036   4.677 -0.0437 -0.2767  0.8252
 8325TIP3    H146390   0.514   5.989   4.698 -0.1380 -0.6115 -0.1906
 8325TIP3    H246391   0.566   6.115   4.631  0.1614  0.2220  1.5471
 8326TIP3   OH246392   0.725   5.740  12.127  0.0369  0.7259 -0.0216
 8326TIP3    H146393   0.653   5.695  12.171 -0.5775  0.8711 -0.8405
 8326TIP3    H246394   0.751   5.809  12.187  0.1956  0.0163  0.7352
 8327TIP3   OH246395   3.619   5.743  12.858 -0.1648  0.0197  0.0179
 8327TIP3    H146396   3.568   5.766  12.780  0.9368  0.7562 -0.5055
 8327TIP3    H246397   3.558   5.694  12.913 -0.9769 -0.4607 -1.2826
 8328TIP3   OH246398   4.250   2.830  12.507  0.3591  0.3153  0.2945
 8328TIP3    H146399   4.233   2.738  12.489  2.0493  0.0275  0.0859
 8328TIP3    H246400   4.166   2.863  12.541 -0.4487 -1.1247 -0.2103
 8329TIP3   OH246401   0.278   5.054   2.386 -0.1756 -0.2885 -0.1221
 8329TIP3    H146402   0.204   5.084   2.437  0.2400  0.2122  0.1898
 8329TIP3    H246403   0.280   4.959   2.399  1.0104 -0.0045  2.2952
 8330TIP3   OH246404   6.150   2.961   4.074  0.1888 -0.7232 -0.6872
 8330TIP3    H146405   6.191   2.883   4.112 -0.3477 -0.9053 -0.4750
 8330TIP3    H246406   6.065   2.931   4.043  0.8138 -0.7085 -2.5489
 8331TIP3   OH246407   1.269   4.855  13.552 -0.4468  0.2307  0.0075
 8331TIP3    H146408   1.301   4.765  13.546 -1.6215 -0.2243  0.2732
 8331TIP3    H246409   1.192   4.857  13.495 -0.1445  1.2084 -0.3827
 8332TIP3   OH246410   0.214   3.979   3.490  0.1294  0.2919 -0.0481
 8332TIP3    H146411   0.182   3.903   3.538 -0.8590  0.4861 -0.3769
 8332TIP3    H246412   0.145   4.044   3.498  0.4329  0.7234 -0.7816
 8333TIP3   OH246413   3.772   4.420  14.757 -0.5226 -0.1836  0.1566
 8333TIP3    H146414   3.746   4.422  14.665 -1.2252 -1.7336  0.2860
 8333TIP3    H246415   3.781   4.327  14.778  1.0159  0.1643  1.2910
 8334TIP3   OH246416   3.132   2.117  17.075 -0.2895 -0.1548 -0.3641
 8334TIP3    H146417   3.178   2.064  17.141 -1.2589 -0.9341 -0.2733
 8334TIP3    H246418   3.092   2.188  17.125 -2.2585 -1.5524  0.2150
 8335TIP3   OH246419   4.026   5.469  13.823  0.2304 -0.0096  0.8664
 8335TIP3    H146420   4.087   5.442  13.755  0.0123 -1.4477  1.1993
 8335TIP3    H246421   4.053   5.558  13.846  1.6321 -0.2908  0.3888
 8336TIP3   OH246422   0.942   6.743   5.101  0.0643 -0.1199  0.3912
 8336TIP3    H146423   0.947   6.767   5.009 -0.8924  0.2737  0.4277
 8336TIP3    H246424   0.977   6.819   5.148 -3.5663  1.6825  0.5399
 8337TIP3   OH246425   3.083   6.663   0.245  0.8230 -0.0784 -0.7680
 8337TIP3    H146426   3.145   6.608   0.197  1.9596  1.0587 -0.6541
 8337TIP3    H246427   3.060   6.733   0.183  0.2541 -0.0529 -0.5360
 8338TIP3   OH246428   6.626   5.618  16.649  0.1408 -0.4672 -0.0975
 8338TIP3    H146429   6.664   5.563  16.718  0.4950  1.8517  1.7000
 8338TIP3    H246430   6.678   5.599  16.572  1.5341 -1.2277  0.9772
 8339TIP3   OH246431   4.096   2.995   3.516  0.2181  0.5400 -0.0636
 8339TIP3    H146432   4.121   3.070   3.461 -0.0588 -0.4055 -1.5320
 8339TIP3    H246433   4.095   2.921   3.456 -0.2523 -0.5180  1.2135
 8340TIP3   OH246434   6.031   0.156   1.754  0.4137  0.1878  0.0435
 8340TIP3    H146435   6.029   0.226   1.819  1.8302 -0.1100  0.4297
 8340TIP3    H246436   6.076   0.194   1.678  0.3628 -0.0168 -0.0922
 8341TIP3   OH246437   2.364   0.352   1.659  0.0127  0.3570  0.3323
 8341TIP3    H146438   2.380   0.386   1.571  1.0714 -0.8058  0.0493
 8341TIP3    H246439   2.270   0.364   1.672 -0.1186  0.7954 -0.8440
 8342TIP3   OH246440   1.931   1.239   0.386 -0.2185 -0.4711  0.0328
 8342TIP3    H146441   1.916   1.148   0.360  0.6967 -0.3179 -1.1273
 8342TIP3    H246442   1.973   1.233   0.471 -1.4679 -1.0702  0.6328
 8343TIP3   OH246443   5.577   5.969  13.212  0.2472 -0.4317 -0.1743
 8343TIP3    H146444   5.495   5.999  13.249 -0.2753 -0.6483 -1.1284
 8343TIP3    H246445   5.633   6.047  13.209  0.1926 -0.3483  0.7479
 8344TIP3   OH246446   1.266   0.413   5.378  0.3528 -0.0072  0.4175
 8344TIP3    H146447   1.286   0.459   5.296  1.7731 -0.8376  0.2551
 8344TIP3    H246448   1.180   0.446   5.404 -0.3105  0.0165 -1.5973
 8345TIP3   OH246449   1.200   1.630   5.281 -0.1605 -0.2527 -0.0624
 8345TIP3    H146450   1.144   1.553   5.268  0.6620 -0.8062 -0.4756
 8345TIP3    H246451   1.285   1.603   5.245  0.1789  0.8079 -0.0787
 8346TIP3   OH246452   1.448   1.114  11.996  0.0317  0.5661  0.1861
 8346TIP3    H146453   1.496   1.150  11.922  0.2637 -0.2368 -0.0628
 8346TIP3    H246454   1.481   1.162  12.072  1.2729  0.0152  0.0272
 8347TIP3   OH246455   0.010   0.448   1.107  0.3226 -0.8159  0.2230
 8347TIP3    H146456   0.020   0.373   1.049  0.7032  0.2176 -1.1085
 8347TIP3    H246457  -0.081   0.475   1.096  1.1539  1.2747 -2.4058
 8348TIP3   OH246458   0.982   2.637  14.671  0.3193  0.4115 -0.4358
 8348TIP3    H146459   0.944   2.689  14.600  0.1143  1.3508  0.3343
 8348TIP3    H246460   1.076   2.652  14.664  0.2713  0.7920 -0.2982
 8349TIP3   OH246461   2.388   6.776  11.352  0.1589 -0.4723  0.5569
 8349TIP3    H146462   2.319   6.841  11.341  0.1802 -0.8216 -2.3691
 8349TIP3    H246463   2.468   6.819  11.323  0.9392 -0.5797  2.4227
 8350TIP3   OH246464   4.099   0.600  10.281  0.2206 -0.0607 -0.6093
 8350TIP3    H146465   4.180   0.650  10.281  0.8611 -1.0334  0.7579
 8350TIP3    H246466   4.045   0.641  10.349 -0.4392  0.5383 -1.4625
 8351TIP3   OH246467   4.099   2.812   4.050  0.0009 -0.0202 -0.8846
 8351TIP3    H146468   4.099   2.846   3.961 -0.0476  0.4023 -0.7287
 8351TIP3    H246469   4.079   2.719   4.041  0.2866 -0.0425 -1.3367
 8352TIP3   OH246470   0.898   3.118   5.847 -0.3038  0.5563  0.5674
 8352TIP3    H146471   0.952   3.062   5.903  0.4981 -0.5004 -1.1994
 8352TIP3    H246472   0.812   3.118   5.889  0.3128 -0.0508  1.8861
 8353TIP3   OH246473   5.301   3.571  13.550  0.2889 -0.4153  0.3359
 8353TIP3    H146474   5.301   3.605  13.640 -0.0557 -1.6409  0.8230
 8353TIP3    H246475   5.376   3.612  13.508  2.1326 -1.8993  2.0150
 8354TIP3   OH246476   1.447   1.558   2.951 -0.0231 -0.4249  0.3471
 8354TIP3    H146477   1.404   1.533   3.033 -0.0930 -0.1640  0.3903
 8354TIP3    H246478   1.434   1.483   2.894  0.3351 -0.7511  0.6916
 8355TIP3   OH246479   2.525   2.520   0.096 -0.4124  0.0921 -0.3306
 8355TIP3    H146480   2.493   2.482   0.014  0.0799  0.3592 -0.6468
 8355TIP3    H246481   2.561   2.605   0.071  0.7128 -0.2809 -0.0027
 8356TIP3   OH246482   4.876   4.657  11.750  0.0873 -0.5930 -0.1869
 8356TIP3    H146483   4.970   4.651  11.762 -0.2226 -4.3097  1.7865
 8356TIP3    H246484   4.842   4.681  11.837 -0.8538 -1.0665 -0.4088
 8357TIP3   OH246485   1.376   6.037  16.839 -0.3500  0.1389 -0.1623
 8357TIP3    H146486   1.453   5.982  16.823 -0.7177 -0.8682  1.3718
 8357TIP3    H246487   1.326   6.032  16.757  0.7731  0.1048 -0.8671
 8358TIP3   OH246488   5.919   5.105  15.204 -0.2021  0.2660 -0.6069
 8358TIP3    H146489   5.902   5.136  15.114  0.7164 -0.1667 -0.9429
 8358TIP3    H246490   5.835   5.071  15.233 -0.0731 -1.5211 -2.0994
 8359TIP3   OH246491   0.322   2.935  12.859  0.3208 -0.1249  0.4318
 8359TIP3    H146492   0.283   2.905  12.941  0.9217  0.7115  1.0397
 8359TIP3    H246493   0.274   2.888  12.791 -0.0930 -0.9359  1.2633
 8360TIP3   OH246494   5.478   0.215   2.647  0.1461 -0.4394 -0.1040
 8360TIP3    H146495   5.460   0.308   2.661  1.4127  0.1071 -1.6659
 8360TIP3    H246496   5.565   0.202   2.686  0.5901 -0.5928 -1.1110
 8361TIP3   OH246497   4.057   5.912   1.968 -0.3230  0.2920  0.6924
 8361TIP3    H146498   3.965   5.891   1.950 -0.2003  0.3528 -0.0225
 8361TIP3    H246499   4.096   5.925   1.882  0.2728  0.6330  1.0096
 8362TIP3   OH246500   5.912   2.604  15.239  0.5058  0.0469  0.3159
 8362TIP3    H146501   5.979   2.579  15.176  2.7094 -1.6137  3.0888
 8362TIP3    H246502   5.946   2.683  15.281 -1.1386  1.3890 -0.7055
 8363TIP3   OH246503   3.638   3.369   2.382  0.1737  0.1749  0.0440
 8363TIP3    H146504   3.686   3.438   2.336  1.6053  0.4947  1.9098
 8363TIP3    H246505   3.615   3.306   2.314  1.3284  1.1142 -1.2661
 8364TIP3   OH246506   0.339   6.501   2.772 -0.2415  0.6572  0.2544
 8364TIP3    H146507   0.281   6.454   2.832  1.2527 -3.0743 -0.9344
 8364TIP3    H246508   0.389   6.561   2.827 -1.5616  0.1596  2.0658
 8365TIP3   OH246509   6.255   5.015  13.816 -0.4930  0.2056 -0.2611
 8365TIP3    H146510   6.277   4.980  13.729  2.0431 -1.2841  0.8772
 8365TIP3    H246511   6.318   5.085  13.830  0.1659 -0.6054  0.9813
 8366TIP3   OH246512   1.469   2.513   5.033  0.8288  0.5276 -0.2223
 8366TIP3    H146513   1.440   2.455   5.104  1.2294 -0.1117 -0.5696
 8366TIP3    H246514   1.482   2.597   5.076  3.3774 -0.3904  1.0141
 8367TIP3   OH246515   1.560   3.411  12.047  0.2844 -0.2265 -0.0118
 8367TIP3    H146516   1.513   3.398  12.129  1.3558  0.6058  0.7485
 8367TIP3    H246517   1.504   3.369  11.981 -1.9734  1.4108  0.7042
 8368TIP3   OH246518   6.509   0.283  14.115  0.0124 -0.0168 -0.0965
 8368TIP3    H146519   6.517   0.204  14.169  1.7307  1.0141  1.2867
 8368TIP3    H246520   6.577   0.274  14.048  0.1090  0.2116 -0.0298
 8369TIP3   OH246521   4.496   3.992  12.151 -0.6343 -0.2057  0.3910
 8369TIP3    H146522   4.488   4.015  12.058  1.8837  1.6173  0.5202
 8369TIP3    H246523   4.496   3.897  12.153  1.2932 -0.3366 -1.7762
 8370TIP3   OH246524   1.838   2.299  12.281  0.0934  0.5637 -0.0923
 8370TIP3    H146525   1.930   2.304  12.257  0.1163  0.9184  0.0516
 8370TIP3    H246526   1.805   2.388  12.266 -0.2354  0.4268 -0.1923
 8371TIP3   OH246527   2.631   1.234   5.538 -0.4115  0.1520  0.4031
 8371TIP3    H146528   2.595   1.282   5.612 -0.1512  1.8790 -0.5344
 8371TIP3    H246529   2.568   1.249   5.467  0.4466  0.4317 -0.3267
 8372TIP3   OH246530   2.582   3.518   0.703  0.1211 -0.3679  0.3369
 8372TIP3    H146531   2.642   3.464   0.651  2.3809  0.2959  2.0810
 8372TIP3    H246532   2.580   3.602   0.658  1.3803 -0.0721  0.7796
 8373TIP3   OH246533   1.216   6.091  13.886 -0.4965 -0.4562  0.7450
 8373TIP3    H146534   1.156   6.042  13.830 -1.5138 -0.6749  1.9565
 8373TIP3    H246535   1.169   6.172  13.906  0.1518 -0.0643  0.6947
 8374TIP3   OH246536   6.198   1.224   6.783  0.1209  0.3742  0.2792
 8374TIP3    H146537   6.120   1.258   6.826  0.1788  1.9273 -0.7486
 8374TIP3    H246538   6.259   1.298   6.784  0.9006 -0.2403 -0.5450
 8375TIP3   OH246539   3.671   4.852   1.232 -0.1242 -0.0751  0.3301
 8375TIP3    H146540   3.738   4.868   1.166  0.8397 -1.2405  0.9748
 8375TIP3    H246541   3.609   4.924   1.223  0.2914  0.0955 -1.4465
 8376TIP3   OH246542   0.803   2.933  13.139 -0.2163 -0.2666  0.2521
 8376TIP3    H146543   0.834   2.943  13.229  1.5271 -1.0441 -0.2162
 8376TIP3    H246544   0.709   2.950  13.143  0.0539  1.0480  1.9776
 8377TIP3   OH246545   4.761   4.413   4.420 -0.2357 -0.6169  0.6067
 8377TIP3    H146546   4.770   4.498   4.463  1.3582  0.1149 -1.0206
 8377TIP3    H246547   4.691   4.369   4.468 -0.4060  1.1956  2.1486
 8378TIP3   OH246548   0.220   0.940  17.072 -0.8712  0.1780 -0.3867
 8378TIP3    H146549   0.314   0.954  17.055 -0.7752  0.7428  0.5838
 8378TIP3    H246550   0.178   1.020  17.040 -0.7877  0.8398  1.1015
 8379TIP3   OH246551   4.350   2.695  16.375 -0.3436 -0.1964  0.6236
 8379TIP3    H146552   4.368   2.665  16.286  0.8662 -0.1943  0.8461
 8379TIP3    H246553   4.260   2.669  16.391 -1.2137  1.3540 -1.2287
 8380TIP3   OH246554   3.734   0.016   5.630 -0.7619 -0.0162 -0.0850
 8380TIP3    H146555   3.712  -0.038   5.706 -1.7937  0.9219  0.3120
 8380TIP3    H246556   3.661   0.077   5.623  0.5786  1.6245 -0.2395
 8381TIP3   OH246557   2.385   2.061   3.787 -0.1039  0.6281 -0.5505
 8381TIP3    H146558   2.480   2.069   3.798 -0.1135  1.4203 -0.9314
 8381TIP3    H246559   2.359   2.146   3.750 -0.7785 -0.0386 -1.6585
 8382TIP3   OH246560   3.432   6.589  14.153  0.3440 -0.1421  0.0527
 8382TIP3    H146561   3.502   6.648  14.178  0.2808  0.6287 -1.4675
 8382TIP3    H246562   3.450   6.567  14.062 -2.1348  1.2760 -0.8900
 8383TIP3   OH246563   1.400   4.017  15.152 -0.3988  0.3484  0.1962
 8383TIP3    H146564   1.416   4.069  15.074 -1.7993  1.9934  0.9250
 8383TIP3    H246565   1.305   4.019  15.163 -0.2843 -0.4236  1.5538
 8384TIP3   OH246566   0.993   5.366   4.772  0.2849 -0.1069  0.2738
 8384TIP3    H146567   1.027   5.289   4.818  1.6226 -1.7012 -3.1102
 8384TIP3    H246568   0.927   5.331   4.713  1.2872  1.2024 -1.7221
 8385TIP3   OH246569   0.555   3.632   2.023 -1.1476 -0.1097 -0.1120
 8385TIP3    H146570   0.564   3.707   2.082 -1.0946  0.3418 -0.6958
 8385TIP3    H246571   0.473   3.646   1.977  0.8593  1.9282 -3.4543
 8386TIP3   OH246572   3.631   2.484  12.630  0.2292 -0.0061  0.5763
 8386TIP3    H146573   3.605   2.541  12.558 -0.1975 -1.3776 -0.4063
 8386TIP3    H246574   3.601   2.529  12.709 -1.3626  0.4669 -0.2600
 8387TIP3   OH246575   6.416   2.231  16.202 -0.9968 -0.5305  0.1176
 8387TIP3    H146576   6.459   2.207  16.284  0.1264 -0.6591 -0.4870
 8387TIP3    H246577   6.385   2.147  16.166 -1.3742 -0.4885  0.3333
 8388TIP3   OH246578   5.899   4.810   2.490  0.6194 -0.3441  0.1669
 8388TIP3    H146579   5.922   4.817   2.397  1.1252 -0.2405  0.2974
 8388TIP3    H246580   5.804   4.805   2.490  0.5783  0.3076 -0.3189
 8389TIP3   OH246581   5.467   0.430   1.634 -0.1106 -0.6426 -0.1466
 8389TIP3    H146582   5.506   0.421   1.547 -0.5225  0.8523 -0.5080
 8389TIP3    H246583   5.401   0.499   1.624 -2.0687 -2.2778  0.7197
 8390TIP3   OH246584   0.049   2.908  16.621 -0.0539 -0.2565  0.1091
 8390TIP3    H146585  -0.017   2.856  16.666 -1.4386 -0.3480 -1.8897
 8390TIP3    H246586   0.128   2.854  16.622 -0.7172 -1.2462  0.3626
 8391TIP3   OH246587   0.091   4.616   5.630 -0.3138  0.0488 -0.3324
 8391TIP3    H146588   0.123   4.579   5.713  0.1546  2.0268  0.4291
 8391TIP3    H246589   0.167   4.615   5.572  0.6916  2.6813  0.7567
 8392TIP3   OH246590   2.686   0.503  16.548 -0.2122 -0.1835 -0.2640
 8392TIP3    H146591   2.679   0.527  16.456  0.6369 -1.0815 -0.5678
 8392TIP3    H246592   2.648   0.578  16.595 -0.7209  0.2434 -1.3328
 8393TIP3   OH246593   0.139   5.541  12.517 -0.0191 -1.0010 -0.2413
 8393TIP3    H146594   0.061   5.553  12.463 -0.6252  0.0478  0.8014
 8393TIP3    H246595   0.175   5.629  12.526  0.5863 -1.2960  0.3026
 8394TIP3   OH246596   2.879   3.124  13.104 -0.1508 -0.0491  0.0589
 8394TIP3    H146597   2.945   3.081  13.159 -0.1865 -1.5231 -0.9832
 8394TIP3    H246598   2.928   3.192  13.057 -0.0978  1.1524  1.7603
 8395TIP3   OH246599   3.753   1.842   6.606 -0.5245 -0.2391 -0.8546
 8395TIP3    H146600   3.756   1.752   6.576  2.3903 -0.7402  0.6166
 8395TIP3    H246601   3.715   1.836   6.694  1.7592 -0.4567  0.1960
 8396TIP3   OH246602   1.775   6.184   4.653 -0.4192 -0.0239  0.7732
 8396TIP3    H146603   1.747   6.092   4.658 -2.0086  0.3526 -0.3435
 8396TIP3    H246604   1.849   6.190   4.713 -1.6286 -1.5359  2.5231
 8397TIP3   OH246605   1.510   0.474   0.910  0.1579 -0.5119  0.2484
 8397TIP3    H146606   1.464   0.494   0.828  0.4097 -0.6769  0.0640
 8397TIP3    H246607   1.441   0.469   0.976  0.0930  1.1196  0.3366
 8398TIP3   OH246608   0.066   6.508   4.252  0.1878 -0.4925  0.2024
 8398TIP3    H146609   0.006   6.545   4.187 -0.1733 -0.0482  0.7852
 8398TIP3    H246610   0.095   6.425   4.213 -1.1961 -0.9580  0.1307
 8399TIP3   OH246611   4.084   1.012  15.968  0.0970 -0.3767  0.4897
 8399TIP3    H146612   4.036   1.029  15.888  0.2655  1.3732  0.7222
 8399TIP3    H246613   4.149   0.946  15.944 -0.2089 -0.2723 -0.6746
 8400TIP3   OH246614   5.409   6.276   1.608  0.6082  0.4934  0.6512
 8400TIP3    H146615   5.441   6.230   1.531 -0.7249  1.3321 -0.4504
 8400TIP3    H246616   5.421   6.369   1.587  1.9502  0.7370  2.2503
 8401TIP3   OH246617   3.918   0.079   0.013  0.5737  0.5245 -0.4905
 8401TIP3    H146618   3.955   0.085  -0.075  0.8479  0.2449 -0.3962
 8401TIP3    H246619   3.958   0.000   0.051  0.3531  0.5660 -0.1651
 8402TIP3   OH246620   6.469   6.029   3.892  0.0448 -0.5234 -1.1219
 8402TIP3    H146621   6.510   6.067   3.814  3.8997 -2.2806 -0.2289
 8402TIP3    H246622   6.508   6.076   3.965 -0.1939 -1.7137 -0.1833
 8403TIP3   OH246623   1.972   5.605  16.340 -0.4970 -0.3065  0.1087
 8403TIP3    H146624   1.957   5.536  16.404 -1.8617 -0.7122 -0.6197
 8403TIP3    H246625   1.889   5.616  16.295 -0.1211  1.3470 -0.2715
 8404TIP3   OH246626   1.886   5.426   2.058 -0.2034 -0.3241 -0.1428
 8404TIP3    H146627   1.840   5.360   2.109 -0.1995 -0.8160 -0.7563
 8404TIP3    H246628   1.875   5.507   2.107 -0.6236 -0.6882  0.3721
 8405TIP3   OH246629   5.409   1.101   3.650 -0.7068 -0.3720 -0.0893
 8405TIP3    H146630   5.481   1.059   3.697  0.4859  2.3689  0.6876
 8405TIP3    H246631   5.363   1.028   3.608  1.4541 -2.3873  0.8079
 8406TIP3   OH246632   1.480   5.646   4.441  0.2371 -0.0826 -0.1552
 8406TIP3    H146633   1.533   5.567   4.457  1.2817  0.5391 -0.4161
 8406TIP3    H246634   1.404   5.635   4.497  0.2422 -1.3901 -0.3549
 8407TIP3   OH246635   0.693   6.097   2.599  0.1059 -0.4768  0.4185
 8407TIP3    H146636   0.630   6.122   2.532  0.2810  1.4777  0.9271
 8407TIP3    H246637   0.641   6.055   2.668 -0.7184  1.2725  0.9143
 8408TIP3   OH246638   1.092   3.217   2.631  0.0808  0.4738 -0.7132
 8408TIP3    H146639   0.999   3.206   2.612 -0.3280 -0.4660  1.5032
 8408TIP3    H246640   1.135   3.146   2.583 -0.9233 -1.9525  1.7017
 8409TIP3   OH246641   5.476   3.478   2.309  0.0659 -0.2996 -0.0418
 8409TIP3    H146642   5.536   3.408   2.282 -0.3253 -0.9871  0.8171
 8409TIP3    H246643   5.454   3.523   2.228  2.2314  0.3991 -0.3200
 8410TIP3   OH246644   4.841   5.563   1.836  0.4733  0.1797  0.5169
 8410TIP3    H146645   4.804   5.644   1.871 -1.2471 -0.3315 -0.0102
 8410TIP3    H246646   4.888   5.524   1.910 -1.4659  0.0533  1.7419
 8411TIP3   OH246647   0.952   5.574   2.475 -0.4578  0.2062 -0.1558
 8411TIP3    H146648   0.931   5.631   2.549  0.3188  0.3242 -0.0218
 8411TIP3    H246649   0.888   5.502   2.482 -1.1561  0.8271 -0.0781
 8412TIP3   OH246650   1.833   5.361   5.983 -0.6154  0.3484  0.4408
 8412TIP3    H146651   1.921   5.374   6.018 -1.6333  2.0157  2.6597
 8412TIP3    H246652   1.783   5.326   6.057 -2.5628  2.6449  0.3148
 8413TIP3   OH246653   0.515   6.174  15.889  0.5671 -1.0442 -0.0749
 8413TIP3    H146654   0.437   6.154  15.837 -0.0330 -0.6631  0.6549
 8413TIP3    H246655   0.570   6.225  15.830  0.5479 -1.8302 -0.8001
 8414TIP3   OH246656   3.520   2.480  16.375 -0.2806 -0.3604 -0.4332
 8414TIP3    H146657   3.507   2.526  16.458 -2.6745 -0.4936 -0.6746
 8414TIP3    H246658   3.488   2.541  16.308  1.9352 -0.1142 -1.3618
 8415TIP3   OH246659   2.678   4.772  13.648  0.0756  0.5624  0.0945
 8415TIP3    H146660   2.606   4.805  13.702  1.0515  1.5900  0.8017
 8415TIP3    H246661   2.642   4.770  13.559 -1.3285 -0.4731  0.6405
 8416TIP3   OH246662   2.133   0.458  11.397  0.0957 -0.9200 -0.0771
 8416TIP3    H146663   2.046   0.478  11.363  0.4989 -0.0318 -0.6241
 8416TIP3    H246664   2.184   0.432  11.320  1.4365  2.5645 -0.5657
 8417TIP3   OH246665   6.595   4.825  13.487  0.3035 -0.0947  0.5295
 8417TIP3    H146666   6.668   4.887  13.484  0.4280 -0.1270  2.0346
 8417TIP3    H246667   6.631   4.744  13.452  1.5487 -0.5886  2.7624
 8418TIP3   OH246668   5.729   2.158   0.273 -0.3073  0.8728 -0.1684
 8418TIP3    H146669   5.698   2.185   0.187  0.6964  1.8286 -0.2561
 8418TIP3    H246670   5.770   2.237   0.309 -0.2781  0.3517  0.9841
 8419TIP3   OH246671   6.111   0.640   5.963 -0.0986 -0.2523 -0.0190
 8419TIP3    H146672   6.072   0.552   5.960 -0.6536  0.0029 -0.5987
 8419TIP3    H246673   6.128   0.661   5.872 -0.4240  0.4426  0.0792
 8420TIP3   OH246674   3.195   2.365   2.938 -0.2022  0.4084 -0.3844
 8420TIP3    H146675   3.174   2.312   3.015 -2.4548 -0.1201 -1.2796
 8420TIP3    H246676   3.253   2.309   2.886 -1.6799 -0.7852 -0.8057
 8421TIP3   OH246677   2.388   1.200   2.820  0.0637 -0.2956  0.1289
 8421TIP3    H146678   2.399   1.256   2.896 -0.6657  0.1158 -0.0686
 8421TIP3    H246679   2.296   1.174   2.821  0.4060 -1.5744  0.2734
 8422TIP3   OH246680   2.225   4.122  11.446 -0.2955  0.1610  0.5282
 8422TIP3    H146681   2.291   4.134  11.378 -0.1811 -1.8653  0.1987
 8422TIP3    H246682   2.153   4.178  11.419  0.9117  1.7304  0.4077
 8423TIP3   OH246683   0.969   2.248   0.240  0.1114  0.5128  0.3658
 8423TIP3    H146684   1.008   2.334   0.251  1.1216  0.2849 -1.0614
 8423TIP3    H246685   0.880   2.265   0.211 -0.1383  1.0622  1.4284
 8424TIP3   OH246686   1.037   6.494   4.595  0.0978 -0.4525  0.5703
 8424TIP3    H146687   1.064   6.586   4.603 -1.6689  0.0096  2.1548
 8424TIP3    H246688   1.106   6.445   4.638 -0.3083  0.4543  2.3707
 8425TIP3   OH246689   5.014   4.671   5.279 -0.1187 -0.0989 -0.4664
 8425TIP3    H146690   4.967   4.744   5.237 -0.2989 -0.2645 -0.5528
 8425TIP3    H246691   5.027   4.700   5.369  1.3366  0.7747 -0.9241
 8426TIP3   OH246692   4.111   1.252   1.058  0.2326 -0.3689  0.5505
 8426TIP3    H146693   4.045   1.239   0.989  0.0867 -0.8446  0.7784
 8426TIP3    H246694   4.194   1.228   1.017  0.1205 -0.8406  0.5976
 8427TIP3   OH246695   5.928   1.186  11.504  0.1586 -0.0393 -0.2648
 8427TIP3    H146696   5.936   1.281  11.501  2.0405 -0.1555 -0.5388
 8427TIP3    H246697   5.973   1.156  11.425 -0.5265 -1.1563 -0.2460
 8428TIP3   OH246698   0.125   1.408   0.841  0.0951 -0.3474 -0.0607
 8428TIP3    H146699   0.093   1.402   0.751 -0.3726 -0.0136  0.0809
 8428TIP3    H246700   0.046   1.425   0.893  0.6580  2.2830  0.1038
 8429TIP3   OH246701   0.397   1.746  13.838 -0.1240  0.7056 -0.6149
 8429TIP3    H146702   0.439   1.678  13.786 -1.5470 -2.0326  1.5134
 8429TIP3    H246703   0.303   1.731  13.826 -0.4913  0.6135  1.7682
 8430TIP3   OH246704   6.688   6.099   3.245 -0.0626  0.4965 -0.0912
 8430TIP3    H146705   6.651   6.042   3.178 -0.4340 -0.2105  0.7012
 8430TIP3    H246706   6.617   6.159   3.268 -0.2337  0.1253  0.3456
 8431TIP3   OH246707   6.440   1.736  15.291 -0.3212  0.6107  0.5100
 8431TIP3    H146708   6.454   1.656  15.240 -0.4199  0.9795 -0.1093
 8431TIP3    H246709   6.482   1.718  15.375 -0.6869 -0.2363  0.5262
 8432TIP3   OH246710   2.174   3.544  12.850 -0.2641  0.7444 -0.4694
 8432TIP3    H146711   2.224   3.626  12.846 -0.5569  0.8877 -2.0984
 8432TIP3    H246712   2.240   3.476  12.856  0.0349  1.0501 -0.2304
 8433TIP3   OH246713   1.424   1.192   3.143 -0.4763 -0.1888  0.0143
 8433TIP3    H146714   1.375   1.159   3.219  1.9074  0.5741  2.0105
 8433TIP3    H246715   1.447   1.282   3.166 -0.9954  0.6131 -2.3474
 8434TIP3   OH246716   4.194   3.021  16.540 -0.2033  0.3856 -0.0626
 8434TIP3    H146717   4.268   3.072  16.573  0.3269  0.0371 -0.6779
 8434TIP3    H246718   4.177   2.957  16.609 -1.0153  1.5143  0.8081
 8435TIP3   OH246719   4.906   1.337  16.047  0.0761  0.1908 -0.5445
 8435TIP3    H146720   4.910   1.304  15.957 -1.4273 -2.1026  0.1333
 8435TIP3    H246721   4.973   1.286  16.093  0.8920  1.4113 -0.3364
 8436TIP3   OH246722   2.680   6.038  10.484  0.0415 -0.1698 -0.3366
 8436TIP3    H146723   2.638   5.975  10.425 -1.1321 -0.3677  0.6650
 8436TIP3    H246724   2.719   5.984  10.552 -3.0941  0.1312  1.9269
 8437TIP3   OH246725   4.589   2.387   4.722 -0.2889  0.7227  0.0720
 8437TIP3    H146726   4.580   2.480   4.739  2.5520  1.2127 -0.5813
 8437TIP3    H246727   4.578   2.345   4.807 -1.0974  1.6835  0.4494
 8438TIP3   OH246728   1.037   6.706   4.023 -0.0866  0.7077 -0.3317
 8438TIP3    H146729   0.974   6.679   3.956  0.7878  0.1449 -0.9567
 8438TIP3    H246730   1.064   6.624   4.064  0.3602  0.9219 -0.1947
 8439TIP3   OH246731   2.137   6.622   0.155  0.6794  0.1187 -0.1477
 8439TIP3    H146732   2.115   6.559   0.087  0.3905 -0.6349  0.6113
 8439TIP3    H246733   2.226   6.650   0.135  1.6977 -2.2637  0.7153
 8440TIP3   OH246734   4.775   1.207  12.747 -0.3250 -0.0100  0.0288
 8440TIP3    H146735   4.760   1.226  12.655  1.4798  0.8649 -0.1394
 8440TIP3    H246736   4.750   1.288  12.793  1.7590  0.7760 -0.0781
 8441TIP3   OH246737   2.480   0.133   1.758  0.0555 -0.1371 -0.1116
 8441TIP3    H146738   2.435   0.202   1.709 -1.9321 -0.2321  1.4556
 8441TIP3    H246739   2.489   0.168   1.847  1.7146 -0.7629  0.0091
 8442TIP3   OH246740   0.422   6.701  14.202 -0.0167  0.6296 -0.1860
 8442TIP3    H146741   0.494   6.761  14.222 -1.2520  1.8001  0.9736
 8442TIP3    H246742   0.464   6.617  14.185  1.6301  1.3282  0.2916
 8443TIP3   OH246743   5.024   1.941  11.978  0.2198  0.1527 -0.2726
 8443TIP3    H146744   5.051   2.019  11.929 -1.3913  0.9226 -0.0066
 8443TIP3    H246745   5.026   1.870  11.914  1.2821  0.4859 -0.6325
 8444TIP3   OH246746   6.385   3.998  10.583  0.2043 -0.3420  0.1420
 8444TIP3    H146747   6.434   3.960  10.510 -0.3288  1.1117 -1.0184
 8444TIP3    H246748   6.296   4.009  10.549 -0.2786 -0.4323  1.3170
 8445TIP3   OH246749   5.099   6.248   6.165 -0.3804  0.4351 -0.5263
 8445TIP3    H146750   5.035   6.279   6.228  0.6633  1.8734 -0.1211
 8445TIP3    H246751   5.159   6.322   6.153  1.1112 -0.7843 -0.9922
 8446TIP3   OH246752   2.915   2.720  15.527 -0.8258  0.9630 -0.8065
 8446TIP3    H146753   2.863   2.772  15.466 -1.3554  2.4773  0.8235
 8446TIP3    H246754   2.883   2.631  15.517 -0.7318  1.1160 -2.8626
 8447TIP3   OH246755   4.105   2.513  11.937  0.2150 -0.7957  0.1175
 8447TIP3    H146756   4.071   2.579  11.876 -0.5344 -0.3627  0.9764
 8447TIP3    H246757   4.045   2.439  11.927 -0.0693 -0.6244  0.4989
 8448TIP3   OH246758   5.381   1.349   1.478  0.2112 -0.1405  0.5655
 8448TIP3    H146759   5.474   1.353   1.501  0.8519 -4.5362 -0.4448
 8448TIP3    H246760   5.380   1.356   1.383 -0.5916  0.3111  0.5999
 8449TIP3   OH246761   3.741   0.127  16.515  0.4664  0.2403 -0.1041
 8449TIP3    H146762   3.677   0.186  16.476  1.2667  0.7920 -0.5911
 8449TIP3    H246763   3.717   0.124  16.608  0.3216  1.2116 -0.0984
 8450TIP3   OH246764   2.868   2.102  14.562  0.3653  0.1047 -1.1864
 8450TIP3    H146765   2.963   2.093  14.558  0.2466 -1.1843 -1.5087
 8450TIP3    H246766   2.835   2.042  14.495 -0.7096 -0.3573 -0.2858
 8451TIP3   OH246767   3.124   5.210   1.524 -0.1908 -0.4541 -0.0159
 8451TIP3    H146768   3.077   5.263   1.460 -0.1465 -0.9568 -0.4777
 8451TIP3    H246769   3.148   5.271   1.594  0.9144  0.3805 -1.0874
 8452TIP3   OH246770   0.819   5.393  17.073 -0.6868  0.1015  0.1166
 8452TIP3    H146771   0.897   5.350  17.109 -0.3594 -0.2791 -1.0046
 8452TIP3    H246772   0.755   5.323  17.063 -0.7175  0.1690 -0.1793
 8453TIP3   OH246773   6.335   3.039  11.950  0.1548  0.1680  0.2855
 8453TIP3    H146774   6.296   3.034  11.863  1.1667  0.1162 -0.1791
 8453TIP3    H246775   6.385   3.120  11.949  1.5589 -0.6742  0.2176
 8454TIP3   OH246776   4.218   5.104  17.096  0.1530 -0.0055 -0.1054
 8454TIP3    H146777   4.175   5.037  17.149 -0.4108 -1.9214 -2.7534
 8454TIP3    H246778   4.280   5.146  17.155 -0.3412 -2.0539  2.0008
 8455TIP3   OH246779   1.930   4.181  15.866 -0.2844  0.0114 -0.2223
 8455TIP3    H146780   1.945   4.274  15.848  1.3461  0.1405  1.4868
 8455TIP3    H246781   1.928   4.174  15.961  0.6976 -1.8234 -0.2717
 8456TIP3   OH246782   0.946   3.646   0.967  0.1208 -0.0226 -0.9886
 8456TIP3    H146783   0.875   3.622   1.027  0.8199  0.6220  0.1481
 8456TIP3    H246784   1.001   3.568   0.963  0.3650  0.1038 -0.3199
 8457TIP3   OH246785   0.773   5.821   6.300  0.3427  0.2908 -0.2518
 8457TIP3    H146786   0.757   5.914   6.282  0.2383  0.3617  0.1848
 8457TIP3    H246787   0.708   5.798   6.366  1.2346  0.2665  0.6557
 8458TIP3   OH246788   6.184   0.418  16.393  0.7601  0.1857  0.6339
 8458TIP3    H146789   6.236   0.346  16.428  0.6579 -0.3679 -0.3401
 8458TIP3    H246790   6.228   0.497  16.427 -0.0840 -0.3007  3.0800
 8459TIP3   OH246791   5.559   1.034  15.251  0.3886 -0.2967 -0.1819
 8459TIP3    H146792   5.569   0.964  15.187 -0.1793  0.5899 -1.2729
 8459TIP3    H246793   5.474   1.018  15.292 -0.1115  0.1838 -1.0003
 8460TIP3   OH246794   6.433   6.400  13.089 -0.6100  0.4542 -0.2671
 8460TIP3    H146795   6.450   6.492  13.068  0.1894 -0.0325 -1.9233
 8460TIP3    H246796   6.464   6.352  13.012 -1.7395 -1.1514  0.2349
 8461TIP3   OH246797   4.282   4.496   0.202 -0.1592  0.3091  0.3463
 8461TIP3    H146798   4.295   4.473   0.294  2.9087 -1.2482 -0.3292
 8461TIP3    H246799   4.355   4.453   0.156 -1.8295  0.6006 -2.8967
 8462TIP3   OH246800   3.479   4.248  15.342 -0.2986  0.1523 -0.5547
 8462TIP3    H146801   3.397   4.259  15.390 -0.8696 -0.0781 -1.4471
 8462TIP3    H246802   3.456   4.194  15.266  0.6968  0.0091 -0.7793
 8463TIP3   OH246803   4.099   2.535   2.072 -0.5587 -0.8493  0.6418
 8463TIP3    H146804   4.133   2.566   1.989  1.0314  0.1485  1.6073
 8463TIP3    H246805   4.087   2.441   2.060  3.1839 -1.4122  0.3682
 8464TIP3   OH246806   3.315   4.888  12.506  0.2834  0.1334 -0.2541
 8464TIP3    H146807   3.275   4.845  12.581 -0.2179 -0.3929 -0.8057
 8464TIP3    H246808   3.242   4.934  12.463  0.5114  0.2170 -0.5537
 8465TIP3   OH246809   5.178   6.569   3.647 -0.1572 -0.1873 -0.0819
 8465TIP3    H146810   5.129   6.610   3.718 -1.5083 -0.9947 -0.5259
 8465TIP3    H246811   5.165   6.475   3.659  3.8881 -0.7341  1.6614
 8466TIP3   OH246812   3.704   4.847  13.930 -0.1231 -0.2457  0.3920
 8466TIP3    H146813   3.656   4.912  13.982  1.1951  1.3266 -0.3152
 8466TIP3    H246814   3.720   4.775  13.992 -2.8973 -0.6467  0.7916
 8467TIP3   OH246815   5.339   4.709  17.209 -0.3883  0.7300  0.1235
 8467TIP3    H146816   5.334   4.777  17.276  3.9568 -1.5693  3.2621
 8467TIP3    H246817   5.292   4.635  17.247 -0.5968  0.3542 -0.8468
 8468TIP3   OH246818   1.516   3.802   3.224 -0.0650 -0.1136 -0.3656
 8468TIP3    H146819   1.539   3.893   3.243  1.8975 -0.5020 -0.6633
 8468TIP3    H246820   1.457   3.776   3.295 -0.7432  1.3986 -0.3376
 8469TIP3   OH246821   5.784   5.681  13.529  0.3466 -0.0906 -0.9431
 8469TIP3    H146822   5.833   5.763  13.518  1.2320 -0.4093  0.3724
 8469TIP3    H246823   5.738   5.692  13.612  2.1087 -1.6915  0.3209
 8470TIP3   OH246824   0.017   0.668   2.731  0.0589  0.1044  0.3757
 8470TIP3    H146825   0.052   0.635   2.814  0.9462  1.6140  0.6560
 8470TIP3    H246826  -0.061   0.718   2.757 -1.9991 -2.6372 -0.1691
 8471TIP3   OH246827   0.511   0.546  14.194 -0.0649  0.3521 -0.4167
 8471TIP3    H146828   0.572   0.526  14.123  0.3053  0.6518 -0.1911
 8471TIP3    H246829   0.538   0.633  14.224 -1.4924  1.0997 -1.2330
 8472TIP3   OH246830   0.438   1.345   0.687  0.4325  0.0399 -0.0820
 8472TIP3    H146831   0.502   1.342   0.759  1.5278  0.5052 -1.0062
 8472TIP3    H246832   0.472   1.283   0.623 -0.1108  0.2066 -0.5359
 8473TIP3   OH246833   6.368   4.599  15.868 -0.0197  0.7426  0.4185
 8473TIP3    H146834   6.397   4.659  15.937  2.0405  1.7533 -1.2319
 8473TIP3    H246835   6.444   4.544  15.850 -1.2428 -1.0577  0.4794
 8474TIP3   OH246836   5.738   4.765  11.263  0.0692  0.3365 -0.6265
 8474TIP3    H146837   5.682   4.688  11.258 -1.1504  1.0989  0.5958
 8474TIP3    H246838   5.766   4.781  11.173  0.4652 -1.5950 -0.8776
 8475TIP3   OH246839   1.591   0.454  15.819 -0.2761  0.3659  0.1793
 8475TIP3    H146840   1.598   0.542  15.783 -0.8048  1.5314  2.7101
 8475TIP3    H246841   1.680   0.433  15.848 -0.7254  1.5560  2.6530
 8476TIP3   OH246842   4.950   4.659  16.479 -0.4177  0.6349  0.2821
 8476TIP3    H146843   5.035   4.620  16.498 -0.1340  0.9923 -0.2281
 8476TIP3    H246844   4.925   4.703  16.560  1.1967  2.9299 -0.3825
 8477TIP3   OH246845   0.384   5.047  14.496 -0.0572  0.3253  0.1787
 8477TIP3    H146846   0.465   5.095  14.511 -0.6572  1.7944 -1.0228
 8477TIP3    H246847   0.351   5.082  14.414 -2.4585  0.5195  1.1633
 8478TIP3   OH246848   3.819   3.174   2.412 -0.1517 -0.1808 -0.3670
 8478TIP3    H146849   3.756   3.242   2.437 -2.7736 -2.3472 -0.5163
 8478TIP3    H246850   3.903   3.218   2.411 -1.7975  3.3069 -1.5408
 8479TIP3   OH246851   5.468   0.442  16.774  0.3870 -0.1096  0.5301
 8479TIP3    H146852   5.560   0.415  16.771 -0.0284 -1.6592  0.9108
 8479TIP3    H246853   5.451   0.462  16.866 -0.0528 -1.3737  0.7412
 8480TIP3   OH246854   3.148   4.391   2.605  0.5294  0.2284 -0.1028
 8480TIP3    H146855   3.241   4.398   2.624  0.0017  1.3540  2.4792
 8480TIP3    H246856   3.112   4.338   2.676 -0.7492 -0.7145 -1.3839
 8481TIP3   OH246857   3.087   1.452  16.011 -0.2345 -0.4712 -0.1654
 8481TIP3    H146858   3.035   1.512  15.957 -1.4512 -1.6452 -0.3669
 8481TIP3    H246859   3.025   1.420  16.076  0.6208 -0.8705  0.4704
 8482TIP3   OH246860   0.334   4.749  14.375 -0.1187 -0.2264  0.4847
 8482TIP3    H146861   0.345   4.813  14.445  0.3004  0.1844  0.0472
 8482TIP3    H246862   0.418   4.747  14.330 -0.4043 -0.4440 -0.0483
 8483TIP3   OH246863   2.969   5.576  15.909 -0.6796  0.6206  0.7562
 8483TIP3    H146864   3.030   5.512  15.946  0.9376 -0.6179 -3.4168
 8483TIP3    H246865   3.021   5.656  15.899 -0.6100  0.4718 -0.1400
 8484TIP3   OH246866   4.883   6.065  13.040  0.1153 -0.1456  0.6391
 8484TIP3    H146867   4.917   6.125  12.973  0.8159 -2.9596 -1.6965
 8484TIP3    H246868   4.788   6.073  13.032  0.1653 -0.8087 -1.1494
 8485TIP3   OH246869   2.029   4.767   3.048 -0.2743  0.1506  0.6124
 8485TIP3    H146870   2.067   4.723   3.124 -0.8881  2.4198  2.3323
 8485TIP3    H246871   1.935   4.750   3.055 -0.5430  1.7604  1.3993
 8486TIP3   OH246872   5.595   5.646  12.915 -0.2483 -0.1926  0.7533
 8486TIP3    H146873   5.547   5.601  12.985 -1.8986  0.2744 -0.0311
 8486TIP3    H246874   5.528   5.667  12.850  1.1740 -0.2266 -0.7755
 8487TIP3   OH246875   2.886   4.344  11.873 -0.0500  0.5995 -0.2675
 8487TIP3    H146876   2.872   4.299  11.790  0.0735  0.7484 -0.3700
 8487TIP3    H246877   2.851   4.285  11.939 -0.8535  0.8201 -0.4875
 8488TIP3   OH246878   2.822   3.884   6.068 -0.5062  0.3523  0.1849
 8488TIP3    H146879   2.841   3.796   6.100  0.2846 -0.2800 -1.8754
 8488TIP3    H246880   2.727   3.888   6.062 -0.5183 -0.8209 -0.8274
 8489TIP3   OH246881   3.193   0.146  14.512 -0.3806  0.2181 -0.2305
 8489TIP3    H146882   3.225   0.103  14.432  0.1365 -0.9396  0.5737
 8489TIP3    H246883   3.247   0.224  14.519  1.1055 -0.7922  0.1310
 8490TIP3   OH246884   3.236   5.351   3.601  0.4011  0.1733  0.6347
 8490TIP3    H146885   3.173   5.284   3.575  0.3048  0.2684  0.6190
 8490TIP3    H246886   3.274   5.382   3.519 -0.6292  1.1757  0.5159
 8491TIP3   OH246887   2.024   0.368  12.206 -0.4550 -0.3659 -0.3828
 8491TIP3    H146888   1.957   0.323  12.155  0.0555 -0.0135 -1.4117
 8491TIP3    H246889   1.995   0.459  12.210 -0.8749 -0.5400  0.6308
 8492TIP3   OH246890   6.196   3.390   0.834  0.2379  0.0731 -0.4137
 8492TIP3    H146891   6.164   3.332   0.764  0.3035 -0.8763  0.3151
 8492TIP3    H246892   6.120   3.403   0.891  0.8154 -1.2663  0.7102
 8493TIP3   OH246893   1.317   5.216   4.161 -0.5818 -0.4325  0.0060
 8493TIP3    H146894   1.262   5.138   4.166 -0.2240 -0.6246  1.2762
 8493TIP3    H246895   1.259   5.288   4.184 -0.2600 -0.6832  1.7941
 8494TIP3   OH246896   3.286   0.306   1.956 -0.1348 -0.5602 -0.8759
 8494TIP3    H146897   3.225   0.233   1.946  1.0583 -1.7280 -0.0531
 8494TIP3    H246898   3.248   0.377   1.904 -2.1333 -1.2529 -0.4239
 8495TIP3   OH246899   3.363   4.388  12.252  0.0042  0.1964  0.0867
 8495TIP3    H146900   3.400   4.450  12.188 -1.0574 -1.4530 -2.2694
 8495TIP3    H246901   3.440   4.347  12.292  0.6955  1.3125 -0.0312
 8496TIP3   OH246902   3.834   5.516  13.623  0.1605  0.5298 -0.2699
 8496TIP3    H146903   3.838   5.428  13.584  0.7044  0.1137  0.6683
 8496TIP3    H246904   3.873   5.504  13.710 -0.5853  1.5177  0.2167
 8497TIP3   OH246905   6.325   1.473   6.780  0.6215  0.0883  0.2779
 8497TIP3    H146906   6.412   1.432   6.775  1.2225  1.0093  2.1403
 8497TIP3    H246907   6.341   1.565   6.759 -0.1695 -0.0002 -0.7697
 8498TIP3   OH246908   3.279   0.474  13.552  0.4138  0.2817 -0.3654
 8498TIP3    H146909   3.361   0.509  13.586  0.2641 -0.6964  1.1193
 8498TIP3    H246910   3.225   0.461  13.630 -0.3900 -0.9922 -1.1028
 8499TIP3   OH246911   2.600   5.367  16.017 -0.1087 -0.2490  0.1351
 8499TIP3    H146912   2.678   5.383  16.070  0.1044  0.6764 -0.4312
 8499TIP3    H246913   2.535   5.429  16.051 -0.3697 -0.5282  0.1459
 8500TIP3   OH246914   0.586   4.224   0.787  0.3044  0.1416  0.2445
 8500TIP3    H146915   0.562   4.258   0.701 -0.0403  0.8624  0.6072
 8500TIP3    H246916   0.660   4.166   0.771  0.0359  0.0096 -0.5739
 8501TIP3   OH246917   1.901   6.544   0.632  0.6499  0.5913  0.6426
 8501TIP3    H146918   1.930   6.466   0.585  0.4895  0.7965  0.1923
 8501TIP3    H246919   1.844   6.590   0.569  2.2083  2.0288  0.2142
 8502TIP3   OH246920   4.723   1.730  14.874 -0.2452  0.4065  0.5032
 8502TIP3    H146921   4.785   1.800  14.897 -1.7213  2.2197 -0.7024
 8502TIP3    H246922   4.641   1.755  14.918 -0.7359 -0.7222  0.2629
 8503TIP3   OH246923   0.415   3.322   2.884 -0.0111  0.0016  0.2095
 8503TIP3    H146924   0.462   3.402   2.863  0.5846  0.0306  1.5721
 8503TIP3    H246925   0.329   3.352   2.916  0.5589  0.1755  1.6455
 8504TIP3   OH246926   6.747   6.360   3.869 -0.2896  0.0185  0.0476
 8504TIP3    H146927   6.814   6.330   3.929 -0.7145 -0.2719  0.3861
 8504TIP3    H246928   6.795   6.394   3.794  0.2227 -1.4616 -0.3297
 8505TIP3   OH246929   2.412   1.321  12.278 -0.5950 -0.2803 -0.2554
 8505TIP3    H146930   2.378   1.308  12.367 -0.4583 -2.4060 -0.4519
 8505TIP3    H246931   2.440   1.233  12.251  0.4937  0.5500 -1.9465
 8506TIP3   OH246932   4.054   6.598   0.040  0.6402 -0.3399 -0.0593
 8506TIP3    H146933   4.032   6.527  -0.020  0.1247 -0.2501  0.0152
 8506TIP3    H246934   4.141   6.626   0.013  0.2747 -0.0571 -1.0130
 8507TIP3   OH246935   4.620   4.361   1.160  0.2537 -0.0173 -0.4514
 8507TIP3    H146936   4.614   4.269   1.187 -3.3187  0.5989  1.3650
 8507TIP3    H246937   4.537   4.379   1.115  0.3241  2.6312  0.3159
 8508TIP3   OH246938   6.123   2.470  13.998 -0.0379  0.8550 -0.7275
 8508TIP3    H146939   6.160   2.390  13.959 -0.5841  0.3238 -0.1699
 8508TIP3    H246940   6.029   2.463  13.984 -0.2030  0.8681  0.2684
 8509TIP3   OH246941   0.761   0.736   1.279  0.2988  0.3482  0.5935
 8509TIP3    H146942   0.770   0.826   1.248  2.4466 -0.0523 -0.0546
 8509TIP3    H246943   0.670   0.731   1.309  0.1513  2.7567  0.7782
 8510TIP3   OH246944   1.642   2.881  12.008  0.4519  0.0516 -0.1924
 8510TIP3    H146945   1.686   2.910  11.928  0.5763  0.2184 -0.0642
 8510TIP3    H246946   1.663   2.788  12.014  1.9859  0.4227  0.6233
 8511TIP3   OH246947   2.840   3.754  11.208  0.3550  0.2421  0.4095
 8511TIP3    H146948   2.906   3.806  11.255  1.3288 -0.3776 -0.2404
 8511TIP3    H246949   2.834   3.673  11.259 -0.3665  0.5381  0.8097
 8512TIP3   OH246950   6.264   3.913  17.047 -0.2477  0.0760 -1.1396
 8512TIP3    H146951   6.340   3.878  17.000 -0.0219  2.6375 -2.8420
 8512TIP3    H246952   6.204   3.943  16.978 -2.5144 -1.1207  0.1657
 8513TIP3   OH246953   4.223   5.374  15.507 -0.0800 -0.1732  0.3643
 8513TIP3    H146954   4.168   5.435  15.555 -0.1529  1.0746 -1.2316
 8513TIP3    H246955   4.239   5.302  15.569 -1.3580  0.6554  1.7167
 8514TIP3   OH246956   4.858   2.736  12.495 -0.7967  0.1897  0.3319
 8514TIP3    H146957   4.782   2.766  12.546 -0.1741  1.6091  0.4784
 8514TIP3    H246958   4.862   2.795  12.420  0.3552  0.3587  0.5076
 8515TIP3   OH246959   4.883   5.168  15.095 -0.1369  0.5759 -0.2892
 8515TIP3    H146960   4.804   5.128  15.058  0.9533  0.0461 -2.2315
 8515TIP3    H246961   4.925   5.097  15.144  0.3236  0.1135 -1.3058
 8516TIP3   OH246962   5.561   0.585  17.156 -0.2856  0.1855 -0.2990
 8516TIP3    H146963   5.531   0.623  17.238 -1.5728  0.8401 -1.0562
 8516TIP3    H246964   5.501   0.617  17.090 -0.3997 -1.7909 -1.2485
 8517TIP3   OH246965   1.329   1.318  16.131  0.3271  0.2480 -0.6423
 8517TIP3    H146966   1.351   1.400  16.088  1.7123  0.0961 -0.2640
 8517TIP3    H246967   1.300   1.343  16.218 -0.9220  0.4403 -1.0959
 8518TIP3   OH246968   3.528   4.537  11.805 -0.8883 -0.4442  0.2373
 8518TIP3    H146969   3.597   4.582  11.853  1.1451 -0.4451 -2.4051
 8518TIP3    H246970   3.573   4.465  11.760 -2.6869 -0.7721 -1.1753
 8519TIP3   OH246971   2.991   1.518   0.784 -0.0946 -0.8609 -0.1522
 8519TIP3    H146972   2.925   1.581   0.754  0.2153 -0.0533  0.8041
 8519TIP3    H246973   3.045   1.501   0.707 -0.0246  0.2514 -0.3563
 8520TIP3   OH246974   2.471   0.163  12.402 -0.2614  0.9521 -0.7501
 8520TIP3    H146975   2.428   0.090  12.357 -0.0721  0.6597 -0.4612
 8520TIP3    H246976   2.411   0.237  12.390  0.3717  1.2205 -2.5769
 8521TIP3   OH246977   1.879   2.611   5.484  0.1267 -0.6321 -0.3735
 8521TIP3    H146978   1.938   2.546   5.523  3.9589  0.8001 -3.0770
 8521TIP3    H246979   1.856   2.669   5.557  3.9134 -0.1401  0.6764
 8522TIP3   OH246980   3.330   5.942  13.363 -0.4930 -0.0031 -0.6878
 8522TIP3    H146981   3.331   5.900  13.449  0.2971 -1.2600 -1.2672
 8522TIP3    H246982   3.270   6.015  13.372  0.2456  0.4298  1.1773
 8523TIP3   OH246983   0.508   2.290  15.354  0.5032 -1.0495 -0.2575
 8523TIP3    H146984   0.584   2.235  15.334  0.8643 -0.3391 -0.9139
 8523TIP3    H246985   0.475   2.318  15.269  0.4800 -0.0577  0.0653
 8524TIP3   OH246986   0.928   0.543   4.156 -0.2209 -0.2828  0.6515
 8524TIP3    H146987   0.870   0.602   4.205 -0.7965 -1.4956  1.4833
 8524TIP3    H246988   0.908   0.560   4.064 -0.9846  0.2084  0.8992
 8525TIP3   OH246989   0.634   3.775  13.597 -0.7052 -0.0426 -0.1125
 8525TIP3    H146990   0.675   3.691  13.576 -2.0994 -0.9566  0.6729
 8525TIP3    H246991   0.630   3.777  13.693  2.4668  2.5290  0.1293
 8526TIP3   OH246992   4.238   1.906  13.668 -0.0432 -0.0108 -0.0077
 8526TIP3    H146993   4.296   1.915  13.591  0.4087 -0.6780  0.2460
 8526TIP3    H246994   4.171   1.973  13.655 -0.0400 -0.1945 -1.0510
 8527TIP3   OH246995   0.225   1.774  17.000  0.1073  0.2979 -0.6543
 8527TIP3    H146996   0.256   1.857  17.037  1.9399  0.0515 -1.5352
 8527TIP3    H246997   0.160   1.743  17.062 -0.4404  2.2696 -0.1805
 8528TIP3   OH246998   3.622   1.346   6.470  0.2059  0.0072 -0.3220
 8528TIP3    H146999   3.582   1.259   6.461  2.0496 -0.7539 -2.0829
 8528TIP3    H247000   3.563   1.394   6.528 -0.6758 -2.5320  1.0543
 8529TIP3   OH247001   3.498   2.442  17.233  0.1548  0.2842 -0.7549
 8529TIP3    H147002   3.450   2.522  17.254  0.4807  0.8578 -2.0898
 8529TIP3    H247003   3.492   2.389  17.312  0.0644  1.6870  0.2173
 8530TIP3   OH247004   3.308   0.399   5.883 -0.0956 -0.1989  0.3658
 8530TIP3    H147005   3.350   0.480   5.912 -0.8112  0.0488  0.7512
 8530TIP3    H247006   3.358   0.372   5.807 -0.1217  0.8589 -0.0506
 8531TIP3   OH247007   3.876   4.368   4.011  0.0328  0.1438  0.0779
 8531TIP3    H147008   3.910   4.328   4.091 -0.3984 -0.2410  0.0716
 8531TIP3    H247009   3.953   4.399   3.964  0.5704 -2.4805 -0.9122
 8532TIP3   OH247010   3.415   5.116  12.268 -0.1192 -0.7352  0.1552
 8532TIP3    H147011   3.385   5.205  12.288 -1.4847 -0.6547 -2.0127
 8532TIP3    H247012   3.506   5.115  12.298 -0.4871  0.9208  1.5113
 8533TIP3   OH247013   6.768   0.739   0.600 -0.4123 -0.4543 -0.0782
 8533TIP3    H147014   6.726   0.818   0.635 -0.4101 -0.3199 -0.3730
 8533TIP3    H247015   6.753   0.745   0.506 -1.0881 -1.2059 -0.0270
 8534TIP3   OH247016   6.423   4.585  13.054  0.4454  0.3324 -0.5660
 8534TIP3    H147017   6.466   4.520  13.109 -0.6365  0.2338  0.1946
 8534TIP3    H247018   6.339   4.545  13.031  0.9097  0.3141 -2.4266
 8535TIP3   OH247019   5.148   4.843   1.885 -0.7720 -0.0676  0.5249
 8535TIP3    H147020   5.085   4.778   1.918 -0.2811 -1.2868 -0.8350
 8535TIP3    H247021   5.165   4.815   1.795  1.9378  0.0397  0.9376
 8536TIP3   OH247022   3.219   1.950  13.763  0.3856 -1.1068 -0.2752
 8536TIP3    H147023   3.141   1.971  13.815 -0.3919 -3.4677 -0.3674
 8536TIP3    H247024   3.188   1.956  13.672  0.8096 -0.3597 -0.3796
 8537TIP3   OH247025   0.713   5.842   0.358 -0.1099  0.3647 -0.2034
 8537TIP3    H147026   0.767   5.921   0.361  0.0485  0.3010 -1.1783
 8537TIP3    H247027   0.695   5.823   0.450  0.9979  0.7543  0.1192
 8538TIP3   OH247028   4.565   5.000  12.858  0.1174  0.3835 -0.3685
 8538TIP3    H147029   4.478   5.040  12.859 -0.8282 -1.5610  1.5669
 8538TIP3    H247030   4.549   4.906  12.849  2.0901  0.0512 -0.9230
 8539TIP3   OH247031   0.279   1.569  14.895  0.5679  0.3575  0.5787
 8539TIP3    H147032   0.296   1.649  14.945  2.3717  0.0577  0.5204
 8539TIP3    H247033   0.206   1.527  14.940  2.1863  0.0397  3.1181
 8540TIP3   OH247034   0.901   4.835   4.307  0.0643  0.1148  0.5792
 8540TIP3    H147035   0.917   4.817   4.399 -0.5100 -1.7291  0.3635
 8540TIP3    H247036   0.978   4.799   4.261  0.6329  1.5472  0.3464
 8541TIP3   OH247037   2.615   5.565  15.130 -0.0915  0.2815 -0.0140
 8541TIP3    H147038   2.686   5.501  15.124 -0.3638 -0.0081 -0.1869
 8541TIP3    H247039   2.590   5.581  15.039 -0.4789  0.1182  0.0610
 8542TIP3   OH247040   1.553   6.098   4.285  0.4176 -0.2219 -0.6493
 8542TIP3    H147041   1.512   6.171   4.239  1.5287 -0.6137 -2.3381
 8542TIP3    H247042   1.620   6.066   4.225  0.6852 -1.9511  0.4977
 8543TIP3   OH247043   0.139   4.773  17.074  0.0268  0.3518 -0.5473
 8543TIP3    H147044   0.119   4.715  17.148  0.6284  0.9517  0.1028
 8543TIP3    H247045   0.053   4.804  17.045 -0.2999 -0.8490 -0.8975
 8544TIP3   OH247046   3.832   3.088   3.382 -0.2058  0.4491  0.1996
 8544TIP3    H147047   3.916   3.133   3.390 -1.0873  2.5107 -1.1927
 8544TIP3    H247048   3.794   3.093   3.470  1.9181 -2.4242  1.4336
 8545TIP3   OH247049   4.888   2.664  17.040  0.2165 -0.0970  0.4213
 8545TIP3    H147050   4.853   2.589  16.993 -0.5776  0.3599  0.2672
 8545TIP3    H247051   4.866   2.739  16.985 -1.5956  0.5576  1.9234
 8546TIP3   OH247052   1.822   0.964   4.887  0.1737 -0.0534  0.4412
 8546TIP3    H147053   1.823   0.878   4.845 -0.2617 -0.3971  1.1333
 8546TIP3    H247054   1.828   0.946   4.980  2.3394  0.7555  0.5244
 8547TIP3   OH247055   0.173   5.097  10.502 -0.8244  0.0271 -0.0922
 8547TIP3    H147056   0.090   5.053  10.482 -0.1006 -1.5433  0.2066
 8547TIP3    H247057   0.231   5.072  10.430 -0.0564 -0.4770  0.6880
 8548TIP3   OH247058   4.933   0.204  11.370  0.5421  0.2804 -0.3891
 8548TIP3    H147059   4.860   0.180  11.427  0.4981 -0.5021 -0.7670
 8548TIP3    H247060   4.893   0.252  11.298  0.7260  2.3385  0.8106
 8549TIP3   OH247061   1.673   1.927   5.071 -0.1054  0.2030  0.2216
 8549TIP3    H147062   1.700   1.912   5.161 -0.3040 -0.2554  0.2103
 8549TIP3    H247063   1.617   2.004   5.074 -0.3874 -0.0109  0.5471
 8550TIP3   OH247064   4.701   0.163  11.504  0.1528  0.2249 -0.2280
 8550TIP3    H147065   4.668   0.191  11.419  0.5276 -0.7230 -0.7069
 8550TIP3    H247066   4.697   0.067  11.501  1.1591  0.1412  0.4077
 8551TIP3   OH247067   4.330   6.097   3.528  0.4413 -0.1250  0.1168
 8551TIP3    H147068   4.261   6.153   3.566  1.8960  0.5391  1.9443
 8551TIP3    H247069   4.283   6.036   3.471 -1.5128  1.0964  0.3250
 8552TIP3   OH247070   0.974   2.638   4.559 -0.2659 -0.9314  0.0574
 8552TIP3    H147071   1.014   2.561   4.599  0.3674 -0.8494 -0.4130
 8552TIP3    H247072   0.948   2.692   4.633  0.1169 -1.1775  0.3748
 8553TIP3   OH247073   6.679   4.207   1.552  0.1239 -0.6064  0.1079
 8553TIP3    H147074   6.749   4.170   1.499 -0.1278 -1.1904  0.1717
 8553TIP3    H247075   6.675   4.299   1.525 -0.3313 -0.9978 -1.2742
 8554TIP3   OH247076   0.272   1.190   4.845 -0.2095 -0.0889 -0.9029
 8554TIP3    H147077   0.205   1.132   4.881 -0.8575  0.8123 -0.6296
 8554TIP3    H247078   0.223   1.263   4.807  0.6322  1.1453  0.2864
 8555TIP3   OH247079   3.936   3.088  15.411 -0.0631 -0.2012  0.3589
 8555TIP3    H147080   3.985   3.170  15.408 -0.3272 -0.0702 -1.4625
 8555TIP3    H247081   3.874   3.099  15.483 -0.3100  1.3453 -0.0603
 8556TIP3   OH247082   2.825   2.228   4.032  0.1287  0.0437 -0.1321
 8556TIP3    H147083   2.837   2.284   4.108  0.8570  0.1186 -0.2995
 8556TIP3    H247084   2.902   2.171   4.030 -1.1179 -1.7558  0.6711
 8557TIP3   OH247085   2.894   5.093  10.464 -0.0480  0.6393 -0.2169
 8557TIP3    H147086   2.953   5.046  10.405 -0.0123  0.2151  0.1450
 8557TIP3    H247087   2.935   5.178  10.478 -0.3650  0.9794 -1.2790
 8558TIP3   OH247088   6.345   6.211  14.342 -0.3249 -0.5082  0.4417
 8558TIP3    H147089   6.307   6.289  14.384 -1.0690  0.0270 -1.1608
 8558TIP3    H247090   6.341   6.229  14.249  1.4697 -1.6013  0.1050
 8559TIP3   OH247091   3.057   1.978  14.971 -0.0780 -0.2455  0.9571
 8559TIP3    H147092   3.143   1.993  14.930  0.2268 -1.6859  0.9946
 8559TIP3    H247093   3.068   2.007  15.061  0.3564 -0.3568  0.9432
 8560TIP3   OH247094   5.481   3.688  16.718 -0.8039  0.3126 -0.2733
 8560TIP3    H147095   5.456   3.650  16.803 -1.1731 -0.2308 -0.6168
 8560TIP3    H247096   5.540   3.760  16.741  1.7190 -1.7893  0.3473
 8561TIP3   OH247097   3.656   1.328  16.374 -0.1372  0.3008  0.1231
 8561TIP3    H147098   3.723   1.331  16.305  0.0247 -0.1057  0.2634
 8561TIP3    H247099   3.575   1.352  16.329  0.4068  2.8511  0.3415
 8562TIP3   OH247100   6.655   2.465  16.609  0.8362 -0.2989  0.3200
 8562TIP3    H147101   6.643   2.446  16.702 -0.5213 -0.6869  0.0891
 8562TIP3    H247102   6.569   2.493  16.579  0.6419 -2.3148 -1.2836
 8563TIP3   OH247103   5.027   6.261  14.117  0.4126  0.0285 -0.1359
 8563TIP3    H147104   5.053   6.352  14.103  0.7925 -0.0305  0.1710
 8563TIP3    H247105   5.020   6.225  14.028 -3.1365  1.2375 -0.5004
 8564TIP3   OH247106   5.085   1.116   2.833  0.3709  0.4903  0.3195
 8564TIP3    H147107   5.046   1.150   2.753 -0.1845  3.4820  1.7387
 8564TIP3    H247108   5.075   1.021   2.826 -0.7628  0.7363 -2.5520
 8565TIP3   OH247109   1.186   4.441   0.545  0.1352  0.2724  0.2548
 8565TIP3    H147110   1.154   4.511   0.603  1.2084  0.4954  0.5892
 8565TIP3    H247111   1.155   4.361   0.587  1.0611  0.4195  1.2655
 8566TIP3   OH247112   2.669   2.721   3.390 -0.0225 -0.1854  0.1780
 8566TIP3    H147113   2.688   2.789   3.454  1.4989 -0.0224 -0.3890
 8566TIP3    H247114   2.629   2.768   3.317 -0.5436 -0.1659  0.4759
 8567TIP3   OH247115   3.707   3.447  11.840 -0.7693 -0.5384 -0.3179
 8567TIP3    H147116   3.746   3.369  11.879 -0.0624  0.0087  0.0923
 8567TIP3    H247117   3.777   3.512  11.839 -2.2202  1.3551  2.8449
 8568TIP3   OH247118   1.332   4.218   3.713  0.1168 -0.6641  0.3305
 8568TIP3    H147119   1.405   4.232   3.653  1.9927 -2.6257  2.0308
 8568TIP3    H247120   1.294   4.306   3.725  2.3912  0.4838 -0.3346
 8569TIP3   OH247121   0.748   5.393   2.488  0.1596 -0.3507  0.4259
 8569TIP3    H147122   0.792   5.308   2.478  0.2611 -0.2507 -0.0150
 8569TIP3    H247123   0.717   5.394   2.578 -3.6775 -2.7094 -0.6294
 8570TIP3   OH247124   4.380   0.930  14.267 -0.1499 -0.5186 -0.0585
 8570TIP3    H147125   4.378   0.834  14.265  1.0359 -0.6278  1.4934
 8570TIP3    H247126   4.439   0.955  14.196 -1.7056 -0.8048 -1.5224
 8571TIP3   OH247127   4.724   1.167  13.555 -0.0430 -0.1128 -0.4021
 8571TIP3    H147128   4.731   1.252  13.511  1.8692 -0.5954 -1.1731
 8571TIP3    H247129   4.711   1.188  13.647  0.9404  1.0477 -0.5025
 8572TIP3   OH247130   2.714   1.721  16.210 -0.1643 -0.1080  0.0554
 8572TIP3    H147131   2.665   1.787  16.163  1.6982  1.9348  0.8089
 8572TIP3    H247132   2.677   1.721  16.298 -0.1253 -0.0195  0.0727
 8573TIP3   OH247133   5.679   2.873  15.884  0.3246  0.3582  0.4077
 8573TIP3    H147134   5.708   2.877  15.792 -0.0856 -1.8632  0.1157
 8573TIP3    H247135   5.596   2.920  15.884  1.0103  1.6355 -0.0179
 8574TIP3   OH247136   2.672   4.384  13.204 -0.0586  0.0688  0.1596
 8574TIP3    H147137   2.707   4.346  13.285 -1.6753 -0.6167  0.5715
 8574TIP3    H247138   2.712   4.471  13.200  0.3254 -0.0200  1.5232
 8575TIP3   OH247139   0.396   5.288  15.190 -0.2302 -0.2222  0.0954
 8575TIP3    H147140   0.487   5.271  15.166 -0.1227  0.2539  0.1586
 8575TIP3    H247141   0.346   5.222  15.142  0.1089 -0.2003 -0.2947
 8576TIP3   OH247142   3.282   0.247   2.432 -0.1529 -0.4345 -0.1427
 8576TIP3    H147143   3.333   0.222   2.508 -1.0525  1.5884  1.2243
 8576TIP3    H247144   3.226   0.318   2.463 -2.5763 -1.3998 -1.9901
 8577TIP3   OH247145   5.176   1.982  13.219  0.3560 -0.5276 -0.5709
 8577TIP3    H147146   5.254   1.949  13.263 -0.5203 -1.1038  0.5981
 8577TIP3    H247147   5.208   2.014  13.135  2.0273  0.2989  0.3369
 8578TIP3   OH247148   2.257   3.948   3.024 -0.2705 -0.1548 -0.1043
 8578TIP3    H147149   2.278   3.943   3.117 -0.8175  2.3653  0.2293
 8578TIP3    H247150   2.198   3.875   3.008  1.5272 -1.9713  0.9666
 8579TIP3   OH247151   6.630   6.101  12.867  0.3657  0.1856  0.7030
 8579TIP3    H147152   6.570   6.160  12.821  0.8369  0.7963  0.8599
 8579TIP3    H247153   6.623   6.018  12.820 -1.5736 -0.1533  1.4862
 8580TIP3   OH247154   5.713   3.577   1.417 -0.0019 -0.1426  0.1764
 8580TIP3    H147155   5.665   3.545   1.340 -1.6385  0.1324  1.0375
 8580TIP3    H247156   5.739   3.666   1.394 -0.4510 -0.0746 -0.0842
 8581TIP3   OH247157   0.567   6.338  12.962  0.2268 -0.2333  0.1017
 8581TIP3    H147158   0.566   6.329  12.867  1.5506 -2.0851  0.2035
 8581TIP3    H247159   0.503   6.406  12.981  0.9987  1.2499 -2.2074
 8582TIP3   OH247160   2.376   1.754  15.183  0.1398  0.0435 -0.3299
 8582TIP3    H147161   2.434   1.687  15.218  1.9966  1.9212  0.3791
 8582TIP3    H247162   2.413   1.775  15.097  1.4229  2.1963  0.6754
 8583TIP3   OH247163   5.288   1.404   1.182  0.3581 -0.1695 -0.1103
 8583TIP3    H147164   5.253   1.442   1.102 -0.2279 -0.9253 -0.2229
 8583TIP3    H247165   5.373   1.367   1.156  0.6238  0.4524 -0.1468
 8584TIP3   OH247166   0.838   4.927  17.076 -0.0088  0.3949 -0.3626
 8584TIP3    H147167   0.781   4.851  17.061  2.0306 -0.9008 -2.0701
 8584TIP3    H247168   0.888   4.937  16.995  1.1340  2.4154  0.5080
 8585TIP3   OH247169   5.291   0.297  16.000  0.1526  0.5863  0.2585
 8585TIP3    H147170   5.202   0.268  15.980  0.2929 -0.9999  1.7244
 8585TIP3    H247171   5.279   0.380  16.047 -0.6391 -0.0361  1.2070
 8586TIP3   OH247172   1.138   4.574  14.869  0.2989 -0.5295  0.4124
 8586TIP3    H147173   1.097   4.518  14.935  0.4894 -1.6002 -0.3574
 8586TIP3    H247174   1.223   4.598  14.907  0.4474 -1.2119  0.5170
 8587TIP3   OH247175   0.222   6.013  12.080  0.5324 -0.4912 -0.5772
 8587TIP3    H147176   0.294   5.953  12.060  0.7448 -0.8735  1.1776
 8587TIP3    H247177   0.265   6.098  12.091  0.8526 -0.8183  1.0165
 8588TIP3   OH247178   1.129   6.284   6.064  0.5162  0.1232  0.0678
 8588TIP3    H147179   1.154   6.292   5.972 -1.3635 -3.8526 -0.9899
 8588TIP3    H247180   1.129   6.374   6.096  3.3116  1.5154 -3.1538
 8589TIP3   OH247181   2.212   6.689  10.821 -0.0221  0.4309  0.1190
 8589TIP3    H147182   2.300   6.697  10.784 -1.0242  1.5979 -2.2800
 8589TIP3    H247183   2.175   6.612  10.777 -0.2008 -0.0949  1.1618
 8590TIP3   OH247184   5.127   0.331  17.171  0.1211 -0.0853  0.3901
 8590TIP3    H147185   5.165   0.301  17.253 -1.3311 -0.1344  1.0823
 8590TIP3    H247186   5.033   0.333  17.187 -0.1049  1.2905 -0.8064
 8591TIP3   OH247187   6.300   0.048  15.705 -0.0827  0.2975  0.2389
 8591TIP3    H147188   6.337  -0.040  15.708  1.1878  0.8215  1.6785
 8591TIP3    H247189   6.313   0.082  15.794 -1.1236  1.7121 -0.1139
 8592TIP3   OH247190   1.999   2.635  14.292  0.0229 -0.0428  0.2625
 8592TIP3    H147191   2.028   2.544  14.303 -0.5530 -0.3935 -0.8989
 8592TIP3    H247192   2.071   2.687  14.328 -0.0955 -0.9603  1.8929
 8593TIP3   OH247193   3.495   0.283  16.028 -0.1590 -0.3096  0.6302
 8593TIP3    H147194   3.468   0.373  16.045  0.2009 -0.6042  3.1592
 8593TIP3    H247195   3.584   0.278  16.063  0.0703 -1.4844 -0.0895
 8594TIP3   OH247196   4.186   3.904  16.772  0.6573 -1.2475 -0.2911
 8594TIP3    H147197   4.161   3.826  16.822  0.7312 -1.5250 -0.6821
 8594TIP3    H247198   4.256   3.943  16.824 -1.4240  0.3020  1.5544
 8595TIP3   OH247199   1.009   6.770  13.294 -0.3892  0.0634  0.4189
 8595TIP3    H147200   1.024   6.711  13.220 -0.6820  0.1720  0.2708
 8595TIP3    H247201   1.054   6.851  13.270  0.2169 -0.1748  0.7282
 8596TIP3   OH247202   0.794   0.903  12.808  0.0657  1.0943  0.2197
 8596TIP3    H147203   0.888   0.887  12.804 -0.1806 -0.2185 -1.1061
 8596TIP3    H247204   0.786   0.998  12.796  1.2816  1.5383  2.3846
 8597TIP3   OH247205   4.826   6.329  16.947  0.2967  0.8371 -0.0804
 8597TIP3    H147206   4.882   6.387  16.998 -0.5969  0.2196  1.7180
 8597TIP3    H247207   4.758   6.387  16.911  1.5530  1.4536 -1.5911
 8598TIP3   OH247208   2.355   0.774  11.890  0.3728 -0.5171 -1.1140
 8598TIP3    H147209   2.259   0.775  11.890  0.3626  0.2199 -0.0111
 8598TIP3    H247210   2.379   0.809  11.804 -0.3318 -0.9113 -1.4866
 8599TIP3   OH247211   2.448   0.874  11.659  0.4323  0.0206  0.3930
 8599TIP3    H147212   2.384   0.918  11.603  0.5202 -0.4133 -0.0592
 8599TIP3    H247213   2.526   0.867  11.604  1.3481  1.7707  1.3848
 8600TIP3   OH247214   0.382   5.446  13.359  0.3982 -1.3969  0.5892
 8600TIP3    H147215   0.415   5.461  13.447  1.5512  1.1418 -0.1878
 8600TIP3    H247216   0.426   5.366  13.330 -0.0922 -2.3257  2.3204
 8601TIP3   OH247217   2.752   5.923   5.942  0.0019 -0.3232 -0.1634
 8601TIP3    H147218   2.770   5.875   5.861  2.1483  0.0499  0.0127
 8601TIP3    H247219   2.787   6.011   5.926  0.1190 -0.1311  1.0108
 8602TIP3   OH247220   2.630   6.116   4.909  0.1466  0.2277  0.0602
 8602TIP3    H147221   2.701   6.157   4.959 -0.6270  0.8386  0.6887
 8602TIP3    H247222   2.667   6.033   4.879  0.8270  0.1115  1.1582
 8603TIP3   OH247223   1.470   2.739   4.115  0.5729  0.5376  0.8539
 8603TIP3    H147224   1.446   2.704   4.029 -0.5466  1.6717  0.6638
 8603TIP3    H247225   1.562   2.716   4.126  0.8034  0.5658 -0.7617
 8604TIP3   OH247226   3.589   4.566  15.707 -0.2092  0.0373 -0.0232
 8604TIP3    H147227   3.662   4.552  15.767  1.3083  3.0258 -0.9597
 8604TIP3    H247228   3.514   4.584  15.764  0.0010 -1.9209  0.9436
 8605TIP3   OH247229   6.275   5.673  16.221  0.6048 -0.2711  0.2054
 8605TIP3    H147230   6.248   5.617  16.294  0.5727 -0.4194  0.0811
 8605TIP3    H247231   6.369   5.653  16.210  0.5450 -0.4580  0.0247
 8606TIP3   OH247232   4.090   2.613  12.458  0.2195  0.2532  0.0339
 8606TIP3    H147233   4.013   2.611  12.514  0.6131 -0.4212  0.5646
 8606TIP3    H247234   4.075   2.545  12.392  0.7865 -0.5603  0.7282
 8607TIP3   OH247235   5.561   1.382   4.915 -0.3963  0.5975  0.0267
 8607TIP3    H147236   5.496   1.416   4.976  0.0307  0.2404  0.6875
 8607TIP3    H247237   5.620   1.329   4.969  2.2019  3.2178 -0.0019
 8608TIP3   OH247238   0.305   4.050  12.639  0.0954 -0.0800 -0.8819
 8608TIP3    H147239   0.336   3.982  12.699  2.2199  1.2061 -0.4183
 8608TIP3    H247240   0.368   4.050  12.567 -0.4268  0.7353 -1.3627
 8609TIP3   OH247241   1.289   0.788   5.842 -0.3887 -0.3489 -0.1654
 8609TIP3    H147242   1.366   0.803   5.896 -0.4980 -2.2112  0.5994
 8609TIP3    H247243   1.260   0.699   5.865 -2.4899  0.1107 -0.7583
 8610TIP3   OH247244   3.258   3.839   3.272 -0.0608 -0.0997  0.3168
 8610TIP3    H147245   3.234   3.779   3.343  1.2060  0.7463  1.4998
 8610TIP3    H247246   3.346   3.812   3.246  0.4358  1.0797  0.7056
 8611TIP3   OH247247   5.178   5.723  17.284  0.7259  0.3027 -0.4764
 8611TIP3    H147248   5.139   5.646  17.243  3.3915 -0.5213 -1.7470
 8611TIP3    H247249   5.132   5.797  17.245 -0.5423 -0.6016 -0.7530
 8612TIP3   OH247250   2.609   4.439   5.475  0.3441  0.2013 -0.1573
 8612TIP3    H147251   2.556   4.497   5.420  1.7979  1.3326 -0.4424
 8612TIP3    H247252   2.609   4.355   5.429  0.6356  0.8267 -1.3411
 8613TIP3   OH247253   2.310   0.136  15.685 -0.1672  0.2124  0.0003
 8613TIP3    H147254   2.231   0.082  15.679  1.0070 -1.5022 -0.6063
 8613TIP3    H247255   2.379   0.083  15.646  0.9018  2.5068 -1.4571
 8614TIP3   OH247256   0.558   3.899   0.382 -0.5002  0.2102 -0.6805
 8614TIP3    H147257   0.469   3.932   0.395  0.0534  1.5488 -0.1272
 8614TIP3    H247258   0.549   3.835   0.310 -1.8550  0.5030 -0.8056
 8615TIP3   OH247259   2.754   1.515   5.604 -0.1912 -0.2061  0.0558
 8615TIP3    H147260   2.812   1.559   5.667 -0.0533 -1.2171  0.6559
 8615TIP3    H247261   2.786   1.425   5.601 -0.4752 -0.2761 -1.1456
 8616TIP3   OH247262   5.219   5.121  17.130  0.5244 -0.0112  0.5854
 8616TIP3    H147263   5.266   5.203  17.143 -1.6932  1.9655 -2.3949
 8616TIP3    H247264   5.184   5.128  17.041 -0.5204 -3.8521  0.5321
 8617TIP3   OH247265   3.269   4.800  14.132  0.3245  0.5613  0.8459
 8617TIP3    H147266   3.180   4.791  14.165 -0.0821  0.2846 -0.2931
 8617TIP3    H247267   3.290   4.893  14.145 -0.5125  0.8551  0.1680
 8618TIP3   OH247268   6.343   1.827   0.859 -0.4134 -0.1882  0.4112
 8618TIP3    H147269   6.342   1.760   0.928 -1.0019  0.7642  1.3617
 8618TIP3    H247270   6.329   1.909   0.906  0.2188  0.5969 -0.7488
 8619TIP3   OH247271   3.199   4.749  12.993  1.0537  0.5659  0.0151
 8619TIP3    H147272   3.202   4.749  13.089  1.2405  0.3365  0.0073
 8619TIP3    H247273   3.229   4.662  12.967 -1.2485 -0.2456 -0.1872
 8620TIP3   OH247274   1.072   6.237   2.091  0.3715 -0.0927 -0.8439
 8620TIP3    H147275   1.144   6.175   2.106  0.8111  0.1316 -1.9762
 8620TIP3    H247276   1.043   6.262   2.179  0.3186 -1.7404 -0.3611
 8621TIP3   OH247277   2.609   3.744  13.691  0.2764 -0.0664 -0.0892
 8621TIP3    H147278   2.535   3.734  13.632  0.2158  0.8592 -0.1841
 8621TIP3    H247279   2.651   3.826  13.664  1.4109 -0.6367 -0.1246
 8622TIP3   OH247280   5.888   1.160   4.575 -0.6355 -0.4077 -0.6558
 8622TIP3    H147281   5.800   1.145   4.542 -1.8424  4.4161 -0.3677
 8622TIP3    H247282   5.874   1.189   4.665  0.6517  3.9049 -1.6282
 8623TIP3   OH247283   1.023   0.407  11.540 -0.1557 -0.5349 -0.2666
 8623TIP3    H147284   0.992   0.450  11.460 -0.0728  0.1903  0.0748
 8623TIP3    H247285   1.114   0.382  11.521  0.4758  1.2259  0.1574
 8624TIP3   OH247286   0.600   3.296  13.116  0.3708 -0.1088  0.0576
 8624TIP3    H147287   0.693   3.312  13.134  0.2967 -0.1302  0.4618
 8624TIP3    H247288   0.561   3.282  13.202  0.0361 -0.3351 -0.1294
 8625TIP3   OH247289   1.458   1.020   1.374 -0.1958  0.1347 -0.7942
 8625TIP3    H147290   1.512   1.056   1.304 -3.3070  1.2670 -2.8079
 8625TIP3    H247291   1.418   0.942   1.336 -0.4930 -0.3416  0.4397
 8626TIP3   OH247292   0.949   1.549  15.809  0.5308 -0.6470  0.2585
 8626TIP3    H147293   1.042   1.570  15.804  0.4617 -0.2775  0.4456
 8626TIP3    H247294   0.923   1.578  15.897  0.3733 -1.2961  0.4297
 8627TIP3   OH247295   0.853   4.284  13.510 -0.2744 -0.0266  0.0718
 8627TIP3    H147296   0.856   4.293  13.605 -1.1178  2.2719 -0.0423
 8627TIP3    H247297   0.760   4.284  13.489 -0.1307 -1.9001 -0.6945
 8628TIP3   OH247298   3.478   2.683  11.487  0.0702  0.6414 -0.1206
 8628TIP3    H147299   3.388   2.706  11.511  0.1825 -0.8522  2.0826
 8628TIP3    H247300   3.533   2.741  11.539  0.3946  1.0432 -0.8958
 8629TIP3   OH247301   5.732   1.811   3.334  0.8716  0.0426  0.2815
 8629TIP3    H147302   5.716   1.905   3.339 -0.5705 -0.1186 -0.7686
 8629TIP3    H247303   5.718   1.780   3.424  1.0996  0.7738  0.5799
 8630TIP3   OH247304   2.373   4.581   2.682  0.4988 -0.1088 -0.1984
 8630TIP3    H147305   2.320   4.554   2.757 -0.2922 -0.4601 -0.8684
 8630TIP3    H247306   2.339   4.529   2.609  0.2767  1.2749 -1.1115
 8631TIP3   OH247307   1.624   4.037   0.073 -0.5998  0.3543 -0.5184
 8631TIP3    H147308   1.609   3.947   0.045 -0.2545  0.7559 -2.0755
 8631TIP3    H247309   1.540   4.080   0.061 -1.4517 -0.2202  2.4085
 8632TIP3   OH247310   4.663   4.791   5.973 -0.6120  0.2157 -0.1749
 8632TIP3    H147311   4.683   4.737   5.896  1.6403  0.6021  0.0688
 8632TIP3    H247312   4.737   4.778   6.031 -1.7883  0.7320  1.5259
 8633TIP3   OH247313   1.942   5.675   4.780 -0.2726 -0.0806 -0.3342
 8633TIP3    H147314   1.972   5.681   4.690 -0.0288 -0.4923 -0.2831
 8633TIP3    H247315   1.957   5.762   4.816  1.0434 -0.3209 -0.2568
 8634TIP3   OH247316   4.509   0.217  11.251 -0.1122  0.3015 -0.3798
 8634TIP3    H147317   4.505   0.235  11.157 -0.9647  1.2501 -0.1945
 8634TIP3    H247318   4.483   0.126  11.260  0.7867 -0.0349 -1.1217
 8635TIP3   OH247319   1.784   3.351   2.135 -0.2057 -0.5155 -0.7169
 8635TIP3    H147320   1.705   3.306   2.105 -0.5137  0.5644 -1.5969
 8635TIP3    H247321   1.856   3.294   2.107 -0.6618 -1.9969  0.9391
 8636TIP3   OH247322   2.371   4.415  15.565 -0.7997 -1.1701 -0.3265
 8636TIP3    H147323   2.381   4.340  15.507 -0.2463 -0.7470 -0.7814
 8636TIP3    H247324   2.301   4.467  15.526  0.8752  0.1364 -1.7544
 8637TIP3   OH247325   4.280   3.294   2.498 -0.3457  0.7058  0.4003
 8637TIP3    H147326   4.350   3.354   2.522  1.6063 -0.1907 -2.6145
 8637TIP3    H247327   4.324   3.212   2.478 -2.3268 -0.1248 -0.8796
 8638TIP3   OH247328   3.488   4.265   0.182 -0.1069 -0.1536 -0.3668
 8638TIP3    H147329   3.481   4.354   0.148  0.2832 -0.4292 -1.2141
 8638TIP3    H247330   3.430   4.263   0.258  0.2948  0.9719 -0.0089
 8639TIP3   OH247331   0.057   3.840   4.203  0.7128  0.2059 -0.0892
 8639TIP3    H147332   0.016   3.762   4.241  1.1827 -0.0587 -0.1157
 8639TIP3    H247333   0.002   3.913   4.233 -0.6351 -0.2582 -1.3370
 8640TIP3   OH247334   2.733   4.940   0.883  0.7214  0.0788 -0.0703
 8640TIP3    H147335   2.795   4.886   0.834 -1.6791 -1.7948 -1.2295
 8640TIP3    H247336   2.696   4.881   0.948 -1.2254  0.5783 -0.6681
 8641TIP3   OH247337   3.682   1.700   3.435 -0.0167 -0.3643 -0.8024
 8641TIP3    H147338   3.632   1.722   3.514 -0.7994  3.1024 -2.0950
 8641TIP3    H247339   3.628   1.635   3.390 -0.8773 -0.3867  0.2196
 8642TIP3   OH247340   0.103   3.259  11.291  0.1047  0.0355  0.0874
 8642TIP3    H147341   0.015   3.222  11.289  0.0531  0.1795 -1.2609
 8642TIP3    H247342   0.145   3.227  11.212  0.6764  1.3687 -0.1901
 8643TIP3   OH247343   3.598   1.450   1.828  0.5707 -0.0455 -0.0500
 8643TIP3    H147344   3.586   1.410   1.742 -1.9727 -1.1688  0.7382
 8643TIP3    H247345   3.671   1.402   1.866  0.0537 -1.3356 -0.6179
 8644TIP3   OH247346   6.475   6.036  13.278  0.1724  0.0738  0.0829
 8644TIP3    H147347   6.527   5.991  13.345  1.9998 -2.3604 -2.6809
 8644TIP3    H247348   6.540   6.077  13.221 -1.1607  0.4262 -1.2424
 8645TIP3   OH247349   4.944   2.611   5.247  0.2654  0.0793  0.6055
 8645TIP3    H147350   4.924   2.522   5.219  0.7263  0.1378  0.0830
 8645TIP3    H247351   4.938   2.664   5.167  0.9922  0.3453  0.7224
 8646TIP3   OH247352   6.749   1.456  11.706  0.0180  0.2860  0.0639
 8646TIP3    H147353   6.672   1.399  11.702 -0.4163  0.9005 -0.5004
 8646TIP3    H247354   6.822   1.400  11.678 -0.5532  0.2596 -1.4209
 8647TIP3   OH247355   3.845   1.265  12.730  0.1958  0.0415  0.4866
 8647TIP3    H147356   3.827   1.196  12.794 -0.6511  1.8414  2.3286
 8647TIP3    H247357   3.780   1.250  12.661 -2.1119  0.6781  2.3415
 8648TIP3   OH247358   1.572   6.508   5.028 -0.1852 -0.0985  0.0425
 8648TIP3    H147359   1.573   6.431   4.971 -0.3281 -0.5908  0.6833
 8648TIP3    H247360   1.507   6.487   5.095  0.3589  0.2340  0.6885
 8649TIP3   OH247361   0.545   1.925  12.275 -0.4283 -0.0520  0.5197
 8649TIP3    H147362   0.500   2.005  12.302 -0.1476  1.3147 -2.6778
 8649TIP3    H247363   0.607   1.953  12.208 -1.3083 -3.0527 -1.7780
 8650TIP3   OH247364   4.195   3.058   4.980  1.1115 -0.4216  0.1799
 8650TIP3    H147365   4.225   3.149   4.981  0.4092 -0.1679 -0.6085
 8650TIP3    H247366   4.124   3.057   4.916 -2.0440 -0.5491  3.3340
 8651TIP3   OH247367   1.586   5.244  17.239 -0.3568 -0.2451  0.0661
 8651TIP3    H147368   1.543   5.296  17.172 -0.4140 -0.3400  0.0292
 8651TIP3    H247369   1.634   5.308  17.292 -0.2706 -0.1758 -0.0951
 8652TIP3   OH247370   4.490   5.120   3.639 -0.2981  0.3284 -0.4306
 8652TIP3    H147371   4.432   5.074   3.699 -1.4188 -0.4834 -2.0806
 8652TIP3    H247372   4.467   5.087   3.553  1.5255  1.1850 -1.2988
 8653TIP3   OH247373   5.525   4.279   5.583 -0.5542 -0.1895 -0.2805
 8653TIP3    H147374   5.550   4.253   5.494  1.9795  0.0285  0.2806
 8653TIP3    H247375   5.536   4.374   5.584  0.9333 -0.3439  0.6413
 8654TIP3   OH247376   3.600   5.164  13.109 -0.3131 -0.0661  0.3503
 8654TIP3    H147377   3.645   5.205  13.034 -0.6822  0.4964  0.4304
 8654TIP3    H247378   3.645   5.081  13.121  1.2335  0.8186  0.9206
 8655TIP3   OH247379   1.836   6.103  16.205  0.4293 -0.2014 -0.7419
 8655TIP3    H147380   1.834   6.111  16.301  2.8143 -2.1893 -0.4246
 8655TIP3    H247381   1.905   6.163  16.178  0.6527 -0.6158 -1.0848
 8656TIP3   OH247382   2.079   6.513  13.068 -0.4039  0.3029  0.5265
 8656TIP3    H147383   2.028   6.573  13.122  1.5111  1.8450  0.7341
 8656TIP3    H247384   2.136   6.570  13.016 -2.0599 -1.0738 -3.1389
 8657TIP3   OH247385   3.586   6.741   3.206  0.0560  0.3268 -0.4589
 8657TIP3    H147386   3.618   6.802   3.139  2.2676 -2.0942 -1.7902
 8657TIP3    H247387   3.491   6.750   3.203  0.1808  1.7191 -2.5253
 8658TIP3   OH247388   2.755   6.363   2.791  0.0136  0.1014  0.2814
 8658TIP3    H147389   2.684   6.307   2.819 -0.3151  0.1955 -0.3459
 8658TIP3    H247390   2.799   6.313   2.722  2.0802 -1.0266  2.2848
 8659TIP3   OH247391   5.846   4.803  14.086 -0.7646  0.2568 -0.5722
 8659TIP3    H147392   5.782   4.867  14.056 -0.7672  0.2081 -0.6695
 8659TIP3    H247393   5.929   4.852  14.087 -0.8931  0.4791  0.0913
 8660TIP3   OH247394   3.483   6.333  12.394  0.2672  0.1172  0.3255
 8660TIP3    H147395   3.390   6.313  12.404  0.6024 -0.6650  2.6763
 8660TIP3    H247396   3.514   6.273  12.326 -0.5062 -1.4141  1.2535
 8661TIP3   OH247397   0.801   1.233   2.267  0.1306  0.2416 -0.6921
 8661TIP3    H147398   0.719   1.270   2.300 -0.0647 -0.7603  0.0055
 8661TIP3    H247399   0.864   1.248   2.336  0.0477 -0.7058 -0.4023
 8662TIP3   OH247400   1.872   2.026   1.162 -0.3545 -0.2789  0.1882
 8662TIP3    H147401   1.955   1.988   1.189 -0.5101  0.0537  1.1941
 8662TIP3    H247402   1.806   1.974   1.207 -0.6289  0.2336  0.3863
 8663TIP3   OH247403   1.811   0.887   5.133 -0.2773 -0.1058 -0.0705
 8663TIP3    H147404   1.780   0.897   5.223 -2.9192 -2.8055 -0.4998
 8663TIP3    H247405   1.839   0.796   5.127 -0.0428  0.0498 -1.9198
 8664TIP3   OH247406   2.583   5.503  14.882  0.1073 -0.0349 -0.1328
 8664TIP3    H147407   2.671   5.499  14.846  0.1471 -0.6362  0.0224
 8664TIP3    H247408   2.557   5.412  14.894  0.7254  0.0722  2.8969
 8665TIP3   OH247409   4.751   5.252  12.041  0.2045 -0.1858 -0.4194
 8665TIP3    H147410   4.743   5.324  12.103  1.0368 -1.2135  0.9161
 8665TIP3    H247411   4.661   5.234  12.014 -0.3204 -0.5692  1.4884
 8666TIP3   OH247412   6.144   0.054   2.697  0.0508  0.0291 -0.2281
 8666TIP3    H147413   6.239   0.062   2.710  0.0284 -0.8942  0.6484
 8666TIP3    H247414   6.133  -0.031   2.654 -0.5330 -1.2384  2.2493
 8667TIP3   OH247415   3.517   5.646  12.127 -0.3684  0.5597 -0.2674
 8667TIP3    H147416   3.551   5.585  12.192 -1.8465 -1.0366 -0.9087
 8667TIP3    H247417   3.555   5.616  12.044 -0.1647  1.2618 -0.4351
 8668TIP3   OH247418   0.855   5.548  16.516  0.2640 -0.0067  0.3078
 8668TIP3    H147419   0.796   5.599  16.461 -0.8193 -1.4869  0.0344
 8668TIP3    H247420   0.797   5.497  16.573  1.1098 -2.9770 -1.2834
 8669TIP3   OH247421   6.107   0.725  14.898 -0.4087 -0.3011  0.0327
 8669TIP3    H147422   6.172   0.741  14.829 -0.1226 -3.8598 -0.7122
 8669TIP3    H247423   6.150   0.665  14.958 -2.5088 -1.6328  0.2941
 8670TIP3   OH247424   2.202   1.291   3.871  0.7606  0.2390  0.0740
 8670TIP3    H147425   2.158   1.291   3.786  2.5761 -0.6166 -0.9099
 8670TIP3    H247426   2.274   1.354   3.861  0.2132  1.1215  1.4335
 8671TIP3   OH247427   2.344   5.051   0.036  0.3413  0.0198 -0.2315
 8671TIP3    H147428   2.340   5.072  -0.057 -1.2243  0.5078 -0.0894
 8671TIP3    H247429   2.352   5.135   0.080  0.9522 -0.1980  0.0810
 8672TIP3   OH247430   5.231   1.410   1.948 -0.1202 -0.1769  0.2715
 8672TIP3    H147431   5.198   1.396   1.859 -2.0359  1.3786  0.6649
 8672TIP3    H247432   5.295   1.340   1.961 -0.4665 -1.0103 -1.9755
 8673TIP3   OH247433   3.091   0.422  13.754  0.3269  0.5340 -0.3094
 8673TIP3    H147434   3.085   0.403  13.848 -0.5373 -3.2484 -0.9359
 8673TIP3    H247435   3.000   0.435  13.727  0.4360  0.3509 -0.7836
 8674TIP3   OH247436   2.534   3.815   4.470 -0.4677  0.0467 -0.3005
 8674TIP3    H147437   2.459   3.758   4.486 -0.2305 -0.1576  0.0809
 8674TIP3    H247438   2.568   3.835   4.557  0.0015  0.0352 -0.4782
 8675TIP3   OH247439   1.185   6.322   0.092 -0.7425  0.7729  0.4939
 8675TIP3    H147440   1.113   6.369   0.049 -1.7534  0.7683  2.0793
 8675TIP3    H247441   1.146   6.238   0.117 -0.5810  1.2216  2.4189
 8676TIP3   OH247442   6.763   3.933   4.637  0.6882 -0.3323  0.6445
 8676TIP3    H147443   6.701   4.006   4.642  0.5950 -0.3975  0.4227
 8676TIP3    H247444   6.838   3.969   4.589  0.6475 -0.3805  0.5462
 8677TIP3   OH247445   4.597   3.486  12.093  0.1895 -0.1775  0.7736
 8677TIP3    H147446   4.558   3.432  12.163  1.6570 -0.5050  1.3685
 8677TIP3    H247447   4.618   3.569  12.136  0.6317 -0.1998  0.6054
 8678TIP3   OH247448   1.035   4.636  11.529 -0.2256  0.2530  1.0870
 8678TIP3    H147449   0.964   4.619  11.590 -1.3428 -1.0084 -0.4796
 8678TIP3    H247450   1.014   4.721  11.490 -0.0626  0.5664  1.6619
 8679TIP3   OH247451   6.455   3.679   3.960 -0.5514  0.0231 -0.2966
 8679TIP3    H147452   6.460   3.617   3.887 -0.6840  0.6360 -0.8412
 8679TIP3    H247453   6.467   3.625   4.038 -1.8265 -0.8775 -0.6778
 8680TIP3   OH247454   1.440   6.417   3.680  0.6479  0.3148 -0.5964
 8680TIP3    H147455   1.529   6.397   3.651  0.2820 -0.4858 -1.2087
 8680TIP3    H247456   1.409   6.335   3.718  0.9211  1.1831  1.6462
 8681TIP3   OH247457   0.246   3.660  12.061  0.2991 -0.3326  0.3277
 8681TIP3    H147458   0.248   3.731  11.997  1.5382  0.3573  1.0809
 8681TIP3    H247459   0.154   3.651  12.085  0.2248  1.7440  0.9784
 8682TIP3   OH247460   4.944   6.294   4.893  0.1234 -0.2325 -0.1817
 8682TIP3    H147461   4.901   6.235   4.955 -2.7288  0.0383 -1.7159
 8682TIP3    H247462   4.935   6.250   4.808  0.5432  1.0719 -0.9327
 8683TIP3   OH247463   6.702   1.786   4.767 -0.4186 -0.5211  0.5332
 8683TIP3    H147464   6.657   1.749   4.691  0.9678  1.4033 -1.3064
 8683TIP3    H247465   6.632   1.798   4.832 -1.9624 -0.5855 -1.0484
 8684TIP3   OH247466   6.662   1.874   5.175 -0.0372  0.3405  0.1090
 8684TIP3    H147467   6.619   1.855   5.092  0.5979 -2.3823  0.3066
 8684TIP3    H247468   6.754   1.890   5.152  0.2393 -0.9022  0.3037
 8685TIP3   OH247469   2.543   1.667   2.985 -0.1099  0.2288 -0.2660
 8685TIP3    H147470   2.510   1.645   2.898 -1.5271  1.4441 -0.0752
 8685TIP3    H247471   2.527   1.761   2.994  0.0281  0.1269  1.2876
 8686TIP3   OH247472   6.755   2.750  11.210 -0.0855 -0.1611  0.2341
 8686TIP3    H147473   6.846   2.778  11.214  0.0267 -0.3988 -0.4579
 8686TIP3    H247474   6.727   2.771  11.120 -0.7597  0.0708  0.4923
 8687TIP3   OH247475   1.512   4.656   3.339 -0.0391 -0.0112  0.0501
 8687TIP3    H147476   1.496   4.564   3.363 -0.8065  0.1149  0.0565
 8687TIP3    H247477   1.424   4.694   3.334  0.0918  0.1411 -2.2896
 8688TIP3   OH247478   4.424   1.007  13.243 -0.4576 -0.0555 -0.3077
 8688TIP3    H147479   4.489   0.954  13.197 -2.1772 -2.5610 -0.0304
 8688TIP3    H247480   4.345   0.998  13.190 -1.5455 -0.1232  1.2802
 8689TIP3   OH247481   3.278   2.323   1.214 -0.3783 -0.4408 -0.2789
 8689TIP3    H147482   3.241   2.318   1.125 -0.8790  0.2669 -0.1190
 8689TIP3    H247483   3.357   2.270   1.210 -0.5926 -0.7181 -1.0527
 8690TIP3   OH247484   2.368   5.863  15.630 -0.0530  0.5903  0.1688
 8690TIP3    H147485   2.455   5.863  15.591  0.8358 -0.9625  1.9681
 8690TIP3    H247486   2.315   5.917  15.572  1.6833  0.1587 -1.9161
 8691TIP3   OH247487   6.287   2.845  11.035  0.4052  0.1966  0.1071
 8691TIP3    H147488   6.216   2.830  10.972  0.5965 -0.5643  0.0677
 8691TIP3    H247489   6.243   2.880  11.112  0.0034 -0.0997  0.0157
 8692TIP3   OH247490   3.424   0.823  16.029 -0.4328 -0.0026 -0.1744
 8692TIP3    H147491   3.497   0.855  15.976 -1.0302 -0.3134 -1.2183
 8692TIP3    H247492   3.346   0.857  15.985 -0.9628 -0.7871  0.1371
 8693TIP3   OH247493   1.566   2.912  14.198  0.2939 -0.0987  0.0031
 8693TIP3    H147494   1.486   2.866  14.224  1.0075  0.0516  2.8426
 8693TIP3    H247495   1.626   2.843  14.172 -0.6448 -0.2289 -1.9407
 8694TIP3   OH247496   5.893   0.442  14.400  0.1378 -0.5127 -0.1709
 8694TIP3    H147497   5.876   0.409  14.312 -2.5329 -1.4407  0.6039
 8694TIP3    H247498   5.988   0.430  14.412  0.1023 -3.2085 -1.8248
 8695TIP3   OH247499   6.367   2.164  14.940  0.0570  0.4137 -0.1498
 8695TIP3    H147500   6.287   2.170  14.992  0.4065 -2.4542  0.8509
 8695TIP3    H247501   6.339   2.189  14.852 -1.6185  0.8038  0.4528
 8696TIP3   OH247502   5.492   1.991  15.646  0.7044  0.5608 -0.4703
 8696TIP3    H147503   5.576   2.033  15.666  0.5516  0.5185  0.3065
 8696TIP3    H247504   5.506   1.899  15.668  1.1012  0.1275 -2.3507
 8697TIP3   OH247505   3.249   6.491  15.755 -0.2141  0.3315 -0.0532
 8697TIP3    H147506   3.269   6.475  15.847 -0.8406  0.9349  0.1996
 8697TIP3    H247507   3.171   6.440  15.738  0.4667 -0.5706 -0.5335
 8698TIP3   OH247508   3.546   0.196   5.954  0.8655 -0.0801  0.8528
 8698TIP3    H147509   3.629   0.242   5.939  1.7713 -1.9312 -0.1896
 8698TIP3    H247510   3.479   0.257   5.924  2.0783  0.0835 -1.7999
 8699TIP3   OH247511   0.021   6.427  13.312 -0.2693 -0.4233 -0.1272
 8699TIP3    H147512   0.100   6.474  13.285  0.1217 -0.3895  1.0212
 8699TIP3    H247513   0.050   6.370  13.383 -1.3584 -0.0936  0.6049
 8700TIP3   OH247514   6.142   3.110   0.207  0.1812 -0.2529  0.0964
 8700TIP3    H147515   6.213   3.062   0.250 -1.2086 -0.9230  1.7684
 8700TIP3    H247516   6.150   3.086   0.114  2.0414 -0.3946  0.2528
 8701TIP3   OH247517   4.495   2.320   0.880 -0.5602 -0.4327 -0.1998
 8701TIP3    H147518   4.478   2.272   0.961 -0.0660 -0.6363 -0.2153
 8701TIP3    H247519   4.477   2.411   0.902 -2.4768 -0.7121 -0.4344
 8702TIP3   OH247520   0.840   2.702  11.683  0.4316 -0.0596  0.5014
 8702TIP3    H147521   0.825   2.619  11.638 -0.2010  0.3554 -0.0794
 8702TIP3    H247522   0.757   2.749  11.673  1.0292  0.9406  0.1753
 8703TIP3   OH247523   4.321   4.104  11.628 -0.2227  0.1437 -0.3227
 8703TIP3    H147524   4.319   4.198  11.610 -1.7198  0.3353  0.6781
 8703TIP3    H247525   4.399   4.091  11.681 -1.0353  1.1816  1.1989
 8704TIP3   OH247526   5.934   1.673  12.470  0.2844 -0.0376  0.0204
 8704TIP3    H147527   5.853   1.632  12.498 -0.3215  1.2802  0.2581
 8704TIP3    H247528   5.999   1.603  12.472 -1.2143 -1.5974 -2.0594
 8705TIP3   OH247529   6.508   3.307  16.418 -0.1388  0.6256 -0.2164
 8705TIP3    H147530   6.571   3.249  16.460 -2.2311 -0.0085  2.2997
 8705TIP3    H247531   6.561   3.377  16.379  2.1087 -0.1903  1.1992
 8706TIP3   OH247532   6.029   6.003   6.254 -0.2695  0.5124 -0.2047
 8706TIP3    H147533   6.059   6.091   6.233  3.2221 -0.3875  0.3454
 8706TIP3    H247534   6.030   6.000   6.350  0.5164 -0.3299 -0.2224
 8707TIP3   OH247535   0.729   5.385   2.756  0.0068  0.0797 -0.4940
 8707TIP3    H147536   0.764   5.438   2.828 -0.7679  0.1450 -0.1591
 8707TIP3    H247537   0.712   5.299   2.795 -0.2460  0.0600 -0.6440
 8708TIP3   OH247538   6.343   5.615   5.530  0.3463 -0.2622 -0.1371
 8708TIP3    H147539   6.327   5.645   5.440  3.1323  0.6623 -0.3993
 8708TIP3    H247540   6.272   5.656   5.581 -0.3562  0.5174 -1.6567
 8709TIP3   OH247541   1.621   5.241   4.732 -0.3078  0.7556  0.1298
 8709TIP3    H147542   1.541   5.294   4.731  0.6496  2.2722  0.1601
 8709TIP3    H247543   1.692   5.305   4.726  0.9154 -0.5459  0.1849
 8710TIP3   OH247544   4.351   0.212   5.312  0.6221 -0.6781 -0.5226
 8710TIP3    H147545   4.343   0.260   5.229  0.0206  1.6922  0.8259
 8710TIP3    H247546   4.273   0.158   5.315  0.1191 -0.0063 -1.0420
 8711TIP3   OH247547   3.107   3.643  12.298 -0.2098  0.1682  0.3448
 8711TIP3    H147548   3.055   3.563  12.284  1.0575 -0.6934  0.4196
 8711TIP3    H247549   3.100   3.691  12.216 -0.5816 -0.2582  0.1216
 8712TIP3   OH247550   4.897   0.719  14.214 -0.2191  0.6189  0.4303
 8712TIP3    H147551   4.857   0.763  14.289 -2.3381  0.8813 -0.7816
 8712TIP3    H247552   4.848   0.637  14.205 -0.9203  1.2070 -1.4450
 8713TIP3   OH247553   5.202   6.773   5.069 -0.0420  0.0930  0.0709
 8713TIP3    H147554   5.233   6.690   5.034 -0.0764  0.3379 -0.5550
 8713TIP3    H247555   5.119   6.752   5.112  1.2637 -0.7148  2.4223
 8714TIP3   OH247556   3.779   5.453   2.668  0.6179  0.3802 -0.2589
 8714TIP3    H147557   3.806   5.465   2.577 -1.8206  1.0200 -0.9695
 8714TIP3    H247558   3.814   5.368   2.693 -0.2501 -0.6704 -2.4425
 8715TIP3   OH247559   3.848   3.545  13.358  0.0639  0.5702  0.1221
 8715TIP3    H147560   3.763   3.503  13.371 -0.2719  1.5507  1.2699
 8715TIP3    H247561   3.896   3.529  13.440 -0.5551  3.4252  1.1769
 8716TIP3   OH247562   5.068   4.829  16.313  0.3716 -0.1423  0.1213
 8716TIP3    H147563   5.046   4.903  16.369 -1.3911  0.3627 -1.1765
 8716TIP3    H247564   5.008   4.760  16.339  0.4764 -0.3668 -0.2207
 8717TIP3   OH247565   0.381   4.557   2.361 -0.7833  0.1812  0.3200
 8717TIP3    H147566   0.329   4.527   2.286 -1.7536  0.3008  0.9210
 8717TIP3    H247567   0.374   4.486   2.425 -0.9140  0.5596  0.7317
 8718TIP3   OH247568   4.463   3.844   4.085  0.0740 -0.0195  0.2270
 8718TIP3    H147569   4.462   3.795   4.168  1.5867 -0.1715  0.1809
 8718TIP3    H247570   4.454   3.935   4.110 -0.2393 -0.1200  0.4919
 8719TIP3   OH247571   4.423   6.349   2.925  0.6195 -0.1465  0.1415
 8719TIP3    H147572   4.426   6.279   2.860  0.1332  0.0375 -0.0874
 8719TIP3    H247573   4.449   6.427   2.876  0.1977  0.0024  0.1488
 8720TIP3   OH247574   0.943   0.819   5.026  0.6330 -0.5165  0.2358
 8720TIP3    H147575   0.967   0.793   4.937 -0.2744  0.6451 -0.3755
 8720TIP3    H247576   0.951   0.738   5.077 -0.2725 -1.5819 -1.2105
 8721TIP3   OH247577   4.147   2.636  16.738  0.6379 -0.2022 -0.5535
 8721TIP3    H147578   4.205   2.689  16.793  1.7158  0.6060 -2.3779
 8721TIP3    H247579   4.074   2.613  16.795  0.6164  2.4258  0.5916
 8722TIP3   OH247580   6.451   1.578   6.027  0.0174 -0.0841 -0.0164
 8722TIP3    H147581   6.473   1.528   5.948  1.6485 -1.0460  0.9945
 8722TIP3    H247582   6.461   1.669   6.001  0.7624 -0.3951 -0.8637
 8723TIP3   OH247583   3.054   5.013   0.915 -0.4997  0.8645  0.0578
 8723TIP3    H147584   2.986   4.954   0.947 -0.7822  0.7311 -0.7643
 8723TIP3    H247585   3.027   5.100   0.944 -0.3484  0.6608  0.8325
 8724TIP3   OH247586   1.567   4.072  13.436 -0.1858 -0.0289 -0.4090
 8724TIP3    H147587   1.529   4.089  13.349 -0.2069  0.3983 -0.3167
 8724TIP3    H247588   1.553   4.153  13.485 -2.5377 -1.1485  0.8768
 8725TIP3   OH247589   4.704   1.682   2.907 -0.1470  0.2522 -0.0678
 8725TIP3    H147590   4.713   1.615   2.975 -3.2911  0.8506  1.1310
 8725TIP3    H247591   4.711   1.765   2.954 -1.0603  0.6872 -0.6663
 8726TIP3   OH247592   1.324   2.829   3.851  0.6332 -0.0616 -0.4896
 8726TIP3    H147593   1.268   2.794   3.783  0.4291 -4.7366  1.7151
 8726TIP3    H247594   1.411   2.794   3.832  1.2153  0.9988  0.1040
 8727TIP3   OH247595   6.468   1.607  16.946  0.6284 -0.3791  0.2538
 8727TIP3    H147596   6.553   1.614  16.989  0.0377 -0.3689  1.4592
 8727TIP3    H247597   6.472   1.669  16.874  2.3180 -1.7230 -0.8736
 8728TIP3   OH247598   2.648   2.923   4.645 -0.1736 -0.1776  0.0953
 8728TIP3    H147599   2.557   2.900   4.664 -0.7966  2.5107  0.8482
 8728TIP3    H247600   2.647   3.018   4.636  2.8638  0.2019  2.1150
 8729TIP3   OH247601   5.683   1.806   5.147  0.8692 -0.3298  0.0556
 8729TIP3    H147602   5.731   1.733   5.109  1.4553  1.0493 -1.9989
 8729TIP3    H247603   5.711   1.882   5.097 -0.3333  1.1927  1.5877
 8730TIP3   OH247604   3.717   3.491  11.037  0.1071 -0.0133  0.3816
 8730TIP3    H147605   3.771   3.439  10.977 -1.7953 -0.4840 -1.0081
 8730TIP3    H247606   3.693   3.431  11.107  1.2761  0.1842  0.9817
 8731TIP3   OH247607   3.533   6.734   6.822  0.1306 -0.2047  0.0982
 8731TIP3    H147608   3.581   6.701   6.747 -2.2662  1.0192 -2.1348
 8731TIP3    H247609   3.594   6.792   6.867  0.4722  2.3793 -3.3627
 8732TIP3   OH247610   5.655   3.747  17.041  0.4888 -0.0120  0.4612
 8732TIP3    H147611   5.744   3.755  17.076  1.4356 -1.4218 -1.3968
 8732TIP3    H247612   5.661   3.675  16.978 -1.1852  1.9920 -2.1632
 8733TIP3   OH247613   3.378   2.208  16.350  0.7213  0.3383 -0.5067
 8733TIP3    H147614   3.407   2.298  16.362 -1.0576  0.8548  0.2428
 8733TIP3    H247615   3.309   2.214  16.284 -0.5186 -0.2066  0.6991
 8734TIP3   OH247616   5.146   6.374   3.884  0.1388  0.7196 -0.2821
 8734TIP3    H147617   5.140   6.278   3.884 -1.3774  0.7667 -1.4809
 8734TIP3    H247618   5.238   6.392   3.863  0.9506 -0.4121  1.9623
 8735TIP3   OH247619   5.285   6.252   0.226 -0.7960  0.0568 -0.5910
 8735TIP3    H147620   5.320   6.317   0.287 -1.0533  1.3985 -1.8078
 8735TIP3    H247621   5.359   6.194   0.207 -0.1666  0.8275 -0.5430
 8736TIP3   OH247622   4.076   2.108   5.816  0.0661  0.3860  0.1443
 8736TIP3    H147623   4.050   2.191   5.856 -0.0606  0.7517 -0.6718
 8736TIP3    H247624   4.025   2.103   5.735  0.3755 -0.2951 -0.0196
 8737TIP3   OH247625   2.443   0.807   2.331 -0.1639  0.5488  0.3409
 8737TIP3    H147626   2.504   0.786   2.401 -0.3422  1.0470  0.6502
 8737TIP3    H247627   2.478   0.762   2.254 -0.1388 -0.2589  0.8167
 8738TIP3   OH247628   4.592   1.126  16.501 -0.2635  0.0133 -0.1546
 8738TIP3    H147629   4.640   1.099  16.423 -2.1479  1.3817 -1.8883
 8738TIP3    H247630   4.604   1.221  16.505 -0.0643 -0.0461  1.3544
 8739TIP3   OH247631   0.670   1.710   3.358  0.0691 -0.0912  0.0076
 8739TIP3    H147632   0.616   1.786   3.382 -2.3977 -1.9278  0.6936
 8739TIP3    H247633   0.677   1.716   3.263 -1.3935  0.2154 -0.1060
 8740TIP3   OH247634   4.618   2.941   1.786 -0.0124 -0.0073  0.0423
 8740TIP3    H147635   4.687   2.996   1.823 -1.1098  1.1076  0.5405
 8740TIP3    H247636   4.637   2.853   1.818  1.5118  0.1667 -0.3551
 8741TIP3   OH247637   4.687   3.730  13.657  0.3607 -0.1297 -0.5978
 8741TIP3    H147638   4.748   3.670  13.614 -1.0501 -0.8143 -1.7321
 8741TIP3    H247639   4.717   3.734  13.748  1.4659 -1.2404 -0.8825
 8742TIP3   OH247640   2.015   2.154   3.525 -0.1790  0.0206 -0.2522
 8742TIP3    H147641   2.031   2.060   3.532  0.8760  0.0826 -1.3506
 8742TIP3    H247642   2.059   2.192   3.601  1.1396 -0.2181 -0.8751
 8743TIP3   OH247643   4.569   0.249   5.132  0.0028  0.4106  0.3699
 8743TIP3    H147644   4.599   0.337   5.153 -0.3199  0.1388  2.1084
 8743TIP3    H247645   4.496   0.234   5.193 -0.1572 -0.9329 -0.1287
 8744TIP3   OH247646   4.993   0.837   4.041 -0.4407 -0.1174 -0.0148
 8744TIP3    H147647   5.020   0.829   4.132 -2.3235 -1.7128  0.4624
 8744TIP3    H247648   4.904   0.873   4.045 -0.9864 -1.2554 -1.1354
 8745TIP3   OH247649   5.384   1.160   5.812  0.5251 -0.0785  0.0040
 8745TIP3    H147650   5.381   1.254   5.796  0.9371  0.2925  1.8156
 8745TIP3    H247651   5.294   1.130   5.801  0.4701  0.4363 -1.0166
 8746TIP3   OH247652   1.556   4.520   2.808  0.0425 -0.2376  0.8895
 8746TIP3    H147653   1.622   4.487   2.747 -1.1909  0.8515 -1.1076
 8746TIP3    H247654   1.486   4.454   2.806 -2.6734  2.2637 -3.5122
 8747TIP3   OH247655   5.923   1.596   5.659  0.0676  0.4264  0.0337
 8747TIP3    H147656   6.008   1.622   5.693 -0.2916  0.7869  0.6726
 8747TIP3    H247657   5.891   1.530   5.721 -0.2796  0.5618  0.0038
 8748TIP3   OH247658   3.222   2.116  16.539 -0.0031  0.4183 -0.3743
 8748TIP3    H147659   3.296   2.152  16.490  0.0759 -1.1254 -1.4873
 8748TIP3    H247660   3.261   2.082  16.620  0.5089 -0.2471 -0.8867
 8749TIP3   OH247661   2.890   0.692  11.644  0.0934 -0.6529 -0.3773
 8749TIP3    H147662   2.873   0.624  11.580 -0.0156 -1.6642  0.6899
 8749TIP3    H247663   2.812   0.692  11.700 -0.2629  0.9160 -0.8310
 8750TIP3   OH247664   5.516   1.424   3.898  0.2108 -0.2969 -0.5737
 8750TIP3    H147665   5.504   1.348   3.955  2.9308  0.8681  1.8474
 8750TIP3    H247666   5.485   1.395   3.812 -1.3352 -3.1904  0.8216
 8751TIP3   OH247667   2.863   2.640   6.427  0.1862 -0.5197 -0.0323
 8751TIP3    H147668   2.903   2.632   6.514  2.7433 -1.8913 -1.2324
 8751TIP3    H247669   2.936   2.663   6.369 -1.7209  1.9885 -1.6353
 8752TIP3   OH247670   2.144   2.209   0.785 -0.1078 -1.0112  0.1868
 8752TIP3    H147671   2.054   2.209   0.753  0.0282 -0.5282 -0.2030
 8752TIP3    H247672   2.135   2.214   0.880 -0.5073 -2.1870  0.2345
 8753TIP3   OH247673   5.787   2.546  11.564 -0.3784  0.0079  0.1018
 8753TIP3    H147674   5.835   2.505  11.492 -0.6091 -0.3289  0.1355
 8753TIP3    H247675   5.701   2.566  11.527  0.3451  2.3024 -0.5218
 8754TIP3   OH247676   5.844   5.184  15.498 -0.2966  0.2695  0.2144
 8754TIP3    H147677   5.829   5.129  15.421 -0.4409  2.7265 -1.6257
 8754TIP3    H247678   5.877   5.123  15.564  0.0315 -1.9311 -1.8201
 8755TIP3   OH247679   5.168   0.535  12.208  0.6301 -0.6568  0.5210
 8755TIP3    H147680   5.185   0.451  12.250  0.7425 -0.1982  1.4413
 8755TIP3    H247681   5.117   0.514  12.130  0.2701 -1.5460  0.9833
 8756TIP3   OH247682   3.650   0.208   4.568  0.2394  0.2927 -0.0654
 8756TIP3    H147683   3.581   0.144   4.551 -0.0514  0.5039  0.3127
 8756TIP3    H247684   3.731   0.163   4.541  0.2059 -0.7713  1.4583
 8757TIP3   OH247685   0.048   1.387  14.077  0.0334  0.4524  0.2638
 8757TIP3    H147686   0.074   1.312  14.023 -0.0564 -0.0117  0.8518
 8757TIP3    H247687  -0.014   1.350  14.140  0.8867  0.7798  1.3143
 8758TIP3   OH247688   5.004   4.826  16.939 -0.2833 -0.2175 -0.5728
 8758TIP3    H147689   4.943   4.752  16.948  1.6645 -2.3489 -3.0339
 8758TIP3    H247690   4.948   4.900  16.917 -2.2806 -1.0218  1.3997
 8759TIP3   OH247691   4.484   6.570  14.192  0.2436  0.1491 -0.1204
 8759TIP3    H147692   4.571   6.569  14.153  0.3942  2.8872 -0.0868
 8759TIP3    H247693   4.428   6.609  14.124 -0.0628  2.2967  1.2434
 8760TIP3   OH247694   0.060   5.345   1.137  0.0249  0.0488  0.6784
 8760TIP3    H147695   0.018   5.268   1.176 -1.9783  0.3703 -0.7041
 8760TIP3    H247696   0.049   5.414   1.203  0.5096 -0.4615  1.3046
 8761TIP3   OH247697   3.596   2.690  10.537 -0.1107  0.4714 -0.1584
 8761TIP3    H147698   3.676   2.720  10.493 -0.6822  3.0488  0.4016
 8761TIP3    H247699   3.619   2.691  10.630 -0.8315  1.3977  0.0149
 8762TIP3   OH247700   2.690   4.533   3.099  0.1767  0.4786 -0.3019
 8762TIP3    H147701   2.637   4.528   3.179  1.8465 -1.2954  0.8017
 8762TIP3    H247702   2.666   4.617   3.059 -0.8727  1.3376  1.9565
 8763TIP3   OH247703   4.087   4.302  16.067 -0.2196 -0.0411  0.5221
 8763TIP3    H147704   4.178   4.287  16.091  0.2001  0.9507 -0.4270
 8763TIP3    H247705   4.073   4.396  16.082 -0.7485  0.0428 -0.4477
 8764TIP3   OH247706   5.204   1.568   3.540  0.2565  0.1133  0.5190
 8764TIP3    H147707   5.131   1.541   3.485 -0.3048  0.6663  0.9802
 8764TIP3    H247708   5.248   1.637   3.490  0.1818  0.1118  0.4518
 8765TIP3   OH247709   4.192   3.855   6.309  0.5552 -0.2923 -0.6267
 8765TIP3    H147710   4.286   3.869   6.320  0.3967  0.1239  0.2906
 8765TIP3    H247711   4.184   3.762   6.286  1.0402 -1.1647  2.2405
 8766TIP3   OH247712   4.345   3.934  14.498  0.2423 -0.4048 -0.5745
 8766TIP3    H147713   4.387   3.985  14.429 -0.8105  0.9122 -0.2997
 8766TIP3    H247714   4.401   3.946  14.575 -0.4793  1.1843 -0.2580
 8767TIP3   OH247715   2.893   0.508   6.000 -0.0087  0.5496 -0.0534
 8767TIP3    H147716   2.831   0.570   6.038  0.3732  0.5173  0.6462
 8767TIP3    H247717   2.860   0.422   6.024 -0.0483  0.5087 -0.2497
 8768TIP3   OH247718   5.338   5.919   1.503 -0.2526  0.0943  0.7798
 8768TIP3    H147719   5.326   5.937   1.596 -1.0979 -0.6996  0.8397
 8768TIP3    H247720   5.251   5.928   1.465  0.1897  0.9950 -0.0561
 8769TIP3   OH247721   6.626   5.628  17.019 -0.4387  0.0659 -0.0572
 8769TIP3    H147722   6.709   5.675  17.033 -1.0844  1.0192  0.7550
 8769TIP3    H247723   6.652   5.539  16.998  0.8346  0.7492 -1.5271
 8770TIP3   OH247724   4.678   3.096  15.920  0.4135 -0.5140 -0.4739
 8770TIP3    H147725   4.769   3.120  15.900  0.4611 -1.6195 -1.6672
 8770TIP3    H247726   4.686   3.026  15.985  0.3083  1.4057  1.7276
 8771TIP3   OH247727   6.415   5.351   6.454  0.0722  0.1903 -0.6835
 8771TIP3    H147728   6.494   5.393   6.421  0.0111 -0.7292 -2.0469
 8771TIP3    H247729   6.416   5.371   6.548  1.5527  0.7628 -0.7865
 8772TIP3   OH247730   1.565   2.417  16.252 -0.5881  0.0487 -0.3530
 8772TIP3    H147731   1.611   2.431  16.335 -3.3976  0.9965  1.1969
 8772TIP3    H247732   1.585   2.326  16.228 -0.4464 -0.5625  1.8788
 8773TIP3   OH247733   0.512   1.521   6.230 -0.1984  0.0477  0.3949
 8773TIP3    H147734   0.463   1.469   6.293 -0.0759  0.3897  0.7738
 8773TIP3    H247735   0.600   1.526   6.266 -0.3639  1.0443  0.6837
 8774TIP3   OH247736   0.506   6.283   1.107 -0.2734  0.1316  0.4824
 8774TIP3    H147737   0.585   6.284   1.054 -0.3449  0.5151  0.3791
 8774TIP3    H247738   0.524   6.219   1.176  0.5308  0.9508  1.0613
 8775TIP3   OH247739   6.744   4.017   5.279 -0.2872 -0.0732  0.4716
 8775TIP3    H147740   6.751   4.058   5.365 -1.3786 -1.1695  1.1236
 8775TIP3    H247741   6.777   3.928   5.292  1.1265  0.2549 -0.6766
 8776TIP3   OH247742   4.372   1.356  13.498  0.3973 -0.5004 -0.1100
 8776TIP3    H147743   4.420   1.309  13.430  2.1034 -0.5123  1.0481
 8776TIP3    H247744   4.330   1.429  13.452  0.5267 -1.1902 -1.3555
 8777TIP3   OH247745   6.461   3.859  12.908  0.2777 -0.7301 -0.4315
 8777TIP3    H147746   6.497   3.838  12.822  1.2886  2.5513 -0.9448
 8777TIP3    H247747   6.367   3.846  12.899  0.3977 -0.6873 -1.9685
 8778TIP3   OH247748   3.164   0.159   5.287 -0.2372 -0.1330  0.2697
 8778TIP3    H147749   3.196   0.125   5.203  1.3647 -1.1863  1.2602
 8778TIP3    H247750   3.085   0.109   5.306 -0.9590  0.5271 -0.8570
 8779TIP3   OH247751   0.369   5.133   0.764 -0.7846 -0.5222  0.1087
 8779TIP3    H147752   0.290   5.185   0.781 -0.4500  0.0061  0.0609
 8779TIP3    H247753   0.372   5.070   0.836 -1.4208 -0.7556 -0.0621
 8780TIP3   OH247754   3.405   4.711   3.674 -0.4250 -0.1068 -0.1630
 8780TIP3    H147755   3.393   4.636   3.731 -0.4912  0.4000  0.4998
 8780TIP3    H247756   3.397   4.676   3.585 -0.0180 -0.9556  0.1258
 8781TIP3   OH247757   4.815   5.959   1.811 -0.2583 -0.0632  0.1364
 8781TIP3    H147758   4.738   5.970   1.867 -1.1272  2.2888 -1.3556
 8781TIP3    H247759   4.785   5.985   1.724  1.9824 -0.0552 -0.7019
 8782TIP3   OH247760   0.075   2.597  12.944 -0.0224  0.2992  0.2637
 8782TIP3    H147761  -0.015   2.620  12.922 -0.3650 -0.1984  1.1223
 8782TIP3    H247762   0.109   2.558  12.863 -1.2593 -1.4668  0.5466
 8783TIP3   OH247763   0.256   0.072   3.277  0.4695  0.3662  0.1031
 8783TIP3    H147764   0.280   0.068   3.184  1.7091 -1.1616  0.4499
 8783TIP3    H247765   0.193   0.001   3.289  0.0113  0.8119  0.3574
 8784TIP3   OH247766   0.103   0.208   2.357 -0.2577 -0.2032 -0.0071
 8784TIP3    H147767   0.170   0.144   2.384 -0.1155 -0.0823 -0.0709
 8784TIP3    H247768   0.143   0.253   2.283 -1.0443 -1.2485 -1.1156
 8785TIP3   OH247769   6.210   4.429   6.190 -0.0960  0.0761  0.7237
 8785TIP3    H147770   6.115   4.416   6.200  0.2900 -2.1888  2.3929
 8785TIP3    H247771   6.218   4.515   6.149 -2.9059 -0.3971 -1.0978
 8786TIP3   OH247772   5.156   2.262   2.606  0.0634  0.3990 -0.0681
 8786TIP3    H147773   5.241   2.220   2.617  0.0170  0.3311  0.0366
 8786TIP3    H247774   5.134   2.294   2.693  0.4226  1.2639 -0.2865
 8787TIP3   OH247775   2.801   0.748  13.894  0.3918 -0.2268  0.5030
 8787TIP3    H147776   2.820   0.665  13.849 -1.2890 -0.3179 -0.0967
 8787TIP3    H247777   2.834   0.815  13.835  1.1719 -0.4352  0.6872
 8788TIP3   OH247778   6.173   0.487  14.314  0.2916  0.3520 -0.0743
 8788TIP3    H147779   6.186   0.449  14.227 -0.9976 -0.2490 -0.0220
 8788TIP3    H247780   6.130   0.571  14.296  0.8020  0.6318 -0.0396
 8789TIP3   OH247781   5.238   4.878  13.764 -0.5067  0.1846 -0.2917
 8789TIP3    H147782   5.206   4.934  13.834 -2.1126 -2.4083  1.2014
 8789TIP3    H247783   5.160   4.833  13.731  0.3097  0.6993 -3.2681
 8790TIP3   OH247784   5.243   3.823  11.969  0.2831 -0.5703  0.4584
 8790TIP3    H147785   5.155   3.820  11.932  0.0644 -2.2958  1.0333
 8790TIP3    H247786   5.231   3.858  12.057  0.5668  1.7741 -0.3671
 8791TIP3   OH247787   5.568   4.718   4.514  0.1013  0.2306 -0.3965
 8791TIP3    H147788   5.540   4.688   4.601  0.6128 -0.0272 -0.3194
 8791TIP3    H247789   5.581   4.638   4.464 -1.4845  0.4035 -1.1326
 8792TIP3   OH247790   5.122   4.587  15.248 -0.3059  0.4291  0.1907
 8792TIP3    H147791   5.094   4.652  15.312  1.1428 -0.0030  1.2902
 8792TIP3    H247792   5.214   4.573  15.266 -0.3288 -1.1378 -0.7385
 8793TIP3   OH247793   4.417   2.659  11.738 -0.7110  0.2182  0.8150
 8793TIP3    H147794   4.501   2.666  11.784 -0.6977  1.7116  0.6105
 8793TIP3    H247795   4.388   2.569  11.755  1.9843 -1.1308 -1.0050
 8794TIP3   OH247796   2.151   0.886  13.099  0.0593 -0.0846 -0.1487
 8794TIP3    H147797   2.131   0.847  13.184  1.6740 -1.2311 -0.2494
 8794TIP3    H247798   2.198   0.967  13.121 -0.2850  0.0618  0.0532
 8795TIP3   OH247799   2.647   0.881  11.463 -0.4452  0.2588  0.1605
 8795TIP3    H147800   2.649   0.905  11.370  0.6450 -0.6304 -0.0681
 8795TIP3    H247801   2.739   0.868  11.486 -0.6400  1.2269  1.5852
 8796TIP3   OH247802   6.206   6.572  11.991  0.3380  0.2055  0.4562
 8796TIP3    H147803   6.239   6.584  11.902  1.4977  2.1222  1.0733
 8796TIP3    H247804   6.112   6.564  11.981  0.5998 -1.6831 -1.0769
 8797TIP3   OH247805   5.597   0.552   0.466 -0.2179 -0.1717 -0.0876
 8797TIP3    H147806   5.572   0.485   0.530 -1.1597 -0.3385 -0.6176
 8797TIP3    H247807   5.649   0.615   0.517  1.4040 -1.6955  0.2450
 8798TIP3   OH247808   1.728   3.757  16.860  0.0107  0.6200 -0.4429
 8798TIP3    H147809   1.638   3.731  16.845  0.7770 -2.4231 -0.3785
 8798TIP3    H247810   1.747   3.727  16.949  0.9004  1.8631 -0.1847
 8799TIP3   OH247811   2.089   6.207  16.074  0.2324 -1.1676 -0.7639
 8799TIP3    H147812   2.094   6.249  15.988 -0.1302  0.5761  0.0187
 8799TIP3    H247813   2.143   6.261  16.131  0.8700 -2.5819  0.0312
 8800TIP3   OH247814   1.492   6.608  16.850 -0.5993 -0.0398 -0.0772
 8800TIP3    H147815   1.551   6.548  16.805 -0.4081 -0.4650  0.7324
 8800TIP3    H247816   1.442   6.649  16.780  1.1770  0.9098 -0.8636
 8801TIP3   OH247817   3.411   5.608   2.640  0.3741  0.1892 -0.3388
 8801TIP3    H147818   3.443   5.611   2.550 -0.5385  5.3340 -0.8035
 8801TIP3    H247819   3.489   5.617   2.694  0.6233  3.0324 -1.0281
 8802TIP3   OH247820   2.568   6.488  12.437 -0.0272 -0.5860  0.0041
 8802TIP3    H147821   2.573   6.540  12.517 -0.9764 -1.4460  0.6463
 8802TIP3    H247822   2.659   6.484  12.406  0.4022 -0.4908  1.1950
 8803TIP3   OH247823   0.801   2.254  12.290 -0.7155 -0.4100  0.3171
 8803TIP3    H147824   0.749   2.280  12.214 -0.5908 -0.8266  0.0873
 8803TIP3    H247825   0.810   2.159  12.282  0.0734 -0.3430  0.3638
 8804TIP3   OH247826   0.969   1.888   3.572 -0.7130  0.1143 -0.0103
 8804TIP3    H147827   0.911   1.815   3.548 -0.0487 -0.7515  0.9333
 8804TIP3    H247828   0.910   1.962   3.584 -1.2992  0.0733 -2.1457
 8805TIP3   OH247829   6.205   2.622  14.498  0.0756 -0.1723  0.1734
 8805TIP3    H147830   6.249   2.656  14.420  1.1055 -1.5314  0.1072
 8805TIP3    H247831   6.181   2.699  14.548  1.5953  0.6713 -0.3311
 8806TIP3   OH247832   5.451   5.320  14.264 -0.3728 -0.0396 -0.0713
 8806TIP3    H147833   5.410   5.330  14.178 -1.4061 -0.3296  0.3763
 8806TIP3    H247834   5.411   5.241  14.301  1.5806 -1.1228 -0.1626
 8807TIP3   OH247835   1.503   4.397  11.423  0.6550 -0.0786  0.3070
 8807TIP3    H147836   1.409   4.413  11.413  0.9030  0.1238 -2.4465
 8807TIP3    H247837   1.526   4.439  11.506 -1.9217 -1.4882  1.8602
 8808TIP3   OH247838   0.880   5.986   2.767  0.1391 -0.1332 -0.6018
 8808TIP3    H147839   0.840   6.014   2.850  0.3871 -0.6061 -0.3164
 8808TIP3    H247840   0.843   6.044   2.701 -0.1828  0.1444 -0.1789
 8809TIP3   OH247841   5.180   2.778  16.908  0.2402  0.4728 -0.1771
 8809TIP3    H147842   5.180   2.843  16.978 -0.8109  0.5745 -0.2514
 8809TIP3    H247843   5.087   2.765  16.887  0.4243 -1.0356 -0.1852
 8810TIP3   OH247844   4.995   1.505   0.356  0.2580 -0.3822  0.0988
 8810TIP3    H147845   4.975   1.556   0.277  0.1732  1.2417  1.1359
 8810TIP3    H247846   4.933   1.432   0.353 -0.4203  0.2076 -0.8061
 8811TIP3   OH247847   0.791   6.078   1.193 -0.1975 -0.0270 -0.0851
 8811TIP3    H147848   0.732   6.042   1.259  0.8743 -1.2663  0.2464
 8811TIP3    H247849   0.760   6.042   1.110  0.7856 -1.7363  0.2254
 8812TIP3   OH247850   6.375   6.291  10.959 -0.3033  0.7739 -0.0611
 8812TIP3    H147851   6.416   6.223  10.905  1.2108  2.0967 -0.6642
 8812TIP3    H247852   6.403   6.271  11.048 -0.4568  0.2054 -0.1366
 8813TIP3   OH247853   1.949   2.092  15.525  0.3647  0.1635 -0.5554
 8813TIP3    H147854   1.929   2.053  15.610  0.4687  1.4018  0.0720
 8813TIP3    H247855   1.921   2.028  15.461 -0.8712 -0.2792  0.3984
 8814TIP3   OH247856   3.224   3.274  10.562 -0.5935 -0.4225  0.8547
 8814TIP3    H147857   3.300   3.312  10.607 -0.6363  2.8387 -1.4463
 8814TIP3    H247858   3.262   3.214  10.498  0.0041  0.2925  0.5160
 8815TIP3   OH247859   3.895   3.851   3.846 -0.3579  0.0657 -0.1448
 8815TIP3    H147860   3.838   3.863   3.771 -1.7141 -2.0035  0.4636
 8815TIP3    H247861   3.972   3.806   3.811  0.0964  1.2089 -0.6558
 8816TIP3   OH247862   5.631   2.154   5.905  0.2982  0.2750  0.1889
 8816TIP3    H147863   5.632   2.250   5.916  1.8174  0.3117 -0.0396
 8816TIP3    H247864   5.656   2.121   5.991 -0.3547  0.0685  0.3021
 8817TIP3   OH247865   1.910   5.083   0.644  0.0255 -0.7820  0.1774
 8817TIP3    H147866   1.841   5.141   0.613  1.2245  0.2072 -0.7608
 8817TIP3    H247867   1.890   4.998   0.605 -0.2251 -0.3078 -0.7608
 8818TIP3   OH247868   4.028   6.031   1.122 -0.0033  0.3224 -0.1966
 8818TIP3    H147869   4.120   6.051   1.135 -0.2730  1.3629  0.1679
 8818TIP3    H247870   4.028   5.948   1.073  1.1017 -0.9412  1.8225
 8819TIP3   OH247871   3.077   3.075   3.803 -0.2010  0.0923 -0.2119
 8819TIP3    H147872   3.149   3.022   3.835  0.6818  0.3411 -1.7062
 8819TIP3    H247873   3.019   3.085   3.879  0.3329 -1.7527  0.4809
 8820TIP3   OH247874   5.609   4.508   4.282 -0.2739 -0.3142 -0.0480
 8820TIP3    H147875   5.523   4.495   4.242 -0.2788  0.9804 -0.5027
 8820TIP3    H247876   5.668   4.525   4.208 -0.2997  2.2211  0.4226
 8821TIP3   OH247877   1.008   4.154   4.656  0.0405  0.0248 -0.1843
 8821TIP3    H147878   1.061   4.096   4.600 -0.4196 -1.1660  0.5799
 8821TIP3    H247879   0.947   4.095   4.700 -1.8771  1.3509 -0.9421
 8822TIP3   OH247880   4.939   5.279  15.568  0.2683 -0.7092 -0.6003
 8822TIP3    H147881   4.911   5.199  15.523  1.0022 -1.0642 -0.4413
 8822TIP3    H247882   4.865   5.339  15.559  0.2703 -0.8917 -1.9818
 8823TIP3   OH247883   0.869   5.313   0.687 -0.2312  0.4665 -0.3965
 8823TIP3    H147884   0.908   5.243   0.738 -0.5804 -0.6758 -1.6313
 8823TIP3    H247885   0.787   5.276   0.654 -0.4977  1.5041 -0.9551
 8824TIP3   OH247886   6.204   3.330  16.073  0.7834  0.1420 -0.4929
 8824TIP3    H147887   6.243   3.390  16.010  1.3736 -0.2486 -0.5092
 8824TIP3    H247888   6.278   3.281  16.109  0.2395 -1.1868 -1.1185
 8825TIP3   OH247889   1.890   2.677  13.038  0.0778  0.5328 -0.0025
 8825TIP3    H147890   1.893   2.762  12.993 -1.0997  0.8513  0.4808
 8825TIP3    H247891   1.930   2.693  13.123  1.2156  0.2195 -0.4571
 8826TIP3   OH247892   4.080   1.861   4.595  0.3032 -0.6871  0.3845
 8826TIP3    H147893   4.071   1.788   4.656 -0.5558  0.0204  1.1301
 8826TIP3    H247894   4.072   1.939   4.650  1.7332 -0.0143 -0.3150
 8827TIP3   OH247895   2.401   6.230  17.171  0.1448 -0.0597  0.1159
 8827TIP3    H147896   2.442   6.315  17.157 -0.1392  0.0008 -0.3966
 8827TIP3    H247897   2.337   6.223  17.100  0.6780 -1.0190 -0.2930
 8828TIP3   OH247898   5.515   3.056   0.444 -0.5092 -0.6060  0.2589
 8828TIP3    H147899   5.420   3.056   0.455 -0.5514  0.8474  0.0469
 8828TIP3    H247900   5.528   3.057   0.349 -0.2708 -1.2111  0.2821
 8829TIP3   OH247901   3.076   0.424   3.888 -0.0378 -0.5857  0.0233
 8829TIP3    H147902   3.059   0.437   3.981  0.1126  0.0981 -0.0361
 8829TIP3    H247903   3.107   0.334   3.882  0.6473 -0.4120  0.7377
 8830TIP3   OH247904   2.006   4.627   1.185  0.2594 -0.3813  0.1562
 8830TIP3    H147905   2.023   4.715   1.217  2.0685 -1.1893  1.6508
 8830TIP3    H247906   2.076   4.611   1.122 -1.2147 -0.0847 -1.6156
 8831TIP3   OH247907   5.174   4.565   4.635  0.4036 -0.5414 -0.5997
 8831TIP3    H147908   5.101   4.608   4.590  0.0885 -0.3727  0.0646
 8831TIP3    H247909   5.148   4.562   4.726  0.8038 -1.3791 -0.5043
 8832TIP3   OH247910   5.609   3.251   0.223 -0.0725 -0.1367 -0.0276
 8832TIP3    H147911   5.661   3.230   0.145 -1.1067 -0.1842 -0.7277
 8832TIP3    H247912   5.519   3.256   0.191 -0.3304  1.5534  0.8303
 8833TIP3   OH247913   5.288   5.315  12.481 -0.5706  0.0828  0.1302
 8833TIP3    H147914   5.328   5.392  12.440 -0.8703 -0.1494 -0.6134
 8833TIP3    H247915   5.204   5.305  12.436  0.1786 -1.6803 -0.9853
 8834TIP3   OH247916   3.496   4.729   1.508  0.1740  0.1937  0.3919
 8834TIP3    H147917   3.423   4.671   1.486  0.4888 -0.3792  0.8278
 8834TIP3    H247918   3.528   4.696   1.592  1.6334 -0.2612 -0.3170
 8835TIP3   OH247919   5.879   2.082  15.882 -0.6552  0.1579 -0.2031
 8835TIP3    H147920   5.873   2.170  15.847 -0.5377  0.4446  0.4707
 8835TIP3    H247921   5.972   2.070  15.901 -0.4544 -0.6253 -1.5494
 8836TIP3   OH247922   0.513   4.695   1.022 -0.8165  0.0731  0.4064
 8836TIP3    H147923   0.567   4.624   0.987 -0.4508 -0.3832  1.8594
 8836TIP3    H247924   0.573   4.748   1.073 -0.8793  2.0301 -1.4255
 8837TIP3   OH247925   4.608   6.076   0.965 -0.2572 -0.3133  0.0894
 8837TIP3    H147926   4.552   6.083   0.887  0.6391 -0.7631 -0.6143
 8837TIP3    H247927   4.576   6.145   1.023 -2.0049 -1.0104  0.0176
 8838TIP3   OH247928   3.646   6.238  12.968 -0.8563  0.0242  0.0361
 8838TIP3    H147929   3.720   6.198  12.922 -0.9209  1.1024 -1.0829
 8838TIP3    H247930   3.640   6.191  13.051  0.4660 -0.7297 -0.2713
 8839TIP3   OH247931   3.376   4.907   2.092  0.3340  0.0722 -0.7648
 8839TIP3    H147932   3.367   4.987   2.041  3.6742  0.9662 -0.1710
 8839TIP3    H247933   3.468   4.884   2.085  0.1922 -1.7638  1.9740
 8840TIP3   OH247934   1.304   2.807  14.479  0.0570  0.2675  0.3397
 8840TIP3    H147935   1.284   2.731  14.534 -0.6135 -0.1695 -0.4703
 8840TIP3    H247936   1.336   2.768  14.397 -0.2439  0.8573 -0.0653
 8841TIP3   OH247937   5.905   3.230   5.396  0.5296 -0.4212  0.0334
 8841TIP3    H147938   5.897   3.319   5.362 -2.9215 -0.9005 -0.6886
 8841TIP3    H247939   5.976   3.191   5.344  0.7697  1.2913 -1.0037
 8842TIP3   OH247940   6.237   2.784  16.618  0.1151  1.1601 -0.9103
 8842TIP3    H147941   6.174   2.763  16.548  0.1241 -1.4431 -0.2692
 8842TIP3    H247942   6.185   2.780  16.699  0.9792 -0.7702 -0.3973
 8843TIP3   OH247943   2.825   6.410  12.315  0.2612 -0.3547  0.5026
 8843TIP3    H147944   2.877   6.392  12.237 -0.2945  0.1324  0.0064
 8843TIP3    H247945   2.798   6.324  12.347 -0.7600 -0.5179 -0.7201
 8844TIP3   OH247946   5.050   5.642   3.159 -0.2793  0.4889 -0.2580
 8844TIP3    H147947   4.979   5.705   3.146 -1.4074 -0.5929  0.4861
 8844TIP3    H247948   5.079   5.621   3.071  0.5560  2.4875 -0.5196
 8845TIP3   OH247949   0.178   6.516   0.985 -0.1094 -0.0722  0.2033
 8845TIP3    H147950   0.181   6.563   1.068 -0.7019 -0.6166  0.5390
 8845TIP3    H247951   0.094   6.470   0.986 -1.2739  1.8058 -1.7504
 8846TIP3   OH247952   3.217   4.217  15.912 -0.1709  0.3971  0.3275
 8846TIP3    H147953   3.175   4.230  15.827  0.2736  0.0142  0.0496
 8846TIP3    H247954   3.194   4.296  15.962 -2.9281 -0.6346  0.9053
 8847TIP3   OH247955   3.553   1.715   5.485  0.1865 -0.1975  0.1569
 8847TIP3    H147956   3.496   1.778   5.441  2.3874  2.1447  0.4546
 8847TIP3    H247957   3.529   1.723   5.578 -1.0405 -1.5316  0.0093
 8848TIP3   OH247958   5.983   2.870   3.374 -0.2105 -0.0112 -0.1131
 8848TIP3    H147959   5.926   2.947   3.374 -0.6501 -0.3325 -0.6592
 8848TIP3    H247960   5.945   2.812   3.308  0.7660 -0.2193 -0.5095
 8849TIP3   OH247961   6.478   5.964  14.353 -0.0250 -0.1443 -0.5599
 8849TIP3    H147962   6.424   5.923  14.285  0.5619 -0.8317 -0.6214
 8849TIP3    H247963   6.455   6.057  14.349 -0.1164 -0.2019 -1.5901
 8850TIP3   OH247964   5.986   6.542  10.691 -0.3361  0.3409 -0.4296
 8850TIP3    H147965   5.986   6.607  10.762  0.9550 -0.4926  0.3844
 8850TIP3    H247966   6.012   6.592  10.614 -0.9981  1.1112 -0.1785
 8851TIP3   OH247967   3.057   3.617   1.703  0.0063  0.1690  0.4551
 8851TIP3    H147968   2.972   3.589   1.671  0.3588 -0.5292  0.1052
 8851TIP3    H247969   3.120   3.564   1.654  0.5984 -0.1815  1.5570
 8852TIP3   OH247970   5.932   4.934  14.893  0.1008  0.2898 -0.3432
 8852TIP3    H147971   5.946   4.932  14.799 -0.1661  0.1517 -0.3797
 8852TIP3    H247972   5.901   5.023  14.911 -1.7575 -0.2621 -0.6621
 8853TIP3   OH247973   2.570   2.657  11.478 -0.3203 -0.2621  0.1156
 8853TIP3    H147974   2.600   2.739  11.516  0.2682 -1.2070  1.7902
 8853TIP3    H247975   2.507   2.683  11.411  0.4046  1.5664  0.0924
 8854TIP3   OH247976   6.591   1.389  15.185  0.0456  0.3003 -0.0585
 8854TIP3    H147977   6.640   1.448  15.127  0.1157 -0.3606 -0.6804
 8854TIP3    H247978   6.554   1.323  15.126  1.1448 -1.0996  0.7800
 8855TIP3   OH247979   2.067   5.554  11.245  0.2143 -0.0562  0.0790
 8855TIP3    H147980   2.038   5.470  11.210 -0.8831  0.3016  0.0942
 8855TIP3    H247981   2.143   5.577  11.192  1.2417 -1.5952  0.8337
 8856TIP3   OH247982   2.957   3.126  17.028 -0.2144  0.5059 -0.2590
 8856TIP3    H147983   2.886   3.157  16.971 -2.5030 -1.6044  1.2417
 8856TIP3    H247984   2.982   3.204  17.078 -0.0765  1.7407 -2.1382
 8857TIP3   OH247985   2.262   4.269  16.536  0.1422  0.9734  0.9143
 8857TIP3    H147986   2.172   4.250  16.510 -0.0088  1.5315  1.0188
 8857TIP3    H247987   2.311   4.268  16.453 -0.5615  4.0199  0.3409
 8858TIP3   OH247988   6.671   4.090  14.431 -0.4011 -0.5756  0.0630
 8858TIP3    H147989   6.742   4.131  14.381  0.5166 -0.9860  1.0222
 8858TIP3    H247990   6.704   4.084  14.520 -1.7768 -0.4610  0.6072
 8859TIP3   OH247991   1.980   1.162  14.635  0.6267 -0.0103 -0.2082
 8859TIP3    H147992   1.927   1.149  14.714 -0.3167  1.8322 -0.4954
 8859TIP3    H247993   2.058   1.209  14.666  0.9150 -0.4881 -0.1880
 8860TIP3   OH247994   0.302   3.424  13.221 -0.2582  0.3179 -0.1115
 8860TIP3    H147995   0.395   3.431  13.242 -0.2938 -0.9144  0.5117
 8860TIP3    H247996   0.262   3.498  13.267  0.7233  2.6233 -2.6928
 8861TIP3   OH247997   3.783   6.670   3.695 -0.0063 -0.0030  0.1863
 8861TIP3    H147998   3.872   6.703   3.704 -0.1378  0.9785 -1.6052
 8861TIP3    H247999   3.733   6.717   3.761  0.8907 -1.0248  1.6306
 8862TIP3   OH248000   5.028   0.984  15.449  0.0506  0.1235 -0.5329
 8862TIP3    H148001   5.018   0.905  15.395 -0.5753  0.9011 -1.5883
 8862TIP3    H248002   4.977   1.051  15.404 -0.8980  0.7053  1.2693
 8863TIP3   OH248003   6.428   5.854  14.087  0.4100 -0.2334  0.1421
 8863TIP3    H148004   6.388   5.836  14.002  0.1865  1.3076 -0.0984
 8863TIP3    H248005   6.520   5.831  14.076  0.3979  0.0455 -0.5525
 8864TIP3   OH248006   2.971   3.296  14.063  0.6902  0.2657 -0.3855
 8864TIP3    H148007   2.968   3.309  14.158  1.8680 -1.1902 -0.0970
 8864TIP3    H248008   2.925   3.213  14.049  0.0891  0.7198 -1.1572
 8865TIP3   OH248009   0.688   5.028  12.897  0.0355 -0.4561 -0.0233
 8865TIP3    H148010   0.686   4.941  12.939 -1.2659  0.0981  1.1495
 8865TIP3    H248011   0.647   5.014  12.812 -0.7663 -0.8696  0.4237
 8866TIP3   OH248012   5.148   2.034   3.473 -0.4606  0.3943  0.3029
 8866TIP3    H148013   5.091   1.959   3.458 -1.2217  1.1204 -0.5828
 8866TIP3    H248014   5.191   2.016   3.556  0.1759 -1.5149 -0.3931
 8867TIP3   OH248015   0.734   2.833   1.004 -0.3043  0.2794 -0.3155
 8867TIP3    H148016   0.640   2.850   1.008 -0.3456  0.5174 -1.7542
 8867TIP3    H248017   0.768   2.861   1.088 -1.3565  1.2800 -0.2129
 8868TIP3   OH248018   2.877   0.963  13.731 -0.2376  0.8766  0.5552
 8868TIP3    H148019   2.918   1.048  13.721  1.9042 -0.1765 -0.2806
 8868TIP3    H248020   2.861   0.933  13.641 -2.1414  0.8855  0.8461
 8869TIP3   OH248021   4.764   1.484   3.109  0.2703  0.2356 -0.0755
 8869TIP3    H148022   4.718   1.400   3.105  0.5518  0.0858 -0.1480
 8869TIP3    H248023   4.856   1.461   3.100  0.2295  0.7233 -2.1257
 8870TIP3   OH248024   0.113   3.814   2.126  0.4749  0.0145  0.7907
 8870TIP3    H148025   0.060   3.871   2.069  0.6841 -0.1184  0.4618
 8870TIP3    H248026   0.199   3.856   2.130  0.8738 -0.6866 -0.0989
 8871TIP3   OH248027   6.127   1.337  14.918  0.4188 -0.4623 -0.5468
 8871TIP3    H148028   6.148   1.302  14.832 -0.7434 -1.9494 -0.2606
 8871TIP3    H248029   6.148   1.430  14.912  0.6551 -0.6059 -2.3244
 8872TIP3   OH248030   3.035   4.575  13.899 -0.1122 -0.4118  0.1281
 8872TIP3    H148031   3.106   4.626  13.861  1.1266  0.0070  2.7953
 8872TIP3    H248032   2.976   4.640  13.937 -0.3338 -0.8467  0.5461
 8873TIP3   OH248033   1.750   4.655   0.958  0.0351 -0.1907 -0.3022
 8873TIP3    H148034   1.682   4.721   0.970  1.4433  1.5304 -1.3885
 8873TIP3    H248035   1.716   4.596   0.891 -0.6726  0.2294 -0.3154
 8874TIP3   OH248036   2.406   5.352   0.107  0.4103  0.2585 -0.2127
 8874TIP3    H148037   2.468   5.378   0.175 -0.7940 -1.2762  1.5810
 8874TIP3    H248038   2.380   5.434   0.066  1.8582  1.1471  0.5390
 8875TIP3   OH248039   0.320   4.034   2.082 -0.3033  0.6353 -0.1780
 8875TIP3    H148040   0.335   3.987   2.000 -0.5877  0.1505  0.0384
 8875TIP3    H248041   0.256   4.102   2.060  2.1532  2.7791 -1.1294
 8876TIP3   OH248042   6.688   2.645  16.203 -0.6605  0.0546 -0.3430
 8876TIP3    H148043   6.654   2.583  16.267 -0.3002 -0.6713 -0.8464
 8876TIP3    H248044   6.706   2.593  16.125  1.8195  0.3464 -0.0305
 8877TIP3   OH248045   0.867   5.464   1.844 -0.3779  0.7557 -0.2861
 8877TIP3    H148046   0.907   5.382   1.872  0.3346  1.1942  0.0273
 8877TIP3    H248047   0.851   5.452   1.751 -0.0526  0.3489 -0.2943
 8878TIP3   OH248048   3.657   3.654   1.046  0.0568 -0.4382 -0.2206
 8878TIP3    H148049   3.643   3.666   0.952 -0.1134  0.7056 -0.0675
 8878TIP3    H248050   3.692   3.565   1.054 -0.7251 -0.8616 -1.2732
 8879TIP3   OH248051   0.878   5.429  14.503  0.0699  0.3523  0.0518
 8879TIP3    H148052   0.930   5.405  14.580 -1.5647 -0.5403  0.9353
 8879TIP3    H248053   0.905   5.367  14.435  2.3282  1.8397 -0.5259
 8880TIP3   OH248054   3.226   0.149   4.097  0.0291  0.4384  0.0848
 8880TIP3    H148055   3.316   0.161   4.129  0.6465 -1.6875 -0.6582
 8880TIP3    H248056   3.234   0.084   4.027 -1.8030  1.9639 -1.6777
 8881TIP3   OH248057   3.887   6.318  16.178  0.2986 -0.2514 -0.0403
 8881TIP3    H148058   3.947   6.244  16.174  1.4288  0.4910  1.9081
 8881TIP3    H248059   3.805   6.285  16.141  1.0367 -2.1845 -0.0228
 8882TIP3   OH248060   2.257   6.261  16.953 -0.1378  0.0705  0.7846
 8882TIP3    H148061   2.176   6.288  16.910 -0.2822 -2.4363 -0.7523
 8882TIP3    H248062   2.324   6.270  16.886  0.2945 -0.5897  1.1128
 8883TIP3   OH248063   5.001   0.319  13.347 -0.2228 -1.1002  0.8241
 8883TIP3    H148064   4.977   0.411  13.355  1.7536 -0.5303  0.8498
 8883TIP3    H248065   4.957   0.289  13.268 -1.2348 -0.2583  1.0508
 8884TIP3   OH248066   1.140   1.589   5.579 -0.6416  0.3841  0.0348
 8884TIP3    H148067   1.234   1.593   5.599 -1.0692 -0.7777  2.6197
 8884TIP3    H248068   1.136   1.565   5.486  1.6251 -1.0899  0.2552
 8885TIP3   OH248069   4.870   2.927   1.030 -0.1352 -0.1985  0.8030
 8885TIP3    H148070   4.952   2.973   1.013 -0.5487 -0.0593 -0.9510
 8885TIP3    H248071   4.841   2.896   0.944 -1.8487 -0.3840  1.4129
 8886TIP3   OH248072   6.572   6.052  11.716 -0.0241 -0.3425  0.1006
 8886TIP3    H148073   6.624   6.129  11.695 -1.6735  1.6294  2.7119
 8886TIP3    H248074   6.611   5.982  11.664  1.5159  2.2142 -2.4280
 8887TIP3   OH248075   2.381   1.571  14.911 -0.2539  0.4117  0.2724
 8887TIP3    H148076   2.439   1.562  14.987  2.1309  0.0063 -1.4779
 8887TIP3    H248077   2.384   1.664  14.889 -0.8484  0.5076  0.5727
 8888TIP3   OH248078   5.252   2.720  12.659 -0.0352  0.1971 -0.0698
 8888TIP3    H148079   5.182   2.765  12.707 -0.6658 -0.1294 -0.6613
 8888TIP3    H248080   5.206   2.662  12.599  0.7545 -0.7098  0.1744
 8889TIP3   OH248081   6.478   1.326   0.132  0.0225 -0.4741 -0.3436
 8889TIP3    H148082   6.472   1.314   0.038  1.0516 -0.2767 -0.4540
 8889TIP3    H248083   6.493   1.420   0.143  0.8771 -0.6378 -0.0526
 8890TIP3   OH248084   4.832   6.138   6.671  0.0010  0.0964  0.0742
 8890TIP3    H148085   4.823   6.139   6.766  2.1357  0.0067  0.3250
 8890TIP3    H248086   4.820   6.229   6.645 -2.0830 -0.0871  0.2098
 8891TIP3   OH248087   0.764   5.257   4.976 -0.4276 -0.4394  0.4077
 8891TIP3    H148088   0.723   5.266   5.062 -0.9059 -1.6119  0.3224
 8891TIP3    H248089   0.793   5.166   4.972 -0.7770 -0.5188 -0.8323
 8892TIP3   OH248090   6.377   2.130  12.598 -0.5117 -0.8260  0.0025
 8892TIP3    H148091   6.330   2.213  12.596  0.1001 -0.4348  1.0486
 8892TIP3    H248092   6.422   2.126  12.513 -1.9518 -0.9502 -0.7753
 8893TIP3   OH248093   3.441   3.023   5.696 -0.0481  0.4128 -0.2401
 8893TIP3    H148094   3.525   3.069   5.698 -0.8643  2.0517 -1.3123
 8893TIP3    H248095   3.407   3.039   5.608 -1.9832  0.7494  0.5165
 8894TIP3   OH248096   4.640   4.899   0.610  0.1234 -0.3612  0.2546
 8894TIP3    H148097   4.564   4.840   0.608 -0.5697  0.5202 -0.1989
 8894TIP3    H248098   4.704   4.858   0.551 -0.9510  0.0936 -1.3009
 8895TIP3   OH248099   6.667   5.172   4.442 -0.2754  0.5456 -0.1547
 8895TIP3    H148100   6.687   5.233   4.513  0.4151  0.4232 -0.2360
 8895TIP3    H248101   6.687   5.085   4.478 -0.2285  0.4565 -0.3916
 8896TIP3   OH248102   1.427   5.588  10.943  0.6122 -0.0526  0.1887
 8896TIP3    H148103   1.465   5.597  11.031 -1.0144 -1.6813  1.1161
 8896TIP3    H248104   1.503   5.590  10.884  1.7228  1.4054  1.5528
 8897TIP3   OH248105   5.008   5.165   1.642 -0.1224  0.0242 -0.2661
 8897TIP3    H148106   4.939   5.197   1.584 -0.3178  1.9665  0.9387
 8897TIP3    H248107   5.067   5.240   1.653  1.7686 -1.3384 -0.6090
 8898TIP3   OH248108   0.289   6.621   5.998 -0.4511  0.0602  0.0842
 8898TIP3    H148109   0.225   6.622   6.070  1.3314 -0.3685  1.7487
 8898TIP3    H248110   0.368   6.659   6.036  0.5488 -0.1519 -1.6896
 8899TIP3   OH248111   0.550   6.204  17.076 -0.5090 -0.1030  0.2188
 8899TIP3    H148112   0.491   6.214  17.150  1.2974 -0.9231  1.8755
 8899TIP3    H248113   0.551   6.289  17.034 -0.1617  0.9938  2.3170
 8900TIP3   OH248114   4.699   0.148  16.826 -0.5053 -0.0046 -0.0837
 8900TIP3    H148115   4.757   0.109  16.760 -0.6667 -0.9449  0.3226
 8900TIP3    H248116   4.726   0.109  16.909 -0.5774  0.8621  0.3656
 8901TIP3   OH248117   1.339   3.072  14.542  0.3368  0.0180 -0.2001
 8901TIP3    H148118   1.327   2.977  14.538  0.6153 -0.0465  0.3179
 8901TIP3    H248119   1.420   3.088  14.494  0.1835  0.0151 -0.4565
 8902TIP3   OH248120   6.345   4.662  13.348 -0.1843 -0.2453  0.5431
 8902TIP3    H148121   6.422   4.608  13.330 -0.3692  0.1453 -1.5807
 8902TIP3    H248122   6.281   4.600  13.384 -0.5979 -1.6788 -2.3678
 8903TIP3   OH248123   4.605   2.358  12.126 -0.3114 -0.1065 -0.2556
 8903TIP3    H148124   4.687   2.321  12.095  0.7876  1.6087  0.4816
 8903TIP3    H248125   4.630   2.420  12.195 -2.2059  0.5491 -0.0854
 8904TIP3   OH248126   2.684   4.920   3.907  0.1490  0.5024 -0.1696
 8904TIP3    H148127   2.629   4.855   3.863 -0.3103  0.9287 -0.2383
 8904TIP3    H248128   2.666   5.002   3.861  4.0987 -0.0203 -3.1528
 8905TIP3   OH248129   1.903   6.719   5.924 -0.3220 -0.1783 -0.0060
 8905TIP3    H148130   1.965   6.731   5.852 -0.1612  2.2674  0.4325
 8905TIP3    H248131   1.824   6.685   5.882  0.5183 -1.0041 -0.9564
 8906TIP3   OH248132   5.424   5.731   5.839  0.1934  0.5831  0.3969
 8906TIP3    H148133   5.382   5.766   5.917 -2.1043  0.2377 -0.6184
 8906TIP3    H248134   5.352   5.697   5.786  1.8103 -0.3763 -1.2879
 8907TIP3   OH248135   2.592   5.220   4.186 -0.0620 -0.0074 -0.5167
 8907TIP3    H148136   2.627   5.254   4.268  0.9661  1.8119 -1.6298
 8907TIP3    H248137   2.656   5.156   4.157 -0.5743 -0.8702  0.2192
 8908TIP3   OH248138   3.686   5.946   4.160 -0.2959  0.5708 -0.1317
 8908TIP3    H148139   3.654   5.879   4.220  0.8804 -0.7478 -0.9047
 8908TIP3    H248140   3.642   6.027   4.188  0.4310  0.1046  2.7135
 8909TIP3   OH248141   4.922   3.074  14.384 -0.2188  0.3644 -0.6888
 8909TIP3    H148142   4.855   3.116  14.437  0.1505  1.1332 -0.8207
 8909TIP3    H248143   4.920   3.121  14.301  0.0876  0.0105 -0.9012
 8910TIP3   OH248144   2.668   3.988   2.562 -0.1755 -0.1919 -0.6428
 8910TIP3    H148145   2.581   4.000   2.523 -0.9419 -0.8227  0.7569
 8910TIP3    H248146   2.690   3.897   2.542  0.3824  0.0979 -1.3804
 8911TIP3   OH248147   0.372   0.777   3.473  0.0839  0.3285 -0.2383
 8911TIP3    H148148   0.356   0.685   3.494 -0.6205  0.6631  0.7678
 8911TIP3    H248149   0.467   0.788   3.486  0.1147 -0.1562 -0.0158
 8912TIP3   OH248150   6.147   3.123   6.285  0.3223  0.5363  0.3835
 8912TIP3    H148151   6.220   3.072   6.249 -0.5970 -0.0576 -0.6769
 8912TIP3    H248152   6.075   3.060   6.293 -0.7882  1.6206 -0.8085
 8913TIP3   OH248153   4.928   4.124   3.738 -0.2957 -0.5675  0.0044
 8913TIP3    H148154   4.974   4.106   3.820 -0.7589 -0.7510  0.2281
 8913TIP3    H248155   4.961   4.210   3.711 -1.1818  0.1676  1.1406
 8914TIP3   OH248156   6.207   3.962   6.651 -0.6127 -0.0310 -0.1454
 8914TIP3    H148157   6.184   3.883   6.699 -1.2441  0.8471  1.0252
 8914TIP3    H248158   6.129   3.983   6.600 -0.9301  0.5595  0.5617
 8915TIP3   OH248159   0.073   1.448  16.938 -0.3054  0.7681  0.0809
 8915TIP3    H148160   0.155   1.444  16.988 -0.7931 -1.8686  0.8590
 8915TIP3    H248161   0.099   1.478  16.851  1.4101  0.5726  0.4859
 8916TIP3   OH248162   0.376   3.247  15.850  0.4844 -0.1458  0.3492
 8916TIP3    H148163   0.310   3.186  15.817 -0.0123 -0.4173  1.7518
 8916TIP3    H248164   0.387   3.311  15.780 -1.6566  0.1993  0.2490
 8917TIP3   OH248165   4.508   6.573  15.321  0.0336 -0.4657 -0.3402
 8917TIP3    H148166   4.519   6.535  15.234 -0.8914  2.8550 -2.0729
 8917TIP3    H248167   4.426   6.537  15.353  0.4601 -1.8367 -0.7203
 8918TIP3   OH248168   1.210   0.954   0.145  0.0742  0.5543  0.2972
 8918TIP3    H148169   1.125   0.997   0.136 -0.3769  0.4204  3.1930
 8918TIP3    H248170   1.207   0.881   0.082 -2.2637  0.1084  0.8379
 8919TIP3   OH248171   3.002   3.693  13.147 -0.2738 -0.4758 -0.4493
 8919TIP3    H148172   3.086   3.739  13.145 -0.3529 -0.3048  0.1095
 8919TIP3    H248173   2.967   3.709  13.235 -0.9497 -0.4369 -0.7136
 8920TIP3   OH248174   5.615   5.299   5.987 -0.7402 -0.2270  0.1014
 8920TIP3    H148175   5.651   5.337   5.907  2.1559 -2.6871  0.0561
 8920TIP3    H248176   5.598   5.374   6.043  1.9484  1.3696 -1.0141
 8921TIP3   OH248177   3.275   2.417   4.024  0.6539  0.4270  0.4032
 8921TIP3    H148178   3.189   2.447   3.994  0.0296  0.6923  2.3076
 8921TIP3    H248179   3.294   2.472   4.100  0.2775 -2.7162  2.9768
 8922TIP3   OH248180   2.263   3.833   0.031 -0.3447  0.0034 -0.1351
 8922TIP3    H148181   2.353   3.821   0.062  0.0321  3.0777  0.2897
 8922TIP3    H248182   2.209   3.819   0.109  0.2880  3.4776  1.0935
 8923TIP3   OH248183   5.751   0.211   1.582 -0.5198 -1.0827  0.0492
 8923TIP3    H148184   5.689   0.197   1.510  1.3140  0.2064 -1.9093
 8923TIP3    H248185   5.826   0.156   1.560  0.7675  0.5899  0.0116
 8924TIP3   OH248186   0.073   3.751   0.490  0.5520  0.5345  0.0464
 8924TIP3    H148187   0.033   3.824   0.441 -2.2791 -2.7115 -3.0797
 8924TIP3    H248188   0.012   3.734   0.561 -0.8944 -0.9748 -1.4656
 8925TIP3   OH248189   5.450   5.910  11.579 -0.5972 -0.7243 -0.4467
 8925TIP3    H148190   5.500   5.979  11.621 -1.2449 -0.6325  0.1898
 8925TIP3    H248191   5.437   5.844  11.648  0.5794 -1.8105 -1.2100
 8926TIP3   OH248192   6.482   0.557  14.132 -0.3204 -0.3756  0.2806
 8926TIP3    H148193   6.492   0.462  14.130 -0.6783 -0.4671  1.8117
 8926TIP3    H248194   6.398   0.573  14.089 -0.0004 -0.6888 -0.4845
 8927TIP3   OH248195   0.692   2.821  13.909 -0.1138 -0.4424 -0.1603
 8927TIP3    H148196   0.638   2.887  13.867  0.8050  1.3652  1.3232
 8927TIP3    H248197   0.770   2.815  13.854  0.1747  0.3805  0.1436
 8928TIP3   OH248198   4.390   6.328  13.713 -0.3007  0.4701  0.1423
 8928TIP3    H148199   4.449   6.379  13.658 -2.2758  0.3667 -2.2272
 8928TIP3    H248200   4.414   6.237  13.698 -0.7591  0.4484 -0.5156
 8929TIP3   OH248201   1.082   4.698   0.666  0.2601  0.4236  0.3606
 8929TIP3    H148202   1.053   4.782   0.700 -2.9150 -0.6678  0.6332
 8929TIP3    H248203   1.077   4.708   0.571 -0.1237  0.5312  0.3921
 8930TIP3   OH248204   5.129   4.082  13.218  0.3353 -0.8053  0.0191
 8930TIP3    H148205   5.111   4.044  13.304  1.5585  0.4271  0.8630
 8930TIP3    H248206   5.212   4.128  13.229 -0.8814  1.8401 -0.9808
 8931TIP3   OH248207   1.354   5.264  11.152  0.1090 -0.2079  0.2349
 8931TIP3    H148208   1.447   5.250  11.133 -0.0816 -1.4700  0.1524
 8931TIP3    H248209   1.315   5.283  11.067  0.0200 -1.4004 -0.0149
 8932TIP3   OH248210   1.528   3.078   3.535 -0.0415  0.0135 -0.5030
 8932TIP3    H148211   1.571   3.158   3.565  1.9961 -1.3850  0.5239
 8932TIP3    H248212   1.595   3.011   3.541 -1.9021 -1.9587 -0.5983
 8933TIP3   OH248213   1.411   0.589  14.226 -0.0524  0.0403 -0.3066
 8933TIP3    H148214   1.334   0.589  14.168 -0.5582 -0.0209  0.3580
 8933TIP3    H248215   1.443   0.679  14.224  0.1934 -0.0551 -1.0156
 8934TIP3   OH248216   6.341   6.636   5.609  0.2113 -0.1098 -0.5722
 8934TIP3    H148217   6.333   6.544   5.587  1.1884 -0.2760 -0.2741
 8934TIP3    H248218   6.266   6.654   5.666  0.4088 -0.8909 -0.0618
 8935TIP3   OH248219   3.149   6.633  12.521  0.3216 -0.1687 -0.4207
 8935TIP3    H148220   3.101   6.551  12.512  2.8332 -1.7906 -0.1106
 8935TIP3    H248221   3.202   6.621  12.600  2.0295  1.0472 -1.3200
 8936TIP3   OH248222   6.111   4.758   5.122  0.5353  0.0283  0.3384
 8936TIP3    H148223   6.143   4.708   5.046 -0.6704 -0.0750 -0.1143
 8936TIP3    H248224   6.047   4.701   5.163 -0.0464  0.7595  0.4597
 8937TIP3   OH248225   4.096   0.364   4.055 -0.0850  0.0976 -0.3435
 8937TIP3    H148226   4.101   0.276   4.093  2.7092 -0.4688 -1.7700
 8937TIP3    H248227   4.057   0.351   3.969  1.1665  0.0640 -0.9272
 8938TIP3   OH248228   2.569   2.219  11.836 -0.5323 -0.1214 -0.0559
 8938TIP3    H148229   2.593   2.227  11.929 -3.3132 -3.9952  1.2860
 8938TIP3    H248230   2.474   2.229  11.835 -0.4507  1.3137 -2.8514
 8939TIP3   OH248231   1.825   4.244   0.579  0.3509 -0.0472  0.2513
 8939TIP3    H148232   1.888   4.201   0.521  0.4499  0.4895 -0.0450
 8939TIP3    H248233   1.765   4.174   0.606 -0.5965 -0.0368 -1.6817
 8940TIP3   OH248234   3.664   1.528  12.630  0.4345  0.1321  0.6085
 8940TIP3    H148235   3.677   1.507  12.538  0.8431  0.2178  0.6450
 8940TIP3    H248236   3.711   1.610  12.643 -0.7942  0.8698  0.5700
 8941TIP3   OH248237   3.590   3.746  11.696  0.6554 -0.3311  0.4087
 8941TIP3    H148238   3.497   3.765  11.708  0.9078  1.6255 -0.3883
 8941TIP3    H248239   3.593   3.692  11.616  0.2885  0.7574 -0.3610
 8942TIP3   OH248240   3.601   5.298   6.216 -0.4363 -0.5476 -0.3547
 8942TIP3    H148241   3.611   5.213   6.259 -0.9049  0.4651  1.9138
 8942TIP3    H248242   3.507   5.317   6.223 -0.1628  0.6606  0.2622
 8943TIP3   OH248243   3.915   0.407   0.645 -0.0877 -0.0384 -0.0701
 8943TIP3    H148244   3.867   0.480   0.605 -0.3228 -0.3015 -0.2676
 8943TIP3    H248245   3.958   0.446   0.721 -2.0640 -0.1695  1.1918
 8944TIP3   OH248246   3.610   1.215   2.911  0.5651 -0.1721  0.3483
 8944TIP3    H148247   3.517   1.225   2.888  0.7433  0.4086 -0.1402
 8944TIP3    H248248   3.613   1.235   3.005  0.2250  0.0154  0.3235
 8945TIP3   OH248249   4.583   4.086   1.207  0.3245 -0.2715 -0.4391
 8945TIP3    H148250   4.507   4.028   1.208  0.6539 -0.9331  3.4861
 8945TIP3    H248251   4.652   4.036   1.252  1.1140  2.4615  1.6797
 8946TIP3   OH248252   3.197   5.847   1.771  0.8059 -0.0321  0.2019
 8946TIP3    H148253   3.147   5.859   1.852  0.0100 -0.3340 -0.2345
 8946TIP3    H248254   3.150   5.778   1.724  0.5328  0.9925 -1.0846
 8947TIP3   OH248255   5.292   0.093  11.252 -0.5571 -0.8269  0.5224
 8947TIP3    H148256   5.227   0.065  11.316 -1.4245  2.1916  1.1321
 8947TIP3    H248257   5.241   0.126  11.178  0.2824 -0.0071  0.2776
 8948TIP3   OH248258   0.448   0.834  12.387  0.3867  0.0234 -0.0478
 8948TIP3    H148259   0.458   0.904  12.452 -0.3496  0.8018 -0.7508
 8948TIP3    H248260   0.366   0.854  12.343  0.9098 -0.4524 -1.2704
 8949TIP3   OH248261   1.487   6.609  12.563 -0.3502 -0.1046  0.4937
 8949TIP3    H148262   1.506   6.703  12.567 -1.2202  0.1912 -1.5480
 8949TIP3    H248263   1.411   6.597  12.619 -0.1766  0.3770  0.8392
 8950TIP3   OH248264   6.258   5.947  16.911  0.1151 -0.5837 -0.2200
 8950TIP3    H148265   6.308   5.999  16.848 -0.9292 -0.7100 -1.1861
 8950TIP3    H248266   6.259   5.999  16.991  0.8729 -0.0837 -0.5459
 8951TIP3   OH248267   1.098   6.105   4.914  0.2314 -0.4643  0.2059
 8951TIP3    H148268   1.086   6.043   4.841 -0.0574 -1.5962  1.1832
 8951TIP3    H248269   1.192   6.116   4.921  0.2808 -0.6955 -0.0518
 8952TIP3   OH248270   1.027   5.268   4.002 -0.6426  0.3762 -0.6367
 8952TIP3    H148271   0.943   5.230   3.978  0.3933 -2.6713  0.1156
 8952TIP3    H248272   1.092   5.206   3.969  1.1284  0.5126  2.2568
 8953TIP3   OH248273   1.261   5.577  12.451  0.3635  1.1728 -0.0324
 8953TIP3    H148274   1.223   5.656  12.489  0.9000  0.5945  1.8382
 8953TIP3    H248275   1.326   5.610  12.388  1.2122  2.2671  1.3531
 8954TIP3   OH248276   4.805   1.683   1.353  0.4996  0.2335  0.2567
 8954TIP3    H148277   4.870   1.672   1.423  0.3279  0.0912  0.3968
 8954TIP3    H248278   4.850   1.654   1.274  0.7394  0.5235  0.2856
 8955TIP3   OH248279   5.228   3.925   4.076 -0.2362  0.4657  0.3886
 8955TIP3    H148280   5.228   3.851   4.136  2.5945  0.1191  0.0812
 8955TIP3    H248281   5.157   3.905   4.014  0.4981 -2.0374  0.2558
 8956TIP3   OH248282   1.763   2.709   5.746 -0.7180  0.0940  0.8010
 8956TIP3    H148283   1.677   2.734   5.711 -1.1087 -0.1802  1.5515
 8956TIP3    H248284   1.743   2.659   5.825  0.0706 -1.6879 -0.0706
 8957TIP3   OH248285   6.007   4.546  17.161 -0.0986  0.2650 -0.5202
 8957TIP3    H148286   6.001   4.640  17.141  1.2495  0.2138 -1.2871
 8957TIP3    H248287   6.037   4.507  17.079 -0.9245 -0.8981 -0.2926
 8958TIP3   OH248288   4.041   4.934  11.308  0.4268 -0.4326 -0.1047
 8958TIP3    H148289   4.118   4.877  11.305  2.2821  1.9615 -1.2919
 8958TIP3    H248290   3.996   4.917  11.224  0.5711 -0.6232 -0.1447
 8959TIP3   OH248291   5.808   1.656  16.544  0.6811 -1.0310 -0.0737
 8959TIP3    H148292   5.826   1.621  16.632  0.6204  0.3426  0.5039
 8959TIP3    H248293   5.759   1.737  16.560  0.6943 -0.7460 -1.3838
 8960TIP3   OH248294   5.166   3.608   5.392 -0.1508 -0.2190 -0.1028
 8960TIP3    H148295   5.128   3.568   5.471 -0.0088  0.0336  0.0935
 8960TIP3    H248296   5.260   3.595   5.401 -0.1454 -0.3261 -0.3077
 8961TIP3   OH248297   5.295   1.094   1.567  0.0790  0.4113 -0.0844
 8961TIP3    H148298   5.282   1.189   1.574 -0.5357  0.4177 -1.0650
 8961TIP3    H248299   5.303   1.078   1.473 -3.4205 -0.9032 -0.3016
 8962TIP3   OH248300   0.585   0.266   3.284  0.4810 -0.1283 -0.0873
 8962TIP3    H148301   0.639   0.345   3.282  0.8400 -0.3800 -1.0103
 8962TIP3    H248302   0.534   0.270   3.202 -0.4713 -0.1932  0.4852
 8963TIP3   OH248303   4.567   1.250   5.431 -0.3683 -0.3346  0.4311
 8963TIP3    H148304   4.556   1.192   5.356 -1.8634  0.3695  0.0655
 8963TIP3    H248305   4.493   1.310   5.426  1.0163  1.5058  0.8978
 8964TIP3   OH248306   1.899   6.049   3.690 -0.1108 -0.4503  0.6146
 8964TIP3    H148307   1.818   6.055   3.741 -0.6110  0.2523 -0.2365
 8964TIP3    H248308   1.911   6.136   3.654  0.9661 -0.5885  0.6223
 8965TIP3   OH248309   2.209   0.469   6.578 -0.2041 -0.1862 -0.3164
 8965TIP3    H148310   2.116   0.450   6.574  0.0179 -1.2260 -1.1858
 8965TIP3    H248311   2.243   0.438   6.494  1.1923 -1.4388  0.6569
 8966TIP3   OH248312   5.767   6.691   1.070  0.1071  0.5557  0.1171
 8966TIP3    H148313   5.764   6.643   1.152  0.8278  0.1431 -0.0914
 8966TIP3    H248314   5.831   6.761   1.085  0.3105  0.4239 -0.1130
 8967TIP3   OH248315   6.738   6.141   0.120  0.5543  0.2827  0.4022
 8967TIP3    H148316   6.660   6.107   0.076  0.3092  0.3383  0.7889
 8967TIP3    H248317   6.756   6.224   0.075  2.3178 -1.1906 -1.8922
 8968TIP3   OH248318   6.467   0.296   4.379 -0.2953  0.2081 -0.3272
 8968TIP3    H148319   6.543   0.309   4.435 -0.9655 -0.8118  0.8485
 8968TIP3    H248320   6.484   0.353   4.303  2.6457 -1.5829 -1.1659
 8969TIP3   OH248321   6.240   2.154   2.277 -0.0957 -0.1953 -0.1611
 8969TIP3    H148322   6.263   2.118   2.363  0.2621 -0.8636 -0.5339
 8969TIP3    H248323   6.164   2.102   2.249  0.9716 -1.3045 -1.0998
 8970TIP3   OH248324   4.559   0.852   5.659 -0.4120 -0.1809  0.2383
 8970TIP3    H148325   4.623   0.918   5.633 -1.1529 -0.2616 -1.9646
 8970TIP3    H248326   4.607   0.769   5.657 -0.4193 -0.1765 -0.9146
 8971TIP3   OH248327   6.679   2.852  15.378 -0.2830  0.6466 -0.6589
 8971TIP3    H148328   6.712   2.942  15.372 -0.1984  0.6039 -0.8487
 8971TIP3    H248329   6.747   2.805  15.426 -0.6178  0.8227 -0.0056
 8972TIP3   OH248330   6.634   2.357   2.166  0.1670  0.3834  0.1567
 8972TIP3    H148331   6.676   2.275   2.139  0.3657  0.4435  0.2772
 8972TIP3    H248332   6.541   2.340   2.157  0.1633 -0.1712  1.0582
 8973TIP3   OH248333   2.742   1.159   1.098  0.1845 -0.2627  0.4942
 8973TIP3    H148334   2.750   1.095   1.169 -0.7744  0.8958  1.6971
 8973TIP3    H248335   2.683   1.226   1.133  1.9188  1.8021 -0.3531
 8974TIP3   OH248336   5.961   6.033  11.245  0.1165 -0.2831 -0.5232
 8974TIP3    H148337   5.908   6.106  11.215  2.2647  0.9168 -1.6356
 8974TIP3    H248338   5.952   6.034  11.340  0.5168  1.8117 -0.4672
 8975TIP3   OH248339   2.214   2.118  15.588  0.4273  1.0701  0.1840
 8975TIP3    H148340   2.121   2.141  15.580  0.1181 -0.6082 -1.5729
 8975TIP3    H248341   2.229   2.053  15.520  2.7729  0.8525  0.8296
 8976TIP3   OH248342   3.972   4.021   5.879 -0.5274  0.5829 -0.3886
 8976TIP3    H148343   3.959   3.985   5.967 -2.0955 -0.7383 -1.1134
 8976TIP3    H248344   4.062   4.053   5.879  0.1029 -1.0474  1.1426
 8977TIP3   OH248345   0.696   2.455  14.707 -0.4669 -0.6792 -0.6145
 8977TIP3    H148346   0.788   2.429  14.714 -0.4969 -1.3067 -2.1911
 8977TIP3    H248347   0.649   2.389  14.758 -0.0575 -0.3466  0.2135
 8978TIP3   OH248348   4.292   3.390  12.626  0.2121  0.2426 -0.0725
 8978TIP3    H148349   4.335   3.418  12.707  1.2356  0.1821 -0.5653
 8978TIP3    H248350   4.313   3.297  12.619  1.0615  0.4703 -0.9204
 8979TIP3   OH248351   0.595   2.965  11.400  0.5769 -0.1494 -0.5256
 8979TIP3    H148352   0.562   3.055  11.403 -1.0295 -0.7054  3.2900
 8979TIP3    H248353   0.544   2.917  11.465  1.6111 -3.8199 -2.1248
 8980TIP3   OH248354   0.868   0.933  12.357 -0.5872 -0.7510  0.4232
 8980TIP3    H148355   0.822   0.855  12.327  0.6530  0.0967 -4.5763
 8980TIP3    H248356   0.800   0.997  12.374 -1.4622 -1.8215  1.0712
 8981TIP3   OH248357   2.095   6.449  17.258 -0.1043 -0.0656  0.5160
 8981TIP3    H148358   2.129   6.523  17.207 -2.0790  1.3282  1.1023
 8981TIP3    H248359   2.082   6.380  17.193  0.1263  0.6953 -0.3731
 8982TIP3   OH248360   6.049   6.761   5.388  0.1010  0.3578  0.3421
 8982TIP3    H148361   6.086   6.843   5.419 -0.7385  0.2902  1.6036
 8982TIP3    H248362   5.978   6.787   5.329 -1.3113  0.6281  2.0730
 8983TIP3   OH248363   4.417   0.112  14.169  0.1289  0.2982 -0.0443
 8983TIP3    H148364   4.413   0.195  14.120  0.7055  0.5616  0.3362
 8983TIP3    H248365   4.500   0.117  14.217  0.2098 -0.5383 -0.0787
 8984TIP3   OH248366   2.292   4.328   4.346 -0.5060 -0.6535 -0.0613
 8984TIP3    H148367   2.267   4.331   4.254 -2.3875 -0.5859  0.4087
 8984TIP3    H248368   2.209   4.316   4.393  0.3568 -0.2535  1.6474
 8985TIP3   OH248369   2.333   6.470   2.516 -0.5990  0.2389 -0.0331
 8985TIP3    H148370   2.336   6.564   2.501 -1.7402  0.5510  1.4546
 8985TIP3    H248371   2.247   6.443   2.483  0.1070 -0.4988 -1.3705
 8986TIP3   OH248372   3.051   4.246   2.375 -0.0248  0.0412  0.1944
 8986TIP3    H148373   3.011   4.307   2.314 -1.7072  1.2715  2.3697
 8986TIP3    H248374   3.081   4.301   2.448  0.0825 -1.5248  1.3897
 8987TIP3   OH248375   5.038   1.499  16.938 -0.2483 -0.2272  0.0033
 8987TIP3    H148376   5.115   1.444  16.948  1.4309  1.6159 -1.7146
 8987TIP3    H248377   4.984   1.453  16.874  0.9036 -0.1428 -1.0650
 8988TIP3   OH248378   4.637   5.154  14.127 -0.1271  0.8547 -0.3365
 8988TIP3    H148379   4.573   5.084  14.140  1.0084 -0.4670 -1.3618
 8988TIP3    H248380   4.702   5.140  14.196  1.3394 -0.6888 -1.9003
 8989TIP3   OH248381   2.229   6.607  14.220  0.5021 -0.2702  0.1235
 8989TIP3    H148382   2.139   6.637  14.229  0.1797 -0.5734 -1.6442
 8989TIP3    H248383   2.274   6.680  14.177  0.7796 -0.6039 -0.1553
 8990TIP3   OH248384   2.409   0.405   3.907  0.2841 -0.0711  0.0320
 8990TIP3    H148385   2.381   0.479   3.961 -0.6194  0.8298 -1.5611
 8990TIP3    H248386   2.370   0.328   3.948 -2.9948  0.9011 -0.9206
 8991TIP3   OH248387   1.194   0.010   2.857 -0.1491 -0.2881  0.5901
 8991TIP3    H148388   1.233  -0.076   2.874 -2.0875 -1.6267 -1.2281
 8991TIP3    H248389   1.173   0.045   2.944 -0.7458 -2.3679  1.3343
 8992TIP3   OH248390   2.427   5.312  12.265 -0.6107 -0.2724 -0.3992
 8992TIP3    H148391   2.507   5.362  12.278  0.0440 -1.0505 -1.3221
 8992TIP3    H248392   2.456   5.220  12.264 -1.5185 -0.5647 -0.6499
 8993TIP3   OH248393   6.079   2.486  15.689 -0.1536  0.0770  0.5933
 8993TIP3    H148394   6.109   2.550  15.625 -1.2361  1.5335  1.4881
 8993TIP3    H248395   6.110   2.519  15.773 -1.7634  0.1254  1.2072
 8994TIP3   OH248396   3.952   6.600  16.121 -0.0576  0.3459 -0.7178
 8994TIP3    H148397   3.967   6.580  16.028  3.8675  0.0389 -0.1721
 8994TIP3    H248398   3.936   6.515  16.161  1.4161  0.0655 -0.6826
 8995TIP3   OH248399   0.440   2.809   1.016  0.2114 -0.0416  0.5066
 8995TIP3    H148400   0.427   2.868   1.090  1.2947 -0.4555  1.0488
 8995TIP3    H248401   0.353   2.772   1.000 -0.7295  2.3913 -0.5055
 8996TIP3   OH248402   6.764   0.285   1.603  0.1696 -0.2137 -0.2398
 8996TIP3    H148403   6.719   0.273   1.519  0.1731  0.6116 -0.3718
 8996TIP3    H248404   6.795   0.198   1.627  0.1590 -0.4560 -1.0894
 8997TIP3   OH248405   5.444   0.208   1.116  0.1789  0.6345 -0.1343
 8997TIP3    H148406   5.502   0.283   1.131 -1.0009  1.6141 -0.2625
 8997TIP3    H248407   5.476   0.169   1.035  1.7248  0.0741  0.7078
 8998TIP3   OH248408   2.211   5.980  12.439  0.2084 -0.1882  0.1585
 8998TIP3    H148409   2.191   6.062  12.485 -0.1248 -0.4416  0.4700
 8998TIP3    H248410   2.259   6.007  12.361 -3.6212  0.7286 -2.1346
 8999TIP3   OH248411   1.086   0.550  11.739 -0.0675  0.2294  0.2564
 8999TIP3    H148412   1.139   0.610  11.687 -2.2059  1.1826 -0.9543
 8999TIP3    H248413   1.051   0.488  11.675 -0.8235 -0.0569  0.9376
 9000TIP3   OH248414   1.595   1.725  14.625  0.8715  0.0035  0.0023
 9000TIP3    H148415   1.530   1.792  14.606  1.3757  0.3661 -0.4712
 9000TIP3    H248416   1.576   1.655  14.563  0.9037  0.0908 -0.1063
 9001TIP3   OH248417   2.826   5.040  15.319 -0.4840 -0.5946 -0.0030
 9001TIP3    H148418   2.827   4.967  15.381 -1.9428 -0.0224  0.7491
 9001TIP3    H248419   2.883   5.106  15.358 -0.0687 -0.8919 -0.1096
 9002TIP3   OH248420   3.428   2.950   1.920  0.3391 -0.1239 -0.2544
 9002TIP3    H148421   3.429   2.932   2.014 -0.7539  0.2875 -0.1491
 9002TIP3    H248422   3.506   3.003   1.904  1.0304 -0.9720  0.2500
 9003TIP3   OH248423   1.737   0.443  17.060 -0.0388  0.4216 -0.0762
 9003TIP3    H148424   1.708   0.441  16.969  0.6401 -0.3161 -0.2954
 9003TIP3    H248425   1.657   0.445  17.112 -0.4306  0.7107 -0.6917
 9004TIP3   OH248426   1.586   6.426   2.684  0.4329  0.0216  0.0519
 9004TIP3    H148427   1.585   6.521   2.688  0.6445  0.1378 -1.6652
 9004TIP3    H248428   1.498   6.399   2.709 -0.2183  0.8063 -1.2834
 9005TIP3   OH248429   6.433   6.713  12.260  0.1384  0.4282 -0.6549
 9005TIP3    H148430   6.480   6.795  12.246  0.7255 -0.0366 -1.4882
 9005TIP3    H248431   6.353   6.722  12.207  0.7200  0.0418 -1.6194
 9006TIP3   OH248432   0.558   4.818  12.023 -0.3163  0.3874 -0.3652
 9006TIP3    H148433   0.469   4.839  11.995 -0.4128  1.5409  0.7179
 9006TIP3    H248434   0.570   4.867  12.104  0.1575 -2.3835  1.3654
 9007TIP3   OH248435   1.380   6.418   0.279 -0.0721 -0.0116  0.3964
 9007TIP3    H148436   1.460   6.368   0.272  0.3188  0.5961  0.4104
 9007TIP3    H248437   1.323   6.383   0.210 -0.2016 -1.1421  1.0513
 9008TIP3   OH248438   1.164   1.285  14.292  0.4180  0.4204  0.8332
 9008TIP3    H148439   1.224   1.355  14.268 -1.4576  2.0941  0.7726
 9008TIP3    H248440   1.180   1.270  14.385  0.0302  1.8136  1.1498
 9009TIP3   OH248441   0.686   6.086  13.530  0.3916  0.0239  0.1292
 9009TIP3    H148442   0.771   6.057  13.497 -0.3853 -0.6648 -1.3575
 9009TIP3    H248443   0.638   6.114  13.451 -1.6669 -2.0102  0.5735
 9010TIP3   OH248444   3.156   4.242   4.003 -0.4528 -0.3992  0.5487
 9010TIP3    H148445   3.239   4.269   4.043 -0.0002  0.6976 -1.0252
 9010TIP3    H248446   3.175   4.157   3.964  0.0010 -0.0943  0.0783
 9011TIP3   OH248447   4.097   3.774   5.753 -0.3222 -0.0789  0.5484
 9011TIP3    H148448   4.033   3.845   5.744 -0.1395  0.1593  1.0338
 9011TIP3    H248449   4.106   3.763   5.848 -0.3779 -0.7844  0.4787
 9012TIP3   OH248450   4.237   4.199   1.052  0.1604 -0.3168 -0.3248
 9012TIP3    H148451   4.231   4.239   1.139 -0.2491 -1.2552  0.0958
 9012TIP3    H248452   4.287   4.262   1.000  0.6285  0.1458  0.6541
 9013TIP3   OH248453   4.831   1.167   3.233 -0.3108 -0.3824 -0.5305
 9013TIP3    H148454   4.796   1.224   3.164 -1.5214 -0.8783 -0.3544
 9013TIP3    H248455   4.889   1.107   3.186  0.0758  0.2614 -0.8887
 9014TIP3   OH248456   1.204   2.878  13.459  1.0574  0.5557 -0.4653
 9014TIP3    H148457   1.194   2.783  13.452  1.0354  0.4927  0.3293
 9014TIP3    H248458   1.298   2.891  13.476  0.6839  0.4928  1.9287
 9015TIP3   OH248459   4.180   3.564   1.545 -0.5207 -0.3737  0.4394
 9015TIP3    H148460   4.170   3.657   1.527 -0.7147 -0.1280  1.7749
 9015TIP3    H248461   4.224   3.559   1.629  1.0666 -1.5057 -0.3941
 9016TIP3   OH248462   4.614   2.155  16.942  0.0302 -0.5400 -0.0432
 9016TIP3    H148463   4.548   2.215  16.906 -1.2929 -1.8415  0.1339
 9016TIP3    H248464   4.687   2.160  16.880 -0.5059  0.3978 -0.6263
 9017TIP3   OH248465   2.032   3.170   3.603  0.5568 -0.2801 -0.1089
 9017TIP3    H148466   2.075   3.221   3.671 -1.8982  0.6431  0.8740
 9017TIP3    H248467   2.068   3.082   3.611  0.2512 -0.2328  2.5241
 9018TIP3   OH248468   2.923   3.996  11.307  0.5422  0.3813  0.5239
 9018TIP3    H148469   2.930   4.091  11.293  1.9212  0.2982  0.5492
 9018TIP3    H248470   2.864   3.987  11.382  0.8110  1.2469  0.8503
 9019TIP3   OH248471   4.833   6.066   0.274 -0.1135 -0.0291  0.1391
 9019TIP3    H148472   4.919   6.097   0.244 -0.6974  0.1063 -1.4906
 9019TIP3    H248473   4.799   6.137   0.328  0.2230  0.4955 -0.3305
 9020TIP3   OH248474   6.727   1.207   3.813 -0.0745 -0.1615  0.4186
 9020TIP3    H148475   6.787   1.137   3.785 -0.6330 -0.2442 -0.6532
 9020TIP3    H248476   6.674   1.225   3.735 -0.6074  0.7725  0.9784
 9021TIP3   OH248477   0.279   0.181   0.946 -0.2181  0.1516  0.4210
 9021TIP3    H148478   0.186   0.205   0.942 -0.8672 -2.0690  0.7108
 9021TIP3    H248479   0.301   0.154   0.857 -0.2918 -0.6877  0.6417
 9022TIP3   OH248480   5.406   1.565  14.443  0.1468  0.0579 -0.4660
 9022TIP3    H148481   5.386   1.647  14.398  1.2014  1.3710  1.3375
 9022TIP3    H248482   5.333   1.507  14.421 -1.6512  2.1192 -0.2326
 9023TIP3   OH248483   2.158   3.389  13.636 -0.3277  0.1333  0.2149
 9023TIP3    H148484   2.245   3.408  13.672 -1.1182  0.7394  1.9116
 9023TIP3    H248485   2.141   3.462  13.577 -0.1606  0.6349  0.7761
 9024TIP3   OH248486   4.829   5.955   0.794 -0.3569 -0.6567  0.7363
 9024TIP3    H148487   4.780   5.980   0.872 -0.4876  1.5953  0.0046
 9024TIP3    H248488   4.888   5.885   0.823  0.7206  1.1625  3.2539
 9025TIP3   OH248489   5.682   2.752   5.255 -0.1181  0.1495 -1.1605
 9025TIP3    H148490   5.694   2.845   5.270  0.6803 -0.3202  1.8640
 9025TIP3    H248491   5.769   2.714   5.269 -1.2105 -1.4509  2.8346
 9026TIP3   OH248492   0.750   0.467  14.860  0.3324 -0.2544  0.1887
 9026TIP3    H148493   0.826   0.505  14.905  0.4683 -0.6273  0.2783
 9026TIP3    H248494   0.682   0.464  14.927  0.4911 -0.6761  0.3405
 9027TIP3   OH248495   0.872   0.262  14.008  0.0909  0.5441 -0.1648
 9027TIP3    H148496   0.960   0.243  14.040 -0.2265  0.9378  0.9720
 9027TIP3    H248497   0.838   0.177  13.980 -0.3013 -0.1928  2.3121
 9028TIP3   OH248498   0.766   4.652   2.838  0.4425  0.0602 -0.0017
 9028TIP3    H148499   0.673   4.636   2.851  0.4871  0.3107  0.7289
 9028TIP3    H248500   0.769   4.729   2.781  0.2327 -1.4321 -2.1482
 9029TIP3   OH248501   0.181   1.673  12.352  0.3352 -0.1227  0.1305
 9029TIP3    H148502   0.096   1.703  12.382 -0.3258 -1.6407 -0.0826
 9029TIP3    H248503   0.206   1.735  12.283 -0.2432  0.7601  0.7043
 9030TIP3   OH248504   3.372   3.816   3.642 -0.1672  0.2473 -0.4364
 9030TIP3    H148505   3.445   3.784   3.695  0.6444  0.1346 -1.5967
 9030TIP3    H248506   3.296   3.807   3.699  0.6019 -0.3714  0.5256
 9031TIP3   OH248507   0.461   6.302   3.666 -0.0545 -0.1605 -0.3883
 9031TIP3    H148508   0.481   6.263   3.580  0.8440 -0.5028 -0.0301
 9031TIP3    H248509   0.517   6.379   3.671  1.5818 -1.3679  0.8053
 9032TIP3   OH248510   1.671   4.256  10.984  0.1006 -0.2467  0.2986
 9032TIP3    H148511   1.735   4.287  11.048  0.7524 -1.7420  0.4312
 9032TIP3    H248512   1.721   4.247  10.902 -0.6355  1.2752 -0.3587
 9033TIP3   OH248513   0.009   4.887  11.210  0.5477  0.0964  0.3475
 9033TIP3    H148514   0.084   4.837  11.178  0.2341 -0.0011 -0.2494
 9033TIP3    H248515   0.033   4.978  11.195  0.8083  0.0903  0.7361
 9034TIP3   OH248516   3.526   4.359   2.336 -0.4991  0.2059  0.3145
 9034TIP3    H148517   3.481   4.439   2.306  0.0132  1.2395  2.1497
 9034TIP3    H248518   3.540   4.309   2.256  0.4567  2.6269 -1.1679
 9035TIP3   OH248519   0.648   4.778  16.672  0.7724  0.5333 -0.0364
 9035TIP3    H148520   0.579   4.818  16.619 -0.3953 -0.5383  0.6192
 9035TIP3    H248521   0.696   4.723  16.611  0.3197  0.3958 -0.2750
 9036TIP3   OH248522   6.115   0.134   0.137 -0.2378  0.4762 -0.5003
 9036TIP3    H148523   6.020   0.140   0.133 -0.4303 -1.0980  0.6480
 9036TIP3    H248524   6.137   0.058   0.084  0.2048 -0.1884  0.6012
 9037TIP3   OH248525   4.952   3.105   3.358  0.0435  0.1876 -0.1235
 9037TIP3    H148526   5.018   3.093   3.426 -0.7236 -2.1336  0.2845
 9037TIP3    H248527   4.940   3.019   3.319 -1.2714  0.9712 -1.5930
 9038TIP3   OH248528   0.846   5.359   1.585 -0.5827 -0.4034 -0.6788
 9038TIP3    H148529   0.798   5.280   1.560  0.2988 -1.4969  0.8750
 9038TIP3    H248530   0.934   5.346   1.548 -0.4363 -0.1542 -0.4205
 9039TIP3   OH248531   0.039   0.003  16.826 -0.1543 -0.0168 -1.0294
 9039TIP3    H148532   0.010   0.087  16.792 -0.9114 -0.0319 -0.4498
 9039TIP3    H248533  -0.034  -0.056  16.811 -0.2447 -0.1830 -0.0225
 9040TIP3   OH248534   5.618   5.381  14.829 -0.0427  0.2729  0.2021
 9040TIP3    H148535   5.539   5.370  14.882  0.3451  1.0527  0.9634
 9040TIP3    H248536   5.595   5.341  14.745 -0.3206 -1.8880  1.2355
 9041TIP3   OH248537   5.947   3.469   2.953  0.3098  0.1256  0.1185
 9041TIP3    H148538   5.911   3.526   2.885 -0.3397 -0.5608 -0.1225
 9041TIP3    H248539   5.949   3.382   2.914 -2.0964 -0.7102  1.6433
 9042TIP3   OH248540   2.102   6.433   4.005 -0.1425  0.2380 -0.1800
 9042TIP3    H148541   2.084   6.348   4.045 -3.0115 -1.0828 -3.6921
 9042TIP3    H248542   2.020   6.481   4.014  0.1774  1.0815 -1.5881
 9043TIP3   OH248543   6.417   6.329  17.281 -0.2855  0.0851 -0.0523
 9043TIP3    H148544   6.469   6.358  17.356 -0.8915  0.4162  0.2454
 9043TIP3    H248545   6.339   6.385  17.283 -0.9258 -0.7952 -0.1509
 9044TIP3   OH248546   3.576   1.081  13.085 -0.2295 -0.3942  0.0026
 9044TIP3    H148547   3.537   1.161  13.120  0.8960 -0.7141  2.1828
 9044TIP3    H248548   3.638   1.111  13.019 -0.4713  0.4759  0.1672
 9045TIP3   OH248549   1.022   0.302   1.233  0.6846  0.0170 -0.0464
 9045TIP3    H148550   1.089   0.234   1.220 -0.1219 -0.8357  0.1405
 9045TIP3    H248551   1.007   0.338   1.145  0.1225 -1.0251 -0.3963
 9046TIP3   OH248552   2.835   6.219  16.743 -0.7361  0.3256  0.6071
 9046TIP3    H148553   2.878   6.275  16.679 -0.1101 -0.5307  0.2489
 9046TIP3    H248554   2.866   6.131  16.722 -2.8863 -0.3979  0.1386
 9047TIP3   OH248555   0.801   2.726  11.144  0.3206  0.6567  0.4189
 9047TIP3    H148556   0.730   2.790  11.153  1.0186  1.2481  2.0001
 9047TIP3    H248557   0.832   2.737  11.054 -0.5690  1.4789  0.2007
 9048TIP3   OH248558   6.251   6.339  13.301 -0.2524 -0.2514 -0.0319
 9048TIP3    H148559   6.305   6.337  13.381 -1.6699 -0.5182  0.9553
 9048TIP3    H248560   6.315   6.341  13.229  1.0650 -0.2034  1.0930
 9049TIP3   OH248561   2.940   0.412  12.801 -0.3474  0.1945 -0.7269
 9049TIP3    H148562   3.018   0.459  12.832 -1.5598  2.8617 -1.3823
 9049TIP3    H248563   2.971   0.324  12.781  2.2087  0.7961  0.2004
 9050TIP3   OH248564   4.336   4.496  13.090 -0.0427 -0.3452 -0.2357
 9050TIP3    H148565   4.319   4.590  13.092  0.0468 -0.3107 -0.7728
 9050TIP3    H248566   4.267   4.461  13.034 -1.9676 -1.0419  2.3730
 9051TIP3   OH248567   5.631   4.631  15.193 -0.2235 -0.1200 -0.6083
 9051TIP3    H148568   5.582   4.713  15.194  0.0903  0.0685  0.5981
 9051TIP3    H248569   5.695   4.641  15.123 -1.7902 -0.3167 -2.1268
 9052TIP3   OH248570   1.383   5.787  12.820  0.1176 -0.4396  0.1501
 9052TIP3    H148571   1.288   5.797  12.809  0.2846 -0.9565 -2.5144
 9052TIP3    H248572   1.393   5.729  12.895 -1.6211  0.2080  0.9376
 9053TIP3   OH248573   3.893   1.724  12.782  0.4965  0.2572 -0.2158
 9053TIP3    H148574   3.919   1.678  12.702 -1.7137 -0.7268 -0.4349
 9053TIP3    H248575   3.843   1.660  12.832 -1.3848  1.9146  0.1649
 9054TIP3   OH248576   3.946   1.677   4.767 -0.5128  0.1000 -0.2510
 9054TIP3    H148577   3.888   1.607   4.738 -1.7253 -0.0992  2.3485
 9054TIP3    H248578   3.993   1.640   4.841  0.3065  1.4153 -0.0733
 9055TIP3   OH248579   2.914   6.645  15.132 -0.1381  0.0586  0.3620
 9055TIP3    H148580   2.977   6.717  15.135 -0.6480  0.5115  0.4176
 9055TIP3    H248581   2.886   6.640  15.041  0.0757 -0.2303  0.3110
 9056TIP3   OH248582   5.489   2.077   3.632  0.3438 -0.2555  0.1736
 9056TIP3    H148583   5.418   2.015   3.647 -0.4411 -0.0733 -2.2826
 9056TIP3    H248584   5.445   2.158   3.606  1.4130  0.3320  0.1522
 9057TIP3   OH248585   4.856   3.230  15.206 -0.2609  0.1454  1.2799
 9057TIP3    H148586   4.917   3.269  15.270  0.1078  1.4113  0.2033
 9057TIP3    H248587   4.775   3.280  15.217 -0.5906 -0.4384  1.5666
 9058TIP3   OH248588   2.408   2.903  11.615  0.3721 -0.8840 -0.0835
 9058TIP3    H148589   2.354   2.883  11.538 -1.0991  0.8169  0.4439
 9058TIP3    H248590   2.494   2.868  11.592  0.2427  0.3442 -2.9270
 9059TIP3   OH248591   3.590   6.782   3.890  0.3112  0.3904  0.1386
 9059TIP3    H148592   3.552   6.823   3.968 -2.6454 -2.0193  0.1651
 9059TIP3    H248593   3.613   6.855   3.833 -2.0421  2.1750  1.3047
 9060TIP3   OH248594   6.305   4.462  14.427 -0.8741 -0.2662  0.1868
 9060TIP3    H148595   6.398   4.452  14.444 -0.5160 -0.0253 -1.4987
 9060TIP3    H248596   6.265   4.383  14.463  0.2052 -1.2372 -0.6741
 9061TIP3   OH248597   6.570   3.176  13.754 -0.5465  0.0579  0.4862
 9061TIP3    H148598   6.527   3.247  13.708  1.5842  0.4428 -1.0635
 9061TIP3    H248599   6.645   3.217  13.797  0.4219 -1.1559  0.0037
 9062TIP3   OH248600   2.618   3.346  11.883 -0.7503  0.3093  0.4825
 9062TIP3    H148601   2.540   3.346  11.828  0.3858  0.5609 -1.2284
 9062TIP3    H248602   2.690   3.326  11.822  0.5878  0.6552  1.8751
 9063TIP3   OH248603   4.784   3.130  12.242 -0.0162  0.3373 -0.0612
 9063TIP3    H148604   4.818   3.174  12.164  0.4011 -3.3996 -2.2381
 9063TIP3    H248605   4.698   3.097  12.215  0.1211 -1.0131  1.0415
 9064TIP3   OH248606   4.716   4.938  13.112  0.1172 -0.1203  0.3357
 9064TIP3    H148607   4.687   4.944  13.203 -1.5912 -1.0665 -0.1027
 9064TIP3    H248608   4.650   4.987  13.063  0.4761 -0.4461 -0.4901
 9065TIP3   OH248609   4.643   6.574  12.926  0.4245  0.0576 -0.4722
 9065TIP3    H148610   4.601   6.581  13.012  0.9295  1.2881 -0.3051
 9065TIP3    H248611   4.572   6.548  12.867 -0.3068  0.8802  0.0168
 9066TIP3   OH248612   1.791   3.027   4.203  0.2343  0.1232  0.1880
 9066TIP3    H148613   1.834   3.093   4.258 -1.1848  0.0894  1.3822
 9066TIP3    H248614   1.758   2.962   4.265 -3.2772  1.1401 -0.4139
 9067TIP3   OH248615   4.761   5.531  11.175  0.1254  0.3774 -0.0726
 9067TIP3    H148616   4.733   5.481  11.251  1.9004 -0.6149 -0.0206
 9067TIP3    H248617   4.855   5.513  11.167  0.1578  1.1166 -1.9936
 9068TIP3   OH248618   1.678   1.440  12.022 -0.3942  0.0294 -0.1492
 9068TIP3    H148619   1.764   1.481  12.017  0.2152 -0.9718  1.4980
 9068TIP3    H248620   1.631   1.489  12.089  0.4080 -1.9344  1.9798
 9069TIP3   OH248621   2.258   6.201   5.574 -0.4629  0.3119 -0.5131
 9069TIP3    H148622   2.234   6.110   5.555  0.2598  0.0494 -0.2095
 9069TIP3    H248623   2.270   6.204   5.669  1.1142  0.3077 -0.6815
 9070TIP3   OH248624   2.932   5.463  13.089  0.2720  0.7328 -0.1030
 9070TIP3    H148625   2.873   5.539  13.083 -0.7748 -0.0770 -0.4654
 9070TIP3    H248626   2.927   5.423  13.002  0.7861  0.2316  0.0944
 9071TIP3   OH248627   5.615   6.458  15.455 -0.0375 -1.0565 -0.0362
 9071TIP3    H148628   5.614   6.420  15.368  0.5834 -0.2394 -0.4061
 9071TIP3    H248629   5.686   6.522  15.453 -1.3147  0.4376  0.4220
 9072TIP3   OH248630   3.245   1.382  15.806  0.3631  0.0250 -0.3301
 9072TIP3    H148631   3.227   1.464  15.759 -0.9983 -0.1330 -0.1216
 9072TIP3    H248632   3.221   1.400  15.896 -0.4024 -0.7409 -0.3718
 9073TIP3   OH248633   4.865   5.439   5.049 -0.1689  0.4171 -0.1052
 9073TIP3    H148634   4.947   5.487   5.056  0.8498 -1.2727  0.1757
 9073TIP3    H248635   4.845   5.414   5.139  0.0895 -0.8715 -0.3904
 9074TIP3   OH248636   3.509   3.330   2.624 -0.3105 -0.8077 -0.2709
 9074TIP3    H148637   3.585   3.297   2.672 -1.1608  1.8219  3.2611
 9074TIP3    H248638   3.547   3.390   2.560  0.7385  1.1521  2.0167
 9075TIP3   OH248639   4.664   3.032   0.788  0.2910 -0.1067 -0.1011
 9075TIP3    H148640   4.636   3.118   0.820 -1.5540 -0.2429 -1.1781
 9075TIP3    H248641   4.662   2.976   0.865 -0.1212  0.4577  0.3112
 9076TIP3   OH248642   4.527   3.365  16.774  0.2205  0.4095 -0.1358
 9076TIP3    H148643   4.472   3.432  16.813  0.4682  0.9108 -0.6334
 9076TIP3    H248644   4.615   3.402  16.775  0.4939 -0.2198  0.2859
 9077TIP3   OH248645   0.157   4.996   4.679  0.0035 -0.2010  0.7238
 9077TIP3    H148646   0.188   4.970   4.592 -2.6828  0.5535 -0.5646
 9077TIP3    H248647   0.130   4.914   4.720  0.6390 -0.4860  0.5763
 9078TIP3   OH248648   1.209   5.451   0.622  0.1831  0.2182 -0.1707
 9078TIP3    H148649   1.125   5.457   0.668  0.8568  0.3112  1.0678
 9078TIP3    H248650   1.244   5.540   0.622  1.5247 -0.2537  1.7486
 9079TIP3   OH248651   4.279   1.281  17.123  0.4036  0.1180  0.0266
 9079TIP3    H148652   4.252   1.192  17.148 -0.2176 -0.0380 -1.1419
 9079TIP3    H248653   4.201   1.335  17.138 -0.1085 -0.0396 -1.8067
 9080TIP3   OH248654   4.640   5.482   1.204 -0.4481 -0.1379 -0.0945
 9080TIP3    H148655   4.713   5.438   1.161 -0.3314 -0.9400  0.9047
 9080TIP3    H248656   4.579   5.412   1.228 -0.6181  0.3110  0.8469
 9081TIP3   OH248657   1.879   0.610   5.194 -0.0023 -0.3888  1.0217
 9081TIP3    H148658   1.925   0.620   5.110  0.3482  1.8799  1.4039
 9081TIP3    H248659   1.938   0.556   5.247 -0.5406 -2.4486 -0.3553
 9082TIP3   OH248660   1.233   5.782  17.032 -0.5365  0.2229 -0.5736
 9082TIP3    H148661   1.320   5.790  17.072 -0.0811 -1.2797 -1.1793
 9082TIP3    H248662   1.207   5.872  17.012  0.3546  0.7924  0.6914
 9083TIP3   OH248663   0.774   3.470   1.975 -0.1278  1.0488 -0.0152
 9083TIP3    H148664   0.844   3.526   1.942 -1.1569  2.3083 -0.1184
 9083TIP3    H248665   0.705   3.530   2.000 -1.4069 -0.1978 -0.4274
 9084TIP3   OH248666   2.494   6.244  14.539  0.1483 -0.4011 -0.0854
 9084TIP3    H148667   2.457   6.329  14.515 -0.5417 -0.2452  1.3823
 9084TIP3    H248668   2.461   6.183  14.473 -0.7229  0.1972 -0.2230
 9085TIP3   OH248669   0.722   4.896  15.687  0.2866  0.6212  0.1212
 9085TIP3    H148670   0.788   4.966  15.687 -0.0121  0.9591 -1.7182
 9085TIP3    H248671   0.647   4.934  15.642 -0.0705 -0.7134 -0.4586
 9086TIP3   OH248672   0.138   6.327  11.902 -0.5585  0.3564  0.3365
 9086TIP3    H148673   0.178   6.398  11.851 -0.7177 -0.7873 -1.4638
 9086TIP3    H248674   0.212   6.271  11.927 -0.4668  0.9644  1.5349
 9087TIP3   OH248675   5.051   5.447   1.307  0.1108 -0.4202  0.5046
 9087TIP3    H148676   5.025   5.525   1.357  0.0971 -0.7780  1.0715
 9087TIP3    H248677   5.105   5.397   1.369  1.4469 -0.0963 -0.3747
 9088TIP3   OH248678   6.264   4.062  12.477  0.2715 -0.0750  0.3225
 9088TIP3    H148679   6.360   4.067  12.482  0.2692  0.4052 -0.0817
 9088TIP3    H248680   6.244   3.973  12.505  0.6077  0.7101  3.3362
 9089TIP3   OH248681   5.665   3.006   5.215 -0.5587 -0.0310  0.3594
 9089TIP3    H148682   5.614   3.077   5.254 -0.2115 -0.5274  1.8082
 9089TIP3    H248683   5.678   3.033   5.124  0.7723  2.4941  1.1757
 9090TIP3   OH248684   6.045   1.754  17.137  0.0632 -0.3691 -0.0738
 9090TIP3    H148685   6.127   1.766  17.089 -0.0603 -1.5507 -0.6126
 9090TIP3    H248686   5.977   1.782  17.075  0.0858  1.7947  0.7983
 9091TIP3   OH248687   5.513   5.781   5.428 -0.2639  0.1659  0.1989
 9091TIP3    H148688   5.578   5.803   5.361 -0.4138 -2.2377 -0.8349
 9091TIP3    H248689   5.468   5.704   5.393 -0.7439 -0.8444  2.8384
 9092TIP3   OH248690   1.525   3.562   0.652  0.1783  0.2949  0.0978
 9092TIP3    H148691   1.479   3.485   0.619  0.9869  0.1656 -0.7658
 9092TIP3    H248692   1.529   3.548   0.747 -1.4946  0.2987  0.1874
 9093TIP3   OH248693   3.099   5.813  12.597 -0.2850 -0.0963  0.7274
 9093TIP3    H148694   3.043   5.875  12.550  1.6217  0.7631 -0.5526
 9093TIP3    H248695   3.043   5.777  12.666 -2.2361  1.0476 -0.1852
 9094TIP3   OH248696   0.555   3.232  12.283 -0.2008 -0.0045  0.0222
 9094TIP3    H148697   0.489   3.166  12.304 -0.9342  1.2091  1.7944
 9094TIP3    H248698   0.506   3.304  12.244  0.3342  0.2157 -0.2569
 9095TIP3   OH248699   6.594   2.307  12.444  0.0523 -0.6691 -0.2289
 9095TIP3    H148700   6.527   2.375  12.438  0.5081 -0.0887  0.8410
 9095TIP3    H248701   6.597   2.267  12.357 -0.7938  0.1394 -0.6396
 9096TIP3   OH248702   4.777   6.247  13.519  0.1750 -0.0722  0.8724
 9096TIP3    H148703   4.772   6.263  13.425 -2.0666  0.5263  1.0272
 9096TIP3    H248704   4.772   6.151  13.527  0.4103 -0.1277  0.3758
 9097TIP3   OH248705   5.356   5.119  16.350  0.1929  0.4304 -0.5956
 9097TIP3    H148706   5.313   5.070  16.421  0.3273  0.9969 -0.1154
 9097TIP3    H248707   5.289   5.179  16.318 -0.3602 -0.8606 -2.0057
 9098TIP3   OH248708   0.314   4.109  14.202  0.2623  0.7838 -0.3230
 9098TIP3    H148709   0.317   4.053  14.124  1.4351 -0.8361  0.8229
 9098TIP3    H248710   0.399   4.097  14.244 -0.0703  2.1822  0.8530
 9099TIP3   OH248711   2.509   2.729  14.170  0.7491 -0.4342  0.1396
 9099TIP3    H148712   2.572   2.712  14.241  1.4443  1.3069 -0.0181
 9099TIP3    H248713   2.443   2.785  14.211  0.3986 -0.5655 -0.2457
 9100TIP3   OH248714   6.753   1.566   4.204 -0.2935 -0.5624 -0.0140
 9100TIP3    H148715   6.662   1.593   4.197  0.1338  0.4805 -3.7159
 9100TIP3    H248716   6.802   1.648   4.213  0.3535 -1.0362  0.9009
 9101TIP3   OH248717   6.396   2.424   5.916  0.5255 -0.2100 -0.0499
 9101TIP3    H148718   6.373   2.334   5.893  2.3116 -0.6873 -0.1388
 9101TIP3    H248719   6.457   2.416   5.989  1.7183  0.8363 -0.8902
 9102TIP3   OH248720   3.426   6.360   4.690 -0.2006 -0.2372 -0.0144
 9102TIP3    H148721   3.430   6.342   4.596 -1.0821 -0.8521  0.0500
 9102TIP3    H248722   3.347   6.415   4.699  1.6578  2.6570 -0.0331
 9103TIP3   OH248723   0.946   1.080  15.071  0.6205 -0.0920  0.6103
 9103TIP3    H148724   0.942   1.175  15.086 -1.0123 -0.1629  0.7714
 9103TIP3    H248725   1.005   1.048  15.139  3.4547  1.0907 -1.1179
 9104TIP3   OH248726   3.251   1.095   4.186 -0.3049 -0.3704 -0.0461
 9104TIP3    H148727   3.254   1.174   4.240 -1.7121 -1.2008  1.3465
 9104TIP3    H248728   3.165   1.099   4.143  1.2296  0.8694 -3.3101
 9105TIP3   OH248729   5.258   0.813  12.590 -0.0771  0.0518  0.5313
 9105TIP3    H148730   5.178   0.865  12.585 -0.0987  0.0645  0.9716
 9105TIP3    H248731   5.326   0.870  12.554 -0.7278 -0.9879 -2.6590
 9106TIP3   OH248732   3.886   0.266  15.134 -0.0534 -0.4537 -0.5295
 9106TIP3    H148733   3.868   0.239  15.044  1.9467  0.4617 -1.2715
 9106TIP3    H248734   3.900   0.360  15.128  2.6013 -0.7210  0.2269
 9107TIP3   OH248735   1.937   0.501   0.503 -0.3363 -0.0600  0.1038
 9107TIP3    H148736   1.847   0.470   0.490  0.3176 -2.0473  0.0113
 9107TIP3    H248737   1.943   0.519   0.596 -0.9003  0.3400  0.0695
 9108TIP3   OH248738   5.871   3.258  14.973  0.3721  0.3053  0.2358
 9108TIP3    H148739   5.823   3.341  14.966  0.2600  0.1794 -0.6141
 9108TIP3    H248740   5.844   3.222  15.057 -0.2290  0.7338  0.2347
 9109TIP3   OH248741   5.075   3.654   6.479  0.1956  0.4027  0.3177
 9109TIP3    H148742   5.005   3.619   6.424  1.6186 -1.4077 -0.4454
 9109TIP3    H248743   5.060   3.615   6.565 -1.8042  2.9337  1.2566
 9110TIP3   OH248744   0.538   2.749   0.759 -0.3107 -0.0974  0.3882
 9110TIP3    H148745   0.456   2.747   0.711 -0.1074  0.0066  0.0336
 9110TIP3    H248746   0.512   2.763   0.850 -0.6817 -0.0015  0.2687
 9111TIP3   OH248747   3.629   5.888  13.813 -0.1548  0.1826 -0.3575
 9111TIP3    H148748   3.690   5.936  13.757 -0.6479 -0.0327 -1.0898
 9111TIP3    H248749   3.551   5.876  13.759  0.0468 -1.6735 -0.3051
 9112TIP3   OH248750   5.769   5.352  15.191 -0.7804 -0.2273 -0.3619
 9112TIP3    H148751   5.787   5.260  15.212 -0.2879 -0.5654 -2.0811
 9112TIP3    H248752   5.856   5.391  15.183 -0.9704  0.1314 -0.6613
 9113TIP3   OH248753   5.167   0.095   3.774 -0.1539  0.2513  0.4119
 9113TIP3    H148754   5.172   0.051   3.859  0.2123 -0.8156 -0.1351
 9113TIP3    H248755   5.108   0.040   3.722  1.5519 -0.5200 -0.7973
 9114TIP3   OH248756   2.713   4.076  10.547 -0.0691 -0.2875  0.2910
 9114TIP3    H148757   2.757   3.993  10.567  0.2787 -0.6419 -1.6989
 9114TIP3    H248758   2.767   4.142  10.589  2.6799 -0.6901 -2.2394
 9115TIP3   OH248759   6.342   4.223  13.194 -0.2500  0.2149  0.5168
 9115TIP3    H148760   6.279   4.295  13.191  0.3178  0.7107  0.3534
 9115TIP3    H248761   6.365   4.207  13.103  0.4691  0.5809  0.6308
 9116TIP3   OH248762   0.825   3.544  14.038  0.3467 -0.0941  0.5023
 9116TIP3    H148763   0.853   3.633  14.017  0.8304 -0.4918 -0.6092
 9116TIP3    H248764   0.907   3.495  14.049  0.1009 -0.2247  2.0287
 9117TIP3   OH248765   6.519   2.285  15.179  0.1822 -0.3189  0.0731
 9117TIP3    H148766   6.469   2.245  15.108 -1.7933  0.7484  0.7721
 9117TIP3    H248767   6.524   2.378  15.156  2.7846 -0.5018 -0.4406
 9118TIP3   OH248768   2.799   0.128  12.883 -0.2931 -0.0529  0.1021
 9118TIP3    H148769   2.873   0.081  12.922  0.3175 -1.5940 -2.6875
 9118TIP3    H248770   2.738   0.059  12.858 -0.5241  0.8113 -1.8336
 9119TIP3   OH248771   0.633   2.120   6.391  0.2738 -0.3706  0.5767
 9119TIP3    H148772   0.685   2.073   6.456  1.4148 -0.7069 -0.5210
 9119TIP3    H248773   0.640   2.212   6.416 -1.8470 -0.6899  2.6548
 9120TIP3   OH248774   1.863   2.647   3.429  0.2121 -0.2164  0.1858
 9120TIP3    H148775   1.938   2.588   3.426  0.2390 -0.1244 -1.6309
 9120TIP3    H248776   1.843   2.667   3.338 -2.4136 -0.7164  0.5589
 9121TIP3   OH248777   6.651   4.626   5.772  0.0080 -0.2926 -0.8859
 9121TIP3    H148778   6.736   4.641   5.731  0.8563 -1.1966  0.4569
 9121TIP3    H248779   6.614   4.713   5.784  1.2108  0.1870 -0.5580
 9122TIP3   OH248780   4.732   3.161  15.532 -0.2272 -0.5013  0.1252
 9122TIP3    H148781   4.695   3.130  15.614  2.0768 -0.9831  1.0513
 9122TIP3    H248782   4.722   3.088  15.471  0.8966 -1.3437  0.9226
 9123TIP3   OH248783   5.376   5.071  14.361 -0.4509 -0.1428 -0.0850
 9123TIP3    H148784   5.336   5.052  14.446 -0.2171 -0.9224 -0.1442
 9123TIP3    H248785   5.457   5.020  14.360 -0.0374  0.4981 -0.4485
 9124TIP3   OH248786   5.529   2.537  11.559  0.1098  0.0538  0.1179
 9124TIP3    H148787   5.535   2.448  11.524  1.7653  0.1654  0.0121
 9124TIP3    H248788   5.488   2.527  11.644 -0.4700 -0.7029 -0.2362
 9125TIP3   OH248789   3.867   3.475  14.205 -0.1326  0.2690  0.4354
 9125TIP3    H148790   3.894   3.419  14.278  0.1396  0.3982  0.4326
 9125TIP3    H248791   3.918   3.555  14.215  0.3104  0.0822 -0.1995
 9126TIP3   OH248792   5.946   0.984   5.012 -0.5118 -0.5459 -0.2130
 9126TIP3    H148793   5.925   0.957   5.102 -1.4969  0.2900 -0.1735
 9126TIP3    H248794   5.975   1.075   5.021 -2.3033  0.1339 -0.9199
 9127TIP3   OH248795   2.700   5.150   5.679 -0.4546 -0.4755 -0.2797
 9127TIP3    H148796   2.648   5.072   5.664 -1.3177 -0.2358  1.2471
 9127TIP3    H248797   2.653   5.219   5.632 -2.1173 -0.0764  1.8279
 9128TIP3   OH248798   1.135   1.053   2.605 -0.2652  0.4892  0.1893
 9128TIP3    H148799   1.198   0.982   2.616 -1.4692 -1.1578 -2.4771
 9128TIP3    H248800   1.181   1.119   2.554 -0.3897 -0.2850 -0.9399
 9129TIP3   OH248801   5.741   3.835  14.603 -0.1181 -0.0083  0.6075
 9129TIP3    H148802   5.692   3.917  14.592 -0.1535 -0.1498 -0.3594
 9129TIP3    H248803   5.680   3.778  14.650 -0.3733  0.2707  0.6225
 9130TIP3   OH248804   5.556   5.942  15.434  0.6559 -0.2807 -0.0758
 9130TIP3    H148805   5.487   5.994  15.392  0.7039 -0.9938 -1.0600
 9130TIP3    H248806   5.531   5.851  15.418  1.8369 -0.5500 -0.4582
 9131TIP3   OH248807   6.555   5.152   0.326  0.3066 -0.4228  0.9137
 9131TIP3    H148808   6.530   5.103   0.405  1.8668  0.4376  2.0037
 9131TIP3    H248809   6.492   5.224   0.322  0.3280 -0.3633  1.4896
 9132TIP3   OH248810   5.462   1.147  16.527 -0.0489 -0.5089 -0.4476
 9132TIP3    H148811   5.422   1.173  16.444  0.7490 -0.6195 -0.8786
 9132TIP3    H248812   5.488   1.056  16.513 -0.6164 -0.7796  0.2028
 9133TIP3   OH248813   0.659   1.516  16.257 -0.0173  0.0553  0.2117
 9133TIP3    H148814   0.594   1.558  16.200 -0.5672  0.2448  0.9658
 9133TIP3    H248815   0.663   1.426  16.227 -0.5343  0.0768  0.0728
 9134TIP3   OH248816   4.370   2.232  15.312 -0.3037  0.1066  0.2488
 9134TIP3    H148817   4.435   2.209  15.378  0.7603 -0.0628 -0.8191
 9134TIP3    H248818   4.353   2.150  15.266 -0.8227  0.2811  0.1205
 9135TIP3   OH248819   2.333   0.326  12.954 -0.5177  0.0525  0.3052
 9135TIP3    H148820   2.308   0.394  13.017  0.3509 -0.1350  0.8703
 9135TIP3    H248821   2.425   0.344  12.935 -1.0260  0.7327 -1.7328
 9136TIP3   OH248822   0.510   4.081   3.379  0.4202  0.2852  0.0758
 9136TIP3    H148823   0.562   4.042   3.309 -2.6332 -0.1430 -2.1619
 9136TIP3    H248824   0.463   4.007   3.418 -1.6789  1.0423 -0.8786
 9137TIP3   OH248825   4.129   2.438  17.303  0.7111  0.6666 -0.0571
 9137TIP3    H148826   4.207   2.387  17.324 -1.1571 -2.5141 -0.2772
 9137TIP3    H248827   4.080   2.441  17.385  0.8124  2.3398 -0.0138
 9138TIP3   OH248828   2.085   3.970  13.357 -0.1368 -0.2636  0.5260
 9138TIP3    H148829   2.079   4.048  13.301 -0.6297 -1.3666 -1.0213
 9138TIP3    H248830   1.999   3.965  13.400  0.9704  1.8977  3.3556
 9139TIP3   OH248831   4.154   6.525  11.505 -0.2487  0.0338  0.2216
 9139TIP3    H148832   4.111   6.499  11.424 -2.9270 -0.5595  1.7388
 9139TIP3    H248833   4.111   6.606  11.531  1.5947  1.0336  0.3730
 9140TIP3   OH248834   1.691   5.634  14.366  0.1356 -0.2080  0.1823
 9140TIP3    H148835   1.604   5.599  14.385  0.5137 -1.8694 -0.9536
 9140TIP3    H248836   1.675   5.711  14.311 -0.6048 -0.7044 -0.3089
 9141TIP3   OH248837   6.275   0.955  14.801 -0.0417  0.2586 -0.3247
 9141TIP3    H148838   6.254   0.920  14.714  0.7738  1.6440 -1.0985
 9141TIP3    H248839   6.352   1.010  14.787 -1.6785  2.9856  0.6850
 9142TIP3   OH248840   3.375   1.777   4.332 -0.7716  0.5406  0.1755
 9142TIP3    H148841   3.464   1.805   4.312 -0.7157  1.3411  1.4286
 9142TIP3    H248842   3.331   1.856   4.363 -1.3001 -0.2414  1.5444
 9143TIP3   OH248843   6.570   2.294  17.257  0.0398 -0.4162  0.7741
 9143TIP3    H148844   6.647   2.339  17.222 -0.4673 -2.1442 -2.9573
 9143TIP3    H248845   6.605   2.214  17.295  0.2272 -0.4666  0.4995
 9144TIP3   OH248846   4.185   5.933   4.981 -0.0510  0.0303 -0.1435
 9144TIP3    H148847   4.224   5.958   4.897 -0.5357 -1.3053 -0.8112
 9144TIP3    H248848   4.159   5.841   4.968 -0.6040 -0.0386  1.3001
 9145TIP3   OH248849   3.262   3.586  13.422  0.0782  0.1098  0.1953
 9145TIP3    H148850   3.179   3.539  13.431 -0.0207  0.1552 -0.4727
 9145TIP3    H248851   3.305   3.546  13.347 -0.0393  1.1314 -0.4275
 9146TIP3   OH248852   4.091   0.918  15.257 -0.0602  0.4589 -0.3720
 9146TIP3    H148853   4.056   0.855  15.194 -0.1163  0.3064 -0.1891
 9146TIP3    H248854   4.014   0.954  15.301  0.0380 -0.3268  0.4608
 9147TIP3   OH248855   1.262   4.385  11.234 -0.1992  0.2345  0.6393
 9147TIP3    H148856   1.280   4.394  11.141  1.8271 -1.0810  0.8558
 9147TIP3    H248857   1.264   4.291  11.251 -1.2417  0.4021  1.9124
 9148TIP3   OH248858   3.212   6.568   1.913  0.2298  0.2223 -0.4990
 9148TIP3    H148859   3.137   6.535   1.961  1.6894 -0.1337  1.7008
 9148TIP3    H248860   3.227   6.503   1.844 -0.6906 -0.3858 -0.1425
 9149TIP3   OH248861   2.899   0.760   4.174 -0.4241  0.6408 -0.2984
 9149TIP3    H148862   2.898   0.768   4.269  2.1218 -2.2139  0.1019
 9149TIP3    H248863   2.991   0.765   4.150 -0.9859  1.0967 -2.6231
 9150TIP3   OH248864   1.829   1.594   1.953  0.4802 -0.0454  0.4921
 9150TIP3    H148865   1.755   1.562   1.902 -0.2799 -0.4549  1.7974
 9150TIP3    H248866   1.886   1.637   1.889 -1.4062  1.2528 -0.3890
 9151TIP3   OH248867   5.207   5.779   3.355  0.1809 -0.2257 -0.0370
 9151TIP3    H148868   5.174   5.715   3.292 -2.2333 -1.5562  2.3782
 9151TIP3    H248869   5.292   5.744   3.383 -0.9676 -2.3405  1.0356
 9152TIP3   OH248870   2.643   1.477  13.970 -0.1333  0.2220  0.4569
 9152TIP3    H148871   2.597   1.414  13.913 -1.5482  0.2804  1.4863
 9152TIP3    H248872   2.581   1.549  13.981  0.8930  1.1244  0.5217
 9153TIP3   OH248873   0.065   0.767   3.745 -0.0220 -0.0722 -0.0262
 9153TIP3    H148874   0.119   0.818   3.805  1.6358  1.8659 -2.9385
 9153TIP3    H248875   0.061   0.819   3.665 -3.8334 -1.5279 -1.0244
 9154TIP3   OH248876   2.634   4.310  16.143  0.0274 -0.1960 -0.2679
 9154TIP3    H148877   2.578   4.233  16.132 -2.3896  1.7078 -2.4530
 9154TIP3    H248878   2.718   4.284  16.106  0.0794 -2.4964  1.2610
 9155TIP3   OH248879   2.584   4.505  14.261  0.2488  0.0027 -0.1604
 9155TIP3    H148880   2.610   4.525  14.171  1.2316  1.1757  0.3553
 9155TIP3    H248881   2.555   4.589  14.297 -2.9199 -0.9421 -0.2095
 9156TIP3   OH248882   6.540   3.523  14.978 -0.0808  0.5691 -0.0920
 9156TIP3    H148883   6.483   3.487  14.910 -1.2699  1.5346  0.3632
 9156TIP3    H248884   6.628   3.520  14.939 -0.6243  0.3778 -1.3616
 9157TIP3   OH248885   2.209   4.190   4.935 -0.4855 -0.3512  0.2898
 9157TIP3    H148886   2.296   4.155   4.956 -0.2097 -0.2007 -0.5378
 9157TIP3    H248887   2.160   4.114   4.903 -0.1886 -0.1775 -0.6091
 9158TIP3   OH248888   6.708   4.215  13.944  0.4074  0.9422 -0.1757
 9158TIP3    H148889   6.687   4.150  14.011  1.7796  1.9263  1.2975
 9158TIP3    H248890   6.790   4.184  13.906  0.9664  1.6948  0.4002
 9159TIP3   OH248891   2.087   1.774  14.277  0.1641 -0.3059 -0.3880
 9159TIP3    H148892   2.151   1.709  14.307  0.6307  0.4131  0.2280
 9159TIP3    H248893   2.087   1.841  14.346 -2.1720 -0.8773  0.2280
 9160TIP3   OH248894   0.274   3.851  11.769 -0.0037  0.5161  0.3625
 9160TIP3    H148895   0.209   3.901  11.719  1.0028  0.6742 -0.8559
 9160TIP3    H248896   0.353   3.904  11.765  0.6744 -0.4728  0.3181
 9161TIP3   OH248897   4.362   1.478   2.933  0.1449 -0.5012 -0.1438
 9161TIP3    H148898   4.438   1.465   2.990  0.9363  2.4180 -0.3763
 9161TIP3    H248899   4.319   1.393   2.931  2.4109 -1.7943  1.4298
 9162TIP3   OH248900   0.629   0.748   1.901  0.3985 -0.1851 -0.2537
 9162TIP3    H148901   0.581   0.782   1.976  1.6181  0.4447  0.2818
 9162TIP3    H248902   0.572   0.763   1.826 -0.7817 -0.7056  0.5209
 9163TIP3   OH248903   0.906   6.016  15.219  0.3409  0.0477 -0.1309
 9163TIP3    H148904   0.859   5.946  15.265  0.7520 -1.1305 -1.4308
 9163TIP3    H248905   0.895   5.995  15.126 -0.6339  2.4625 -0.6335
 9164TIP3   OH248906   1.769   1.279   1.431 -0.4589  0.2243 -0.3272
 9164TIP3    H148907   1.674   1.283   1.437 -0.5979 -2.1940  0.4534
 9164TIP3    H248908   1.798   1.279   1.523  0.0837 -1.2571 -0.4629
 9165TIP3   OH248909   2.026   3.827   3.786 -0.2828 -0.0763 -0.0035
 9165TIP3    H148910   2.122   3.824   3.784 -0.2174  0.5000  1.1960
 9165TIP3    H248911   1.998   3.741   3.757  0.5266  0.5400 -2.8858
 9166TIP3   OH248912   0.682   1.230   0.284 -0.2723  0.7567  0.2020
 9166TIP3    H148913   0.634   1.220   0.202  0.1840  1.4213 -0.1575
 9166TIP3    H248914   0.732   1.149   0.292 -1.7696 -0.1514  0.8183
 9167TIP3   OH248915   2.478   4.388   2.977  0.3758 -0.0219 -0.0642
 9167TIP3    H148916   2.560   4.388   3.026  0.7199 -0.0945 -0.6361
 9167TIP3    H248917   2.499   4.345   2.894 -0.3829 -0.5652  0.0180
 9168TIP3   OH248918   5.600   3.683  12.567 -0.1096 -0.0406  0.3413
 9168TIP3    H148919   5.528   3.647  12.618  1.4682 -0.2139  2.5534
 9168TIP3    H248920   5.659   3.609  12.551  0.0150  0.2639 -0.7339
 9169TIP3   OH248921   6.006   4.418  15.177 -0.3537 -0.4095  0.2615
 9169TIP3    H148922   5.942   4.395  15.110  1.0951 -1.4773 -0.8367
 9169TIP3    H248923   6.057   4.489  15.139 -0.5624  0.1009  0.9212
 9170TIP3   OH248924   3.097   1.063   1.697 -0.0685 -0.1109  0.1691
 9170TIP3    H148925   3.156   1.074   1.773  0.3368  2.5579 -0.4420
 9170TIP3    H248926   3.131   0.986   1.652  0.7340 -0.7412  1.7707
 9171TIP3   OH248927   5.205   4.146   1.597  0.0274 -0.5171  0.1838
 9171TIP3    H148928   5.201   4.231   1.553  1.4123  0.0561  1.0794
 9171TIP3    H248929   5.129   4.146   1.655  0.3103  0.3772  0.5838
 9172TIP3   OH248930   2.705   6.081   3.713 -0.0111  0.5455  0.2793
 9172TIP3    H148931   2.628   6.136   3.698 -0.3973  0.0611  0.4497
 9172TIP3    H248932   2.739   6.063   3.626 -1.2103 -0.7962  0.0428
 9173TIP3   OH248933   1.234   6.063   4.587 -0.2446  0.1828 -0.4667
 9173TIP3    H148934   1.269   6.039   4.501  1.8758  0.1653  0.3499
 9173TIP3    H248935   1.208   5.980   4.626  1.8383 -0.2505  0.1351
 9174TIP3   OH248936   4.123   0.557  12.446  0.0469 -0.2031  0.1757
 9174TIP3    H148937   4.162   0.553  12.534  1.1089 -1.2450 -0.3180
 9174TIP3    H248938   4.147   0.644  12.413  0.5918 -0.2262  0.4988
 9175TIP3   OH248939   3.680   6.171  15.629 -0.0669 -0.3182 -0.8499
 9175TIP3    H148940   3.759   6.183  15.578  1.5250 -0.4818  1.4128
 9175TIP3    H248941   3.642   6.089  15.595  2.4948 -2.0032  0.0400
 9176TIP3   OH248942   3.500   5.779   1.914 -0.1679  0.5740  0.2467
 9176TIP3    H148943   3.407   5.759   1.922 -0.4458  0.7481 -1.9984
 9176TIP3    H248944   3.538   5.702   1.873  0.0814  1.6378 -1.6318
 9177TIP3   OH248945   4.312   6.188   5.287 -0.0048  0.4057 -0.0928
 9177TIP3    H148946   4.352   6.182   5.374  1.1627  1.2872 -0.5358
 9177TIP3    H248947   4.219   6.179   5.303  0.3011 -1.1368  1.0619
 9178TIP3   OH248948   4.191   0.408  11.442 -0.2061 -0.3881 -0.7093
 9178TIP3    H148949   4.183   0.313  11.436  1.5274 -1.0036  3.5302
 9178TIP3    H248950   4.114   0.436  11.491  1.3686 -0.4051  2.0135
 9179TIP3   OH248951   1.916   2.251   1.399  0.0291 -0.1340 -0.2065
 9179TIP3    H148952   2.002   2.261   1.442  0.7761 -0.9749 -1.4492
 9179TIP3    H248953   1.872   2.183   1.449  0.0726  0.3026  0.4411
 9180TIP3   OH248954   3.990   1.676   2.548  0.1132 -0.2949  0.2830
 9180TIP3    H148955   3.896   1.693   2.544 -0.0074 -0.8185  0.7771
 9180TIP3    H248956   4.030   1.760   2.524 -0.4577 -0.8255 -3.0346
 9181TIP3   OH248957   2.347   1.204  14.761 -0.1245  0.0337  0.2231
 9181TIP3    H148958   2.390   1.274  14.712 -1.9380 -0.4741 -2.2635
 9181TIP3    H248959   2.348   1.129  14.702 -1.6046 -0.9042  1.3209
 9182TIP3   OH248960   1.028   5.799  11.356  0.0788 -0.2658  0.2747
 9182TIP3    H148961   1.103   5.757  11.314  0.2584 -0.2072  0.5347
 9182TIP3    H248962   1.060   5.825  11.442  0.5561  2.2021 -0.5878
 9183TIP3   OH248963   4.354   5.807   2.031  0.4932  0.3199  0.0969
 9183TIP3    H148964   4.283   5.762   2.076  0.4046 -0.3975 -0.7124
 9183TIP3    H248965   4.405   5.849   2.100  0.2198 -0.5338  0.8305
 9184TIP3   OH248966   2.416   4.540  17.219  0.4231  0.6966  0.1583
 9184TIP3    H148967   2.437   4.477  17.288  0.8879  1.4904  0.7573
 9184TIP3    H248968   2.321   4.544  17.218  0.3596 -0.3500 -0.2135
 9185TIP3   OH248969   3.876   2.264  14.661  0.1215 -0.7809 -0.3763
 9185TIP3    H148970   3.877   2.308  14.576  0.3726 -0.6549 -0.3087
 9185TIP3    H248971   3.913   2.329  14.721 -2.4327  0.1468  0.3300
 9186TIP3   OH248972   0.474   2.439   0.911  0.7180 -0.2007  0.5475
 9186TIP3    H148973   0.460   2.364   0.969 -1.3837 -0.5450 -0.2941
 9186TIP3    H248974   0.396   2.494   0.924  0.1692 -0.2940 -1.9018
 9187TIP3   OH248975   0.881   2.729   1.593  0.1904  0.1047 -0.4200
 9187TIP3    H148976   0.901   2.652   1.647  0.2389  1.9780  2.4443
 9187TIP3    H248977   0.808   2.702   1.538 -0.2778 -1.7707  1.0331
 9188TIP3   OH248978   3.949   1.227   1.873 -0.2848 -0.1474 -0.3199
 9188TIP3    H148979   3.868   1.207   1.919 -0.3273  0.4179 -0.1451
 9188TIP3    H248980   3.923   1.284   1.800  0.2418  2.4496  1.3613
 9189TIP3   OH248981   3.780   6.672  12.075  0.0916  0.1831 -0.0407
 9189TIP3    H148982   3.863   6.717  12.056  1.9697 -2.3342  1.5877
 9189TIP3    H248983   3.773   6.605  12.007 -0.6448  0.3980 -0.1789
 9190TIP3   OH248984   3.730   2.149   1.368  0.1625 -0.5775  0.0104
 9190TIP3    H148985   3.801   2.178   1.424  1.7191  1.4983 -2.7919
 9190TIP3    H248986   3.745   2.055   1.357  0.5767 -0.7748  1.9028
 9191TIP3   OH248987   6.199   0.358  14.070  0.4469  0.2258 -0.0420
 9191TIP3    H148988   6.259   0.333  14.000 -1.8380 -2.4115 -1.2197
 9191TIP3    H248989   6.126   0.400  14.026 -0.2184  0.1770  0.9751
 9192TIP3   OH248990   1.024   5.855  11.898  0.2195  0.0978  0.2280
 9192TIP3    H148991   0.931   5.833  11.889  0.3956 -0.2000 -0.9913
 9192TIP3    H248992   1.034   5.878  11.990 -1.4193  1.7716  0.0454
 9193TIP3   OH248993   1.714   2.785  11.172  0.3792  0.0766 -0.5096
 9193TIP3    H148994   1.799   2.779  11.217 -0.2725  1.1585  0.9448
 9193TIP3    H248995   1.650   2.775  11.242 -0.7002  0.2886 -1.4501
 9194TIP3   OH248996   1.562   4.084   1.768  0.5278 -0.0059 -0.5580
 9194TIP3    H148997   1.540   4.166   1.723  0.3700 -0.9781 -2.3414
 9194TIP3    H248998   1.491   4.024   1.746  1.4941 -1.1341 -0.7088
 9195TIP3   OH248999   0.109   3.142   0.878  0.1297  0.1102  0.3462
 9195TIP3    H149000   0.091   3.136   0.972 -1.5519 -0.7055  0.0051
 9195TIP3    H249001   0.057   3.217   0.848 -0.8643 -0.7857 -0.2371
 9196TIP3   OH249002   3.414   1.306  12.292 -0.0103 -0.3282 -0.1693
 9196TIP3    H149003   3.433   1.214  12.314 -1.8928 -1.1649 -1.7037
 9196TIP3    H249004   3.460   1.321  12.209  1.2648  0.5428  0.6613
 9197TIP3   OH249005   1.474   1.109   5.443  0.2402  0.5306 -0.0912
 9197TIP3    H149006   1.513   1.069   5.520  1.1875  2.5461  0.5417
 9197TIP3    H249007   1.466   1.037   5.380 -1.3422 -1.3553  2.1132
 9198TIP3   OH249008   2.041   6.278   2.913  0.1886 -0.3832 -0.4236
 9198TIP3    H149009   2.078   6.278   3.001 -0.4856 -1.0340 -0.1297
 9198TIP3    H249010   2.077   6.199   2.872  0.5968 -0.0175 -0.7777
 9199TIP3   OH249011   1.460   1.561  16.036 -0.0750 -0.7746  0.4184
 9199TIP3    H149012   1.473   1.652  16.009 -2.6708  0.4179  2.7035
 9199TIP3    H249013   1.546   1.520  16.027  0.7909  1.3981 -2.2875
 9200TIP3   OH249014   4.016   4.058   1.312  0.0805  0.5067  0.1088
 9200TIP3    H149015   3.976   4.121   1.252  0.6970  1.7813  0.9962
 9200TIP3    H249016   4.044   4.110   1.387  1.2895 -0.7081  0.5483
 9201TIP3   OH249017   2.590   0.108   2.887 -0.5716  0.4293 -0.6266
 9201TIP3    H149018   2.675   0.151   2.880 -0.2649 -0.4708 -3.9367
 9201TIP3    H249019   2.544   0.159   2.954  2.0008  1.8488  0.2343
 9202TIP3   OH249020   5.142   2.895   3.707  0.4374 -0.1943  0.0945
 9202TIP3    H149021   5.058   2.858   3.681  0.7805  0.3719 -2.0236
 9202TIP3    H249022   5.202   2.821   3.708  0.3340 -0.2891 -0.4421
 9203TIP3   OH249023   3.559   1.120   1.722 -0.0402  0.4157  0.8073
 9203TIP3    H149024   3.469   1.142   1.745 -0.0692  2.7096 -1.1702
 9203TIP3    H249025   3.559   1.114   1.626  1.0491 -3.9500  0.8436
 9204TIP3   OH249026   5.713   5.407   5.281 -0.6324  0.1179  0.4202
 9204TIP3    H149027   5.709   5.389   5.375 -0.3350 -1.8053  0.1012
 9204TIP3    H249028   5.720   5.321   5.241  2.1354  0.9959 -1.2310
 9205TIP3   OH249029   0.830   1.930   0.852 -0.2815  0.0980 -0.1757
 9205TIP3    H149030   0.900   1.978   0.809 -0.0682 -0.2675 -0.2453
 9205TIP3    H249031   0.778   1.997   0.897  0.7265  0.2671  0.7766
 9206TIP3   OH249032   4.200   5.109   3.590  0.2888 -0.1367 -0.0396
 9206TIP3    H149033   4.208   5.060   3.672  0.6777  1.8089  1.1507
 9206TIP3    H249034   4.182   5.199   3.617 -1.8351  0.2000 -2.1575
 9207TIP3   OH249035   2.031   5.431  16.526 -0.5263  0.2033  0.3215
 9207TIP3    H149036   1.957   5.374  16.508 -0.9286  1.2561 -1.5231
 9207TIP3    H249037   2.108   5.374  16.516 -0.9918 -0.6473  1.2775
 9208TIP3   OH249038   5.693   1.116  11.634 -0.0805  0.2210  0.2961
 9208TIP3    H149039   5.741   1.037  11.610  0.4636  0.5716  0.2152
 9208TIP3    H249040   5.757   1.187  11.625 -1.0711  0.9506 -1.5756
 9209TIP3   OH249041   3.925   1.912   0.662 -0.1202 -0.2802 -0.1274
 9209TIP3    H149042   4.021   1.922   0.660 -0.2078  0.6096 -0.3306
 9209TIP3    H249043   3.894   1.989   0.709 -0.6659 -1.2906  1.2558
 9210TIP3   OH249044   2.182   1.414  12.092  0.2941 -0.1876 -0.7398
 9210TIP3    H149045   2.255   1.396  12.151  0.6958 -1.0912 -1.4852
 9210TIP3    H249046   2.219   1.470  12.024  0.0427  0.1580 -0.5948
 9211TIP3   OH249047   2.129   5.965  10.572 -0.4330  0.3724 -0.3234
 9211TIP3    H149048   2.098   6.015  10.648 -3.8467  0.2840 -1.4798
 9211TIP3    H249049   2.082   5.882  10.577  1.6381 -0.9249 -0.9651
 9212TIP3   OH249050   5.836   5.705   2.722 -0.4731  0.0184 -0.3331
 9212TIP3    H149051   5.922   5.662   2.727  0.9534  2.4217 -1.8200
 9212TIP3    H249052   5.834   5.763   2.798 -0.3921  0.5270 -0.7076
 9213TIP3   OH249053   0.777   6.780  16.033  0.2328 -0.4728 -0.6228
 9213TIP3    H149054   0.701   6.830  16.062  0.3637 -0.1951 -0.7572
 9213TIP3    H249055   0.751   6.688  16.045  0.4477 -0.3771  0.8267
 9214TIP3   OH249056   4.320   1.863  15.811  0.0199  0.3499 -0.2385
 9214TIP3    H149057   4.372   1.815  15.876  1.0684 -0.2311 -1.4469
 9214TIP3    H249058   4.231   1.863  15.846  0.9895  2.5134  2.5683
 9215TIP3   OH249059   5.508   1.898  14.047  0.7035  0.4873  0.2676
 9215TIP3    H149060   5.484   1.807  14.029 -0.6249  1.1142 -1.4799
 9215TIP3    H249061   5.596   1.893  14.084  0.8511 -1.4727 -0.2320
 9216TIP3   OH249062   0.389   2.245   6.321 -0.1075  0.4667 -1.0261
 9216TIP3    H149063   0.468   2.193   6.337 -1.4816 -1.1612  1.1091
 9216TIP3    H249064   0.382   2.302   6.398 -1.8722 -0.6430 -0.3119
 9217TIP3   OH249065   4.113   2.003  16.265 -0.0149 -0.2988  0.2182
 9217TIP3    H149066   4.141   2.069  16.202 -0.2283 -0.3974  0.0186
 9217TIP3    H249067   4.184   1.938  16.264 -0.5430 -0.9011 -0.8017
 9218TIP3   OH249068   1.830   0.236  12.026  0.6490 -0.3400 -0.0828
 9218TIP3    H149069   1.749   0.230  12.077 -0.0719 -4.8040 -1.3139
 9218TIP3    H249070   1.800   0.241  11.935  1.8196 -0.2042 -0.4770
 9219TIP3   OH249071   2.053   0.002  17.111  0.3330 -0.0975 -0.5179
 9219TIP3    H149072   1.993   0.033  17.179  0.2436  0.0683 -0.6726
 9219TIP3    H249073   2.119   0.070  17.105 -1.2036  1.3263 -2.6175
 9220TIP3   OH249074   0.389   3.723  13.827  0.4914  0.0627 -0.4612
 9220TIP3    H149075   0.322   3.658  13.806  1.4064 -0.5891 -1.4787
 9220TIP3    H249076   0.471   3.674  13.828  0.7767  0.3294  3.2057
 9221TIP3   OH249077   3.911   1.502  11.763  0.1449  0.2681 -0.8444
 9221TIP3    H149078   3.958   1.521  11.682  0.9306 -3.9707 -1.6465
 9221TIP3    H249079   3.829   1.461  11.734 -1.0298  1.4890  0.5717
 9222TIP3   OH249080   0.497   1.986  11.929  0.2051 -0.3294  0.2175
 9222TIP3    H149081   0.503   1.891  11.927 -2.0480 -0.6044  2.1073
 9222TIP3    H249082   0.556   2.012  11.999 -3.2566 -1.0145  3.7468
 9223TIP3   OH249083   6.054   2.996   1.060  0.3011 -0.0681  0.3068
 9223TIP3    H149084   6.007   3.078   1.078  1.2978  0.8414 -1.0020
 9223TIP3    H249085   6.120   3.021   0.995  1.8268 -1.5393  1.2356
 9224TIP3   OH249086   3.871   1.377  14.111  0.4016 -0.0162  0.0935
 9224TIP3    H149087   3.900   1.378  14.020  0.1133  1.1651 -0.0109
 9224TIP3    H249088   3.938   1.329  14.159  2.0662  1.8293 -0.2824
 9225TIP3   OH249089   5.271   2.777   1.366 -0.4071  0.2048 -0.1150
 9225TIP3    H149090   5.283   2.700   1.310  2.3061  0.0785  0.5371
 9225TIP3    H249091   5.353   2.826   1.359 -0.7533  1.2562  2.1816
 9226TIP3   OH249092   5.022   6.031   6.451 -0.0026  0.1883  1.1737
 9226TIP3    H149093   4.982   6.077   6.525  0.5782  0.2205  1.4796
 9226TIP3    H249094   5.093   5.980   6.490  0.0013 -0.1821  0.6995
 9227TIP3   OH249095   4.213   0.106  14.657 -0.4760 -0.0770  0.2663
 9227TIP3    H149096   4.185   0.079  14.569 -1.5094  0.0355  0.5507
 9227TIP3    H249097   4.153   0.061  14.716 -1.1672  1.5220  0.8222
 9228TIP3   OH249098   3.967   3.570  17.061  0.0804  0.5369 -0.2071
 9228TIP3    H149099   3.944   3.542  17.150  0.2832  1.4871  0.1597
 9228TIP3    H249100   3.940   3.498  17.005 -1.6380  0.6418  0.4474
 9229TIP3   OH249101   3.040   3.931  15.438  0.0993 -0.0532  0.2369
 9229TIP3    H149102   3.029   3.837  15.450  1.9169 -0.1617  1.4151
 9229TIP3    H249103   3.025   3.968  15.525 -2.8535  1.0824 -0.6168
 9230TIP3   OH249104   2.111   3.478  12.450  0.1001  0.6635 -0.0765
 9230TIP3    H149105   2.056   3.485  12.527  0.8793  1.9932  0.4026
 9230TIP3    H249106   2.062   3.522  12.380  0.5826  2.0281  0.3986
 9231TIP3   OH249107   5.563   6.778  17.059 -0.0360  0.4740  0.1572
 9231TIP3    H149108   5.592   6.723  16.986  0.3438  1.4275 -0.4344
 9231TIP3    H249109   5.615   6.858  17.051 -2.5446  2.1557 -0.7615
 9232TIP3   OH249110   1.880   1.147  15.469 -0.5447 -0.3474  0.7864
 9232TIP3    H149111   1.974   1.153  15.486 -0.2787 -0.5646 -0.5196
 9232TIP3    H249112   1.872   1.158  15.374 -1.7299 -1.5660  0.7198
 9233TIP3   OH249113   1.678   1.607   5.234  0.2269 -0.0365  0.1189
 9233TIP3    H149114   1.751   1.622   5.294  0.3225 -3.5512  1.1440
 9233TIP3    H249115   1.705   1.529   5.184 -0.8624  1.3770 -2.9283
 9234TIP3   OH249116   0.288   0.700   5.073  0.4761 -0.0388 -0.2077
 9234TIP3    H149117   0.194   0.692   5.056  0.0136 -1.6129  2.4910
 9234TIP3    H249118   0.294   0.756   5.150  1.9361  1.3864 -1.2840
 9235TIP3   OH249119   2.799   4.660  13.208  0.0959  0.4436 -0.0469
 9235TIP3    H149120   2.797   4.686  13.300  1.4256 -0.5198  0.2704
 9235TIP3    H249121   2.709   4.676  13.178  0.1778  2.9547  0.7718
 9236TIP3   OH249122   3.583   4.641   5.612 -0.0942  0.2251 -0.0231
 9236TIP3    H149123   3.488   4.645   5.609 -0.2912 -2.3461  0.0049
 9236TIP3    H249124   3.612   4.689   5.534 -1.4017  1.0144 -0.0418
 9237TIP3   OH249125   4.909   2.780  17.286  0.1772  0.2436  0.0683
 9237TIP3    H149126   4.895   2.738  17.202  2.4556 -0.0671 -0.2143
 9237TIP3    H249127   4.852   2.731  17.347  0.3653 -1.1584 -0.8338
 9238TIP3   OH249128   2.200   3.910  15.521  0.6096 -0.5969  0.1059
 9238TIP3    H149129   2.142   3.899  15.597 -0.1926 -1.3143 -0.5936
 9238TIP3    H249130   2.282   3.870  15.548  0.1216 -1.4600  0.3759
 9239TIP3   OH249131   5.735   5.021  12.374  0.1963  0.1903 -0.1845
 9239TIP3    H149132   5.692   5.104  12.393 -0.8230  0.1921 -2.1903
 9239TIP3    H249133   5.731   5.013  12.278 -1.6251 -3.1437  0.0132
 9240TIP3   OH249134   1.287   3.290  15.534  0.0250  0.2380 -0.1170
 9240TIP3    H149135   1.205   3.268  15.491 -0.3688  0.7011  0.3825
 9240TIP3    H249136   1.276   3.381  15.562  0.6077  0.2239  0.1783
 9241TIP3   OH249137   4.543   1.735   4.469  0.0838 -0.0477  0.8343
 9241TIP3    H149138   4.508   1.653   4.503 -0.9072  0.0744  0.1334
 9241TIP3    H249139   4.485   1.803   4.503  0.0289  0.2245  0.2210
 9242TIP3   OH249140   4.049   5.144  10.969 -0.1881  0.0059 -0.3208
 9242TIP3    H149141   4.054   5.202  10.894  1.0955  2.4090  1.4556
 9242TIP3    H249142   4.029   5.202  11.043 -1.5590 -2.2391  1.1948
 9243TIP3   OH249143   5.031   5.089  14.195  0.0344  0.1024  0.2433
 9243TIP3    H149144   4.949   5.102  14.241 -1.0447 -0.4882 -1.4317
 9243TIP3    H249145   5.081   5.029  14.251  0.3529  2.2703  2.4178
 9244TIP3   OH249146   5.437   6.009   3.348 -0.3537 -0.2189 -0.0739
 9244TIP3    H149147   5.380   6.043   3.279  1.9615  1.6213 -1.2328
 9244TIP3    H249148   5.380   5.996   3.423 -3.1199 -2.7477 -2.3356
 9245TIP3   OH249149   4.514   3.066  12.199  0.3741 -0.1930  0.4936
 9245TIP3    H149150   4.525   3.045  12.292 -0.3074  1.7218  1.0603
 9245TIP3    H249151   4.460   2.995  12.164  0.7330 -1.0002  1.5342
 9246TIP3   OH249152   4.031   1.653  13.156 -0.5892 -0.2533  0.0130
 9246TIP3    H149153   3.980   1.581  13.117 -0.7465  0.7358 -1.7078
 9246TIP3    H249154   3.974   1.729  13.148 -0.0658  0.2647  1.0160
 9247TIP3   OH249155   2.557   0.989  14.821 -0.3020 -1.2016  0.3526
 9247TIP3    H149156   2.637   0.968  14.869  1.0837 -0.3417 -1.4694
 9247TIP3    H249157   2.507   0.907  14.821  0.0124 -1.4459  2.4772
 9248TIP3   OH249158   4.490   2.625   0.547  0.4082  0.2948  0.3223
 9248TIP3    H149159   4.561   2.569   0.578 -1.0269 -0.2075  3.1486
 9248TIP3    H249160   4.522   2.714   0.560  1.7365  0.1808 -1.7460
 9249TIP3   OH249161   2.613   3.401  16.011  0.3203 -0.4460 -0.7921
 9249TIP3    H149162   2.705   3.425  15.999  0.0668  1.6004  0.9127
 9249TIP3    H249163   2.564   3.479  15.985 -0.8760 -1.0270 -0.3695
 9250TIP3   OH249164   1.469   1.956   1.943 -0.8100 -0.4557 -0.0778
 9250TIP3    H149165   1.378   1.983   1.955  0.2008  3.3902  0.1114
 9250TIP3    H249166   1.497   2.002   1.865  1.3900 -0.2820  0.7568
 9251TIP3   OH249167   3.680   4.997  15.478 -0.1131  0.2142  0.5601
 9251TIP3    H149168   3.688   4.945  15.558  0.8937  0.2135  0.4740
 9251TIP3    H249169   3.771   5.014  15.452 -0.4334  0.1251 -0.6441
 9252TIP3   OH249170   3.927   1.995  13.916  0.2123  0.5496  0.3256
 9252TIP3    H149171   3.949   2.070  13.861 -3.0004 -0.0910 -2.0850
 9252TIP3    H249172   3.882   1.934  13.858 -1.7632 -1.0403  3.2536
 9253TIP3   OH249173   2.644   1.822  15.701 -0.0165  0.1106 -0.4285
 9253TIP3    H149174   2.674   1.885  15.636 -0.1999  1.0119  0.3379
 9253TIP3    H249175   2.579   1.769  15.655 -1.9080  2.2411 -0.3780
 9254TIP3   OH249176   6.427   5.031   0.569 -0.0625  0.0114 -0.0368
 9254TIP3    H149177   6.366   4.958   0.555  0.9801 -0.8498 -0.2833
 9254TIP3    H249178   6.492   4.995   0.630  1.5482  0.0662 -1.6496
 9255TIP3   OH249179   0.577   1.489  15.973  0.5802  0.1806 -0.2484
 9255TIP3    H149180   0.658   1.457  15.935  1.1849 -1.5523  2.2256
 9255TIP3    H249181   0.514   1.418  15.960 -0.0423  0.7768 -0.5745
 9256TIP3   OH249182   2.957   0.392   5.164 -0.4452 -0.9609 -0.2908
 9256TIP3    H149183   2.990   0.377   5.253 -0.8948  1.3283  0.3286
 9256TIP3    H249184   3.001   0.473   5.136 -1.9166 -0.4730 -1.2910
 9257TIP3   OH249185   1.162   2.586   2.146  0.3310  0.2067 -0.6001
 9257TIP3    H149186   1.234   2.529   2.120  0.8555 -1.1613  3.1658
 9257TIP3    H249187   1.091   2.525   2.168 -1.0998  1.4013 -1.7019
 9258TIP3   OH249188   0.218   4.594  14.046 -0.0918  0.3013  0.2531
 9258TIP3    H149189   0.185   4.560  13.962 -0.0362  1.8058 -0.4149
 9258TIP3    H249190   0.274   4.524  14.080 -1.3677 -0.9968 -0.1644
 9259TIP3   OH249191   4.774   0.031  16.535 -0.1120 -0.5949 -0.3427
 9259TIP3    H149192   4.810   0.044  16.447  1.1724 -0.4943  0.1795
 9259TIP3    H249193   4.704   0.097  16.542  0.3971  0.0218 -0.9543
 9260TIP3   OH249194   0.502   3.701   6.416 -0.5202 -0.7697  0.9472
 9260TIP3    H149195   0.552   3.684   6.496  0.3045  2.3195  1.2435
 9260TIP3    H249196   0.520   3.626   6.359  1.0265 -1.7678  2.6693
 9261TIP3   OH249197   3.244   3.856  14.919 -0.2074 -0.0861 -0.0820
 9261TIP3    H149198   3.170   3.905  14.955  0.8671  0.8756  0.9332
 9261TIP3    H249199   3.267   3.793  14.988 -0.6950 -1.0714 -0.8037
 9262TIP3   OH249200   4.780   2.328  13.369  0.3580  0.1116  0.3359
 9262TIP3    H149201   4.764   2.276  13.448 -1.7972  0.0882 -0.0689
 9262TIP3    H249202   4.815   2.265  13.306 -0.5872 -0.4773  0.3916
 9263TIP3   OH249203   3.939   0.569  14.018 -0.2379  0.0560  0.4085
 9263TIP3    H149204   3.896   0.493  13.980 -0.7247  0.4014  0.2666
 9263TIP3    H249205   3.908   0.572  14.109 -3.1532  2.1664 -0.5038
 9264TIP3   OH249206   3.365   2.694  13.704  0.3336  0.4290  0.2078
 9264TIP3    H149207   3.443   2.742  13.677 -1.2317  3.5026  0.6246
 9264TIP3    H249208   3.302   2.709  13.633 -0.2077 -1.1795  0.3101
 9265TIP3   OH249209   5.246   3.812  14.501 -0.4067  0.2836  0.1330
 9265TIP3    H149210   5.245   3.816  14.597 -0.2719 -1.0744  0.2098
 9265TIP3    H249211   5.181   3.877  14.474  1.5335  2.7387  1.0248
 9266TIP3   OH249212   5.161   3.278   2.002  0.0407  0.1307  0.4032
 9266TIP3    H149213   5.225   3.327   1.950  0.4341  0.0407  0.7936
 9266TIP3    H249214   5.150   3.330   2.082 -2.3299  1.4947 -0.7297
 9267TIP3   OH249215   1.291   6.311  16.383 -0.5362  0.5772  0.2048
 9267TIP3    H149216   1.218   6.358  16.345  0.3607  2.3211  0.5528
 9267TIP3    H249217   1.368   6.342  16.335  0.0236 -1.2320 -0.1741
 9268TIP3   OH249218   6.326   6.494  16.754 -0.0108  0.0413 -0.3207
 9268TIP3    H149219   6.379   6.423  16.790  0.2397  0.7473  0.7509
 9268TIP3    H249220   6.236   6.467  16.770  0.0917  0.8583  1.9816
 9269TIP3   OH249221   4.511   1.044  12.562 -0.3299  0.0254  0.4310
 9269TIP3    H149222   4.442   1.094  12.519 -0.4734  0.0688  0.7164
 9269TIP3    H249223   4.590   1.067  12.513 -0.7122 -1.0042 -0.7177
 9270TIP3   OH249224   6.047   6.098  13.218 -1.0429 -0.1284  0.2744
 9270TIP3    H149225   6.111   6.034  13.249 -0.6541  0.0404 -0.1744
 9270TIP3    H249226   6.076   6.181  13.255 -0.3378  0.1482 -0.8530
 9271TIP3   OH249227   5.182   0.305  11.912  0.7064  0.2757  0.1489
 9271TIP3    H149228   5.114   0.259  11.862  0.7755  0.3144  0.0182
 9271TIP3    H249229   5.223   0.363  11.848  0.1225  1.0751  0.4794
 9272TIP3   OH249230   2.284   0.932  13.889 -0.1506 -0.7575 -0.1127
 9272TIP3    H149231   2.301   0.872  13.961 -1.1063 -2.9680 -1.6203
 9272TIP3    H249232   2.345   0.905  13.820 -1.7585 -1.1906 -1.4320
 9273TIP3   OH249233   1.363   6.006  13.170 -0.1568 -0.6291  0.3502
 9273TIP3    H149234   1.304   5.930  13.167 -0.0518 -0.6733 -1.0482
 9273TIP3    H249235   1.450   5.969  13.157  0.0995 -0.4491  1.4343
 9274TIP3   OH249236   6.155   2.900  14.555  0.0967  0.0886  0.0842
 9274TIP3    H149237   6.202   2.909  14.638  0.7298 -0.1137 -0.2481
 9274TIP3    H249238   6.185   2.975  14.503  0.0018 -0.0066 -0.1083
 9275TIP3   OH249239   2.778   6.619  11.940  0.7531 -0.1049 -0.1380
 9275TIP3    H149240   2.724   6.544  11.966  1.1563  0.3172  2.1433
 9275TIP3    H249241   2.719   6.694  11.946  1.2511  0.2038  1.2048
 9276TIP3   OH249242   6.340   6.707   4.043  0.1316  0.6177 -0.2809
 9276TIP3    H149243   6.405   6.777   4.048  2.3912 -1.3306 -0.6299
 9276TIP3    H249244   6.386   6.634   4.001 -1.7570 -1.4682  1.0261
 9277TIP3   OH249245   6.300   4.495  13.597  0.7512 -0.0539  0.1212
 9277TIP3    H149246   6.274   4.586  13.611  2.0444  0.3258  0.1648
 9277TIP3    H249247   6.277   4.451  13.679 -1.7795 -0.2697 -0.6131
 9278TIP3   OH249248   4.953   2.885  13.276  0.4181 -0.5265 -0.0705
 9278TIP3    H149249   4.891   2.906  13.346 -0.0050 -0.7764 -0.3663
 9278TIP3    H249250   4.914   2.811  13.230  1.4015 -1.3207  0.3281
 9279TIP3   OH249251   5.557   0.542   5.022 -0.4723  0.2599  0.2366
 9279TIP3    H149252   5.486   0.527   4.961 -0.1184  1.2620 -0.4646
 9279TIP3    H249253   5.635   0.549   4.967  0.1079 -0.4007  0.9494
 9280TIP3   OH249254   1.903   0.278   4.180 -0.1743  0.2633 -0.4690
 9280TIP3    H149255   1.814   0.267   4.213 -0.7657  1.9464 -1.3821
 9280TIP3    H249256   1.948   0.327   4.249  0.1981 -0.9277  0.1680
 9281TIP3   OH249257   0.011   2.032   4.040  0.2529  0.0649  0.0949
 9281TIP3    H149258  -0.024   2.094   4.103  0.7628  0.9491 -0.4731
 9281TIP3    H249259   0.084   1.989   4.087 -0.8264 -0.9688  0.8833
 9282TIP3   OH249260   5.338   4.157   4.952 -0.5376 -0.8938 -0.4258
 9282TIP3    H149261   5.345   4.139   4.858  0.6098 -1.1928 -0.2960
 9282TIP3    H249262   5.248   4.190   4.963  0.0150  1.4442 -1.9991
 9283TIP3   OH249263   6.331   1.261  11.452 -0.5385  0.2116  0.5014
 9283TIP3    H149264   6.277   1.285  11.377 -1.0673 -0.6833  0.5744
 9283TIP3    H249265   6.320   1.166  11.461  1.5387 -0.1225  0.1427
 9284TIP3   OH249266   2.276   1.675  13.662  0.2510  0.1308 -0.1529
 9284TIP3    H149267   2.354   1.680  13.607  1.2118 -0.3976  1.0994
 9284TIP3    H249268   2.306   1.707  13.747 -1.0949  0.5834  0.1598
 9285TIP3   OH249269   3.912   6.087  15.803 -0.8491  0.3235  0.7104
 9285TIP3    H149270   3.980   6.031  15.840 -0.9703 -1.5563 -1.6777
 9285TIP3    H249271   3.959   6.152  15.751 -0.7494 -1.2877 -1.3663
 9286TIP3   OH249272   3.502   3.233  16.883 -0.2796  0.7813  0.3898
 9286TIP3    H149273   3.431   3.181  16.920  0.7299  1.0768  2.8913
 9286TIP3    H249274   3.565   3.168  16.852  0.0659  0.4749  1.6797
 9287TIP3   OH249275   1.786   2.450   0.136  0.4048 -0.4137 -0.3663
 9287TIP3    H149276   1.765   2.530   0.088 -0.0884 -0.4933 -0.2916
 9287TIP3    H249277   1.870   2.421   0.100  0.7665  0.3363 -0.1321
 9288TIP3   OH249278   5.426   3.406  16.680  0.5718 -0.4760 -0.9082
 9288TIP3    H149279   5.470   3.489  16.663 -2.4216  0.7753 -3.5863
 9288TIP3    H249280   5.371   3.423  16.756  0.6552 -0.3131 -0.8852
 9289TIP3   OH249281   4.564   2.943   3.991  0.0050 -0.4905 -0.4510
 9289TIP3    H149282   4.505   2.882   3.947  0.0271 -0.8184 -0.0382
 9289TIP3    H249283   4.649   2.928   3.951 -0.1553 -0.1278 -0.9390
 9290TIP3   OH249284   6.285   0.785   3.737 -0.4009  0.2263  0.1655
 9290TIP3    H149285   6.333   0.868   3.735  0.7167 -0.4066 -0.5148
 9290TIP3    H249286   6.342   0.724   3.691 -1.0496 -1.0143  0.9734
 9291TIP3   OH249287   5.370   2.100  15.020  0.3290 -0.3349 -0.0209
 9291TIP3    H149288   5.345   2.106  14.928 -0.4794  0.3794  0.2324
 9291TIP3    H249289   5.336   2.015  15.049  1.3457 -0.9495 -0.5920
 9292TIP3   OH249290   0.216   2.043  16.301  0.7170 -0.3294  0.6784
 9292TIP3    H149291   0.224   1.981  16.374 -2.0731  0.6458  1.9606
 9292TIP3    H249292   0.178   2.121  16.341  1.1065  1.0299 -1.4768
 9293TIP3   OH249293   3.650   0.531  12.631  0.1786  1.1022  0.5201
 9293TIP3    H149294   3.697   0.513  12.549 -1.6889 -2.4006  0.0049
 9293TIP3    H249295   3.583   0.594  12.606 -1.4256 -1.1014 -1.2585
 9294TIP3   OH249296   1.637   1.490  14.469  0.3937 -0.2601  0.0869
 9294TIP3    H149297   1.680   1.405  14.468  0.0181 -0.4756 -1.6579
 9294TIP3    H249298   1.702   1.551  14.434  0.9437  0.3750  2.0630
 9295TIP3   OH249299   5.693   5.935   0.973  0.0773  0.4675 -0.4604
 9295TIP3    H149300   5.701   5.882   1.052  0.2896  0.9733 -0.1395
 9295TIP3    H249301   5.604   5.972   0.977 -0.4236 -0.6148 -1.1664
 9296TIP3   OH249302   6.047   5.812   4.477 -0.7680  0.0017 -0.0395
 9296TIP3    H149303   6.074   5.803   4.385  0.0488  0.4727  0.1467
 9296TIP3    H249304   6.005   5.898   4.481 -0.2767  0.2341  0.1506
 9297TIP3   OH249305   1.766   5.087   6.565  0.0267  0.4836 -0.2577
 9297TIP3    H149306   1.808   5.105   6.649  0.6897  0.8891 -0.6632
 9297TIP3    H249307   1.779   5.167   6.514 -0.0452  0.1104 -0.8779
 9298TIP3   OH249308   5.358   2.881  11.816  0.1662  0.2889  0.4432
 9298TIP3    H149309   5.441   2.920  11.844  0.6856 -0.9547  0.6604
 9298TIP3    H249310   5.357   2.892  11.721 -0.6722  2.6865  0.6362
 9299TIP3   OH249311   2.226   0.637   4.466  0.1379  0.1077  0.4000
 9299TIP3    H149312   2.175   0.709   4.503 -1.2603  0.5434 -2.1693
 9299TIP3    H249313   2.169   0.560   4.475  1.3644 -0.6380  2.5451
 9300TIP3   OH249314   6.742   6.123  10.883 -0.2552  0.1198  0.1705
 9300TIP3    H149315   6.667   6.157  10.834  1.2947  2.2886 -0.8690
 9300TIP3    H249316   6.818   6.151  10.832  1.3075 -2.8341  0.6385
 9301TIP3   OH249317   4.135   2.970  14.414 -0.1028 -0.0276  0.0490
 9301TIP3    H149318   4.132   3.027  14.491  0.2642  0.2644 -0.1457
 9301TIP3    H249319   4.085   3.018  14.347 -2.7569 -1.4901  0.8586
 9302TIP3   OH249320   3.622   1.920   1.066  0.7689 -0.1810  0.1416
 9302TIP3    H149321   3.695   1.886   1.013  0.3965 -0.8369  0.0376
 9302TIP3    H249322   3.628   2.015   1.057  1.4777 -0.2387 -0.0506
 9303TIP3   OH249323   4.591   0.260   4.471  0.0058 -0.4116  0.3732
 9303TIP3    H149324   4.635   0.291   4.393  1.1001 -0.8001  0.8153
 9303TIP3    H249325   4.567   0.340   4.519 -0.4612 -0.1831 -0.2369
 9304TIP3   OH249326   0.638   1.164  14.675  0.0326  0.2326  0.0677
 9304TIP3    H149327   0.544   1.181  14.672  0.0469  0.1042 -1.8184
 9304TIP3    H249328   0.676   1.244  14.713 -0.6940  0.9487 -0.6926
 9305TIP3   OH249329   4.482   0.960   3.588  0.4012  0.0379  0.4592
 9305TIP3    H149330   4.482   1.009   3.670 -1.3908 -1.1165  1.1966
 9305TIP3    H249331   4.454   1.024   3.522  1.7022  0.9298  0.7482
 9306TIP3   OH249332   1.916   6.146   4.876  0.1526 -0.2646  0.0961
 9306TIP3    H149333   1.841   6.120   4.929  0.4299  2.0027  1.7706
 9306TIP3    H249334   1.983   6.172   4.939  1.3293  0.4282 -1.3602
 9307TIP3   OH249335   1.174   5.543   2.311  0.4463 -0.0178  0.8324
 9307TIP3    H149336   1.231   5.609   2.352  0.4400  1.1373 -0.9389
 9307TIP3    H249337   1.101   5.535   2.372  1.0618  0.6630  1.7049
 9308TIP3   OH249338   0.467   5.022  14.043 -0.2052 -0.2090 -0.2331
 9308TIP3    H149339   0.424   5.039  13.959 -0.4909  1.1620  0.1643
 9308TIP3    H249340   0.413   5.069  14.107  1.0321  0.2894  0.4742
 9309TIP3   OH249341   0.619   5.004   4.727 -0.1339 -0.3379  0.0945
 9309TIP3    H149342   0.623   5.004   4.632  3.1766  0.9925  0.0751
 9309TIP3    H249343   0.594   5.093   4.750  1.2800  0.0174  0.3870
 9310TIP3   OH249344   6.381   3.588  16.205  0.4770 -0.0782  0.3558
 9310TIP3    H149345   6.451   3.580  16.270  1.5749  1.9447 -0.5190
 9310TIP3    H249346   6.309   3.627  16.253  0.0317 -1.7534  1.1472
 9311TIP3   OH249347   3.611   0.230   3.095  0.2531 -0.1447 -0.0746
 9311TIP3    H149348   3.587   0.259   3.007 -0.5306 -0.8548 -0.1082
 9311TIP3    H249349   3.684   0.286   3.120  0.4991  0.0518 -1.1915
 9312TIP3   OH249350   6.127   4.292   0.208 -0.0190 -0.0436  0.0793
 9312TIP3    H149351   6.059   4.226   0.195  0.9397 -0.7850 -1.5423
 9312TIP3    H249352   6.091   4.372   0.169  0.3893 -0.6989 -1.7573
 9313TIP3   OH249353   3.641   4.188   4.553  0.7954 -0.3200 -0.2735
 9313TIP3    H149354   3.657   4.097   4.530  2.1694  0.2298 -1.6568
 9313TIP3    H249355   3.647   4.235   4.470  0.8302  1.1249  0.5120
 9314TIP3   OH249356   4.400   1.141   2.839 -0.0117  0.3833 -0.3569
 9314TIP3    H149357   4.415   1.047   2.827  0.0339  0.2749  0.4992
 9314TIP3    H249358   4.413   1.179   2.752  0.4864 -0.3324 -0.5984
 9315TIP3   OH249359   2.840   5.826   3.538 -0.5325  0.5204  0.0882
 9315TIP3    H149360   2.853   5.834   3.632 -0.8054 -0.2503  0.1978
 9315TIP3    H249361   2.890   5.899   3.500  1.9694 -0.7997  0.6481
 9316TIP3   OH249362   1.176   6.642  13.483 -0.1898  0.5642  0.4414
 9316TIP3    H149363   1.106   6.673  13.427 -0.1363  1.0006  0.6119
 9316TIP3    H249364   1.222   6.576  13.431  0.8630  2.1097 -0.6786
 9317TIP3   OH249365   6.020   5.100   4.979 -0.4175  0.4723 -0.2004
 9317TIP3    H149366   6.103   5.128   4.939 -0.2189  0.1810  0.0099
 9317TIP3    H249367   5.956   5.107   4.908 -0.0129 -0.3194 -0.6602
 9318TIP3   OH249368   1.246   1.217  14.572  0.5039 -0.0692  0.3487
 9318TIP3    H149369   1.273   1.308  14.583  0.5529 -0.2726  2.1770
 9318TIP3    H249370   1.247   1.181  14.661 -0.2590 -1.6450 -0.2538
 9319TIP3   OH249371   2.841   1.864  12.910  0.2010  0.9537 -0.2570
 9319TIP3    H149372   2.817   1.930  12.845  0.1928  0.0907 -1.1513
 9319TIP3    H249373   2.898   1.804  12.862  0.2438  0.3363  0.5573
 9320TIP3   OH249374   6.468   1.282   2.492  0.0415  0.1240  0.3468
 9320TIP3    H149375   6.396   1.219   2.499  1.0154 -1.2630 -1.2721
 9320TIP3    H249376   6.429   1.359   2.451 -0.5930 -0.5289 -0.3181
 9321TIP3   OH249377   1.302   6.357   4.583  0.1321 -0.2849 -0.0368
 9321TIP3    H149378   1.391   6.332   4.557 -0.0992  1.7696 -3.3841
 9321TIP3    H249379   1.251   6.277   4.575  1.5467 -1.3846  1.4724
 9322TIP3   OH249380   6.297   1.280   3.764  0.5891 -0.3156  0.5502
 9322TIP3    H149381   6.274   1.191   3.792 -1.6482  0.0409  0.0585
 9322TIP3    H249382   6.301   1.330   3.846  0.7052 -0.6386  0.7441
 9323TIP3   OH249383   3.905   2.277  11.767  0.1949  0.0362 -0.5088
 9323TIP3    H149384   3.985   2.227  11.752 -0.8491 -1.9591  0.2730
 9323TIP3    H249385   3.835   2.212  11.770 -1.1297  1.4300  1.4437
 9324TIP3   OH249386   5.176   6.773  16.238 -0.2853  0.1533 -0.6795
 9324TIP3    H149387   5.248   6.830  16.262  0.7112 -0.7169 -1.5168
 9324TIP3    H249388   5.161   6.718  16.316  0.7753 -0.4743 -0.8971
 9325TIP3   OH249389   1.159   6.637  13.779 -0.5162  0.1131  0.5964
 9325TIP3    H149390   1.131   6.643  13.688  1.2830 -1.1871 -0.0978
 9325TIP3    H249391   1.077   6.632  13.829 -1.5257  0.1384 -0.9821
 9326TIP3   OH249392   0.334   4.222   6.135  0.1585 -0.0127 -1.0859
 9326TIP3    H149393   0.320   4.139   6.089  1.2782  0.0140 -1.5135
 9326TIP3    H249394   0.315   4.289   6.070  1.0717  0.0312 -1.3266
 9327TIP3   OH249395   6.186   1.092   1.688  0.1126  0.2251 -0.2920
 9327TIP3    H149396   6.158   1.020   1.745 -0.6024 -0.2169 -1.1750
 9327TIP3    H249397   6.281   1.094   1.696  0.0706 -0.2798  0.3778
 9328TIP3   OH249398   5.206   4.932  12.728 -0.2891 -0.1006  0.2495
 9328TIP3    H149399   5.253   5.005  12.769 -0.8692  0.0242  0.7141
 9328TIP3    H249400   5.265   4.900  12.661 -0.8420  2.1451 -1.4470
 9329TIP3   OH249401   6.421   6.716  11.844  0.4110 -0.6834  0.0424
 9329TIP3    H149402   6.480   6.658  11.796  2.2667  0.8667  0.3462
 9329TIP3    H249403   6.478   6.779  11.887 -1.5478  2.0402 -1.0930
 9330TIP3   OH249404   4.972   6.558  15.611  0.6128  0.7790 -0.4348
 9330TIP3    H149405   4.881   6.556  15.583  0.5184 -1.1151 -0.1341
 9330TIP3    H249406   5.012   6.631  15.562 -1.4663  2.9278  0.8510
 9331TIP3   OH249407   4.744   6.259   4.169  0.8683 -0.0597  0.3423
 9331TIP3    H149408   4.770   6.351   4.175  1.7997 -0.0792 -1.9627
 9331TIP3    H249409   4.658   6.255   4.209  0.4381  2.0073 -0.2691
 9332TIP3   OH249410   2.529   4.454  16.376 -0.3387  0.1384  0.2341
 9332TIP3    H149411   2.571   4.401  16.308  0.6940 -0.4381  1.3040
 9332TIP3    H249412   2.436   4.456  16.351 -0.3496 -1.9001 -0.0084
 9333TIP3   OH249413   2.679   1.827   4.653  0.0595  0.7289  0.4417
 9333TIP3    H149414   2.637   1.883   4.719 -0.7609 -1.3262  1.7878
 9333TIP3    H249415   2.608   1.806   4.591 -0.5070 -1.1389  1.6172
 9334TIP3   OH249416   4.086   0.628  13.210  0.6228 -0.1854 -0.5029
 9334TIP3    H149417   4.138   0.707  13.223  1.3644 -0.7940  0.3326
 9334TIP3    H249418   4.088   0.584  13.294  2.1497 -2.2284 -1.5253
 9335TIP3   OH249419   2.913   3.917  10.684  0.4103  0.2120 -0.3553
 9335TIP3    H149420   2.937   4.005  10.713 -0.8647  0.5975 -0.3684
 9335TIP3    H249421   2.970   3.900  10.609  1.5297  0.5129  0.4119
 9336TIP3   OH249422   2.468   6.744  10.704 -0.2844 -0.1562  0.1887
 9336TIP3    H149423   2.558   6.725  10.730 -0.5833  1.2965  2.5852
 9336TIP3    H249424   2.468   6.837  10.683 -1.2516 -0.1350  0.2284
 9337TIP3   OH249425   0.242   0.515  15.135 -0.4260 -0.4010 -0.2438
 9337TIP3    H149426   0.226   0.586  15.073 -2.4200  2.3237  3.0317
 9337TIP3    H249427   0.325   0.538  15.177  0.0033 -1.2369 -0.6087
 9338TIP3   OH249428   4.416   0.202   2.027 -0.0038 -0.6132  0.2161
 9338TIP3    H149429   4.464   0.186   2.108 -0.7745  0.9459  1.0335
 9338TIP3    H249430   4.460   0.149   1.961  2.7021  0.6011  0.9434
 9339TIP3   OH249431   0.242   5.028   1.845  0.0851 -0.1666  0.5889
 9339TIP3    H149432   0.283   5.068   1.921 -1.0430  1.2221  0.5143
 9339TIP3    H249433   0.150   5.055   1.851 -0.8884 -3.2193  0.8031
 9340TIP3   OH249434   1.138   0.087   3.831 -0.7545  0.6118 -0.1307
 9340TIP3    H149435   1.102  -0.000   3.844  0.0711  0.5699  2.5050
 9340TIP3    H249436   1.099   0.140   3.901  2.1367  1.1804  1.2013
 9341TIP3   OH249437   5.554   2.541  15.510  0.0792  0.3768  0.1505
 9341TIP3    H149438   5.596   2.548  15.595 -0.7155 -0.9118  0.6869
 9341TIP3    H249439   5.622   2.507  15.452 -0.3248 -2.5406  1.2073
 9342TIP3   OH249440   1.876   6.473   1.154  0.3102 -0.4554  0.4744
 9342TIP3    H149441   1.838   6.385   1.161 -0.6913  0.0231  1.4694
 9342TIP3    H249442   1.875   6.492   1.061 -1.2933 -0.7492  0.4016
 9343TIP3   OH249443   0.525   2.400  12.189 -0.3295  0.5203  0.5662
 9343TIP3    H149444   0.462   2.472  12.201 -1.7693 -0.6287  0.2303
 9343TIP3    H249445   0.498   2.334  12.252 -0.7427 -0.8153 -0.9422
 9344TIP3   OH249446   2.745   2.333   0.183 -0.1178  0.3140 -0.2312
 9344TIP3    H149447   2.662   2.374   0.206  0.0923  0.6193 -0.0168
 9344TIP3    H249448   2.783   2.307   0.267 -1.0657 -1.9546 -0.4283
 9345TIP3   OH249449   2.070   4.951   5.011 -0.3258 -0.1694  0.3647
 9345TIP3    H149450   2.093   4.935   4.919  0.1354 -0.9148  0.6052
 9345TIP3    H249451   2.091   5.044   5.024 -0.1716 -0.1127 -0.2203
 9346TIP3   OH249452   5.317   0.960   5.466 -0.3750  0.3165  0.0804
 9346TIP3    H149453   5.391   0.953   5.525  0.1624  2.4211 -0.2484
 9346TIP3    H249454   5.240   0.952   5.522  0.1051 -0.7273  0.5942
 9347TIP3   OH249455   0.359   2.544  14.772 -0.1617 -0.4153 -0.2128
 9347TIP3    H149456   0.405   2.628  14.775 -0.4572 -0.2767  0.6251
 9347TIP3    H249457   0.298   2.547  14.846  0.6110 -1.8005  0.5240
 9348TIP3   OH249458   5.445   2.770  12.436 -0.6865 -0.1259  0.2024
 9348TIP3    H149459   5.417   2.856  12.466 -1.1123 -0.0658 -0.3617
 9348TIP3    H249460   5.388   2.708  12.481 -1.1908 -0.0466 -0.3246
 9349TIP3   OH249461   1.143   4.719   4.700  0.3550 -0.2874 -0.9165
 9349TIP3    H149462   1.097   4.731   4.783 -0.2374  0.2849 -1.3123
 9349TIP3    H249463   1.140   4.625   4.684  0.9709 -0.4708 -0.0177
 9350TIP3   OH249464   3.086   1.318  11.554  0.2919 -0.0862  0.0611
 9350TIP3    H149465   3.077   1.411  11.534  1.0145 -0.0340 -0.0190
 9350TIP3    H249466   3.090   1.275  11.468 -4.3144 -0.6865 -0.1220
 9351TIP3   OH249467   3.309   0.193   0.059  0.9346  0.1191  0.4598
 9351TIP3    H149468   3.337   0.283   0.071 -0.0885  0.5327 -0.1169
 9351TIP3    H249469   3.330   0.150   0.142  1.8100  0.7672  0.5940
 9352TIP3   OH249470   2.930   6.497   1.016 -0.0891 -0.5534 -0.2202
 9352TIP3    H149471   2.887   6.565   0.964  1.1123 -0.2233 -0.8345
 9352TIP3    H249472   2.934   6.421   0.958  1.6368 -0.0515 -0.8130
 9353TIP3   OH249473   3.427   3.407   3.791 -0.6691 -0.0618  0.3598
 9353TIP3    H149474   3.514   3.427   3.757 -0.9789  0.4721 -0.1417
 9353TIP3    H249475   3.409   3.318   3.762  0.0246 -0.4736  1.1426
 9354TIP3   OH249476   0.561   4.821   5.105  0.5320 -0.0093 -0.2115
 9354TIP3    H149477   0.533   4.731   5.123 -1.5288  0.3683 -1.1830
 9354TIP3    H249478   0.564   4.862   5.191 -0.7354 -0.4481  0.0747
 9355TIP3   OH249479   6.512   2.490   0.120 -0.1903  0.5171  0.1089
 9355TIP3    H149480   6.517   2.429   0.046 -1.4083 -0.4546  0.7783
 9355TIP3    H249481   6.521   2.577   0.081 -3.0790  0.2072 -1.5651
 9356TIP3   OH249482   5.906   4.847   4.149  0.2412  0.6357 -0.5375
 9356TIP3    H149483   5.855   4.907   4.095  0.8089 -1.3522 -3.5406
 9356TIP3    H249484   5.997   4.864   4.124  0.5030 -0.5239 -0.4259
 9357TIP3   OH249485   4.734   4.071   1.654  0.1821  0.3752  0.3066
 9357TIP3    H149486   4.656   4.064   1.598 -0.0723  0.1151  0.6961
 9357TIP3    H249487   4.703   4.049   1.741  1.0284 -1.3356  0.2097
 9358TIP3   OH249488   2.381   2.018   1.089  0.2060  0.2128  0.0828
 9358TIP3    H149489   2.454   1.963   1.061  0.7760 -0.3358  2.4253
 9358TIP3    H249490   2.410   2.108   1.071  1.3227 -0.0170  0.6476
 9359TIP3   OH249491   5.183   2.232  11.386  0.1016  0.3152 -0.0022
 9359TIP3    H149492   5.277   2.244  11.400  0.4982 -3.5742  2.3327
 9359TIP3    H249493   5.174   2.211  11.293  2.2172 -2.7357  0.3493
 9360TIP3   OH249494   0.848   3.407  16.261  0.1144 -0.1554  0.4030
 9360TIP3    H149495   0.883   3.365  16.339 -0.9877 -1.3538  0.2841
 9360TIP3    H249496   0.759   3.433  16.286 -0.6490 -1.5237 -0.7488
 9361TIP3   OH249497   0.659   1.226  14.253  0.9174 -0.3134  0.1720
 9361TIP3    H149498   0.698   1.307  14.285  0.1176  0.6298 -1.1440
 9361TIP3    H249499   0.723   1.190  14.192  0.6589  0.1064 -0.3528
 9362TIP3   OH249500   1.333   5.150  16.267  0.6399  0.0453  0.1086
 9362TIP3    H149501   1.279   5.134  16.189  1.1054  1.2182 -0.4971
 9362TIP3    H249502   1.419   5.173  16.231  0.6275  1.4699  0.9135
 9363TIP3   OH249503   2.305   0.051  14.103 -0.9501 -0.0598  0.3340
 9363TIP3    H149504   2.298   0.076  14.011 -0.1458  2.3853  0.8631
 9363TIP3    H249505   2.243   0.109  14.148 -1.8846 -1.7228  1.3079
 9364TIP3   OH249506   5.090   5.932  15.415 -0.5328  0.3337  0.0815
 9364TIP3    H149507   4.994   5.930  15.422 -0.4848 -1.5514  0.7089
 9364TIP3    H249508   5.108   5.913  15.323 -0.7684 -1.3621  0.3493
 9365TIP3   OH249509   5.912   0.203   2.075  0.5072  0.1286  0.2151
 9365TIP3    H149510   5.876   0.255   2.148 -0.4740 -0.3909  0.1258
 9365TIP3    H249511   5.916   0.264   2.002  1.1104  0.5503  0.5917
 9366TIP3   OH249512   0.530   1.727   5.106  0.0075 -0.0345 -0.0056
 9366TIP3    H149513   0.578   1.645   5.119  1.3576 -0.2153 -4.3273
 9366TIP3    H249514   0.451   1.701   5.059  0.2730  1.0422 -1.1143
 9367TIP3   OH249515   3.185   4.507   5.535 -0.2509 -0.3146  0.4402
 9367TIP3    H149516   3.142   4.519   5.619 -0.9107  2.1083 -0.1570
 9367TIP3    H249517   3.239   4.585   5.524  0.7924 -1.1669 -0.8439
 9368TIP3   OH249518   0.601   2.590   5.631 -0.1946  0.1767 -0.4917
 9368TIP3    H149519   0.693   2.576   5.652 -0.5773  1.3699  2.3838
 9368TIP3    H249520   0.559   2.506   5.647  0.1284  0.0866 -0.1068
 9369TIP3   OH249521   3.653   0.017  10.791  0.9169  0.0955  0.1848
 9369TIP3    H149522   3.685  -0.070  10.815 -1.1699 -0.8196 -0.1571
 9369TIP3    H249523   3.679   0.029  10.700  0.0350 -0.7953 -0.2022
 9370TIP3   OH249524   2.912   1.888  17.065 -0.2482 -0.0417 -0.5780
 9370TIP3    H149525   2.994   1.937  17.062  0.2188 -0.6685  0.8596
 9370TIP3    H249526   2.849   1.944  17.020  0.3736  1.6535  0.5660
 9371TIP3   OH249527   4.926   1.191  12.249  0.5975  0.2466 -0.2222
 9371TIP3    H149528   4.848   1.142  12.224  0.6553  0.6073 -1.1260
 9371TIP3    H249529   4.894   1.279  12.271  0.6016  0.0563  0.5973
 9372TIP3   OH249530   4.549   4.495   2.952 -0.1664  0.5669  0.2170
 9372TIP3    H149531   4.500   4.413   2.954  1.1405 -0.2547 -0.2741
 9372TIP3    H249532   4.577   4.504   2.862  1.6231  0.3669  0.7277
 9373TIP3   OH249533   3.685   3.350   3.743  0.2980  0.3286  0.0725
 9373TIP3    H149534   3.721   3.321   3.660 -0.2235 -1.1607  0.3452
 9373TIP3    H249535   3.688   3.273   3.800 -3.0422  0.1490  0.1953
 9374TIP3   OH249536   6.711   4.901   4.485  0.6082 -0.3851  0.1471
 9374TIP3    H149537   6.689   4.880   4.575  0.2238  1.8162  0.6376
 9374TIP3    H249538   6.649   4.850   4.432 -1.1970  0.5549  1.2621
 9375TIP3   OH249539   5.194   5.754   5.310 -0.1511  0.2516  0.0063
 9375TIP3    H149540   5.173   5.815   5.240 -0.7734 -1.0485 -0.9730
 9375TIP3    H249541   5.203   5.810   5.388 -0.6331  1.5884 -0.8563
 9376TIP3   OH249542   0.296   1.613   1.259  0.7106 -0.1125  0.5138
 9376TIP3    H149543   0.362   1.630   1.326  0.5759  0.2177  0.5622
 9376TIP3    H249544   0.345   1.575   1.186  0.9269 -0.0313  0.6166
 9377TIP3   OH249545   4.578   5.141   1.654 -0.0087  0.3278 -0.2303
 9377TIP3    H149546   4.628   5.060   1.644 -1.1027 -0.3297 -0.5121
 9377TIP3    H249547   4.639   5.201   1.696  1.4037 -0.0685 -1.6276
 9378TIP3   OH249548   5.623   1.771  15.743  0.1601 -0.2161 -0.3800
 9378TIP3    H149549   5.546   1.717  15.760 -0.7797  0.4528 -2.2558
 9378TIP3    H249550   5.691   1.708  15.718 -0.0168 -0.7342  0.3822
 9379TIP3   OH249551   1.828   6.158  12.435 -0.2681 -0.5237  0.2681
 9379TIP3    H149552   1.769   6.232  12.420 -1.8074 -1.6713  0.4390
 9379TIP3    H249553   1.840   6.119  12.349  0.3111 -0.2834  0.2289
 9380TIP3   OH249554   0.655   4.838  13.818  0.6964 -0.2408  0.3644
 9380TIP3    H149555   0.710   4.794  13.883  0.5999 -0.3173  0.3939
 9380TIP3    H249556   0.630   4.921  13.859  1.2562  0.0529  0.1319
 9381TIP3   OH249557   0.010   5.542  16.453 -0.3630 -0.2573 -0.3854
 9381TIP3    H149558   0.104   5.550  16.438 -0.4928  0.2889 -0.9885
 9381TIP3    H249559  -0.020   5.480  16.387 -0.6780  0.8705 -1.3454
 9382TIP3   OH249560   5.233   6.086  16.194  0.5284 -0.5448 -0.0540
 9382TIP3    H149561   5.188   6.164  16.227 -0.2547 -0.6743 -0.8029
 9382TIP3    H249562   5.260   6.039  16.273 -1.3686 -0.8799  0.4403
 9383TIP3   OH249563   6.194   1.357  17.307 -0.0986  0.2623 -0.1761
 9383TIP3    H149564   6.223   1.433  17.256 -0.0673  0.0247 -0.5225
 9383TIP3    H249565   6.157   1.394  17.387  0.4057  0.6086 -0.0985
 9384TIP3   OH249566   6.431   2.863   1.175 -0.7877  0.8479  0.3414
 9384TIP3    H149567   6.343   2.880   1.209 -0.3890  1.9781  0.8586
 9384TIP3    H249568   6.430   2.898   1.086 -1.2261 -0.2652 -0.0958
 9385TIP3   OH249569   3.173   1.862   3.303 -0.1596  0.9491 -0.4164
 9385TIP3    H149570   3.229   1.914   3.245  0.4339  0.7261 -0.0470
 9385TIP3    H249571   3.092   1.850   3.253  0.7554 -0.1923 -1.6692
 9386TIP3   OH249572   0.654   2.753   1.966  0.2301  0.3469 -0.1386
 9386TIP3    H149573   0.601   2.808   1.909 -1.2349  0.3132  1.1099
 9386TIP3    H249574   0.717   2.812   2.007 -0.2637  0.8061 -0.0364
 9387TIP3   OH249575   5.901   1.406  13.835  0.0797 -0.0483 -0.0309
 9387TIP3    H149576   5.870   1.434  13.921  0.2367  0.6288 -0.1886
 9387TIP3    H249577   5.924   1.487  13.790  1.8982 -0.5048  0.0044
 9388TIP3   OH249578   2.805   4.396   1.608  0.1432  0.2263  0.4370
 9388TIP3    H149579   2.819   4.333   1.679  2.4749  1.9877  1.6933
 9388TIP3    H249580   2.720   4.372   1.571 -0.5830 -1.5864  2.9839
 9389TIP3   OH249581   1.023   0.312   0.467  0.2352 -0.0714 -0.7143
 9389TIP3    H149582   0.950   0.259   0.499  0.6463 -0.5165 -0.5175
 9389TIP3    H249583   1.017   0.393   0.518  0.4224 -0.4706 -0.0528
 9390TIP3   OH249584   5.989   4.334   2.318 -0.6672 -0.0479  0.2015
 9390TIP3    H149585   6.068   4.378   2.287  0.5188 -0.2564  2.6421
 9390TIP3    H249586   5.984   4.254   2.266  2.3274 -1.3748  1.6773
 9391TIP3   OH249587   3.811   5.578  11.313 -0.4539  0.0221 -0.0614
 9391TIP3    H149588   3.781   5.667  11.294 -3.0806 -1.1236 -1.9047
 9391TIP3    H249589   3.857   5.551  11.233 -0.7773 -0.6842 -0.0145
 9392TIP3   OH249590   1.918   6.658   3.275  0.9506  0.3337  0.1292
 9392TIP3    H149591   1.883   6.706   3.350  4.1572 -1.0058  2.7294
 9392TIP3    H249592   2.008   6.691   3.266  1.3140 -1.0423 -1.8099
 9393TIP3   OH249593   6.330   4.109   2.898 -0.0224  0.3513  0.2160
 9393TIP3    H149594   6.314   4.066   2.981 -1.5057  0.7390  0.1620
 9393TIP3    H249595   6.340   4.202   2.920 -0.0560  0.4078  0.0018
 9394TIP3   OH249596   3.765   2.396   4.370 -0.2035 -0.2460  0.7235
 9394TIP3    H149597   3.711   2.341   4.314  0.0122 -0.0224  0.2907
 9394TIP3    H249598   3.839   2.341   4.394 -1.7225 -1.3767  3.2356
 9395TIP3   OH249599   3.624   3.204   0.281  0.7998 -0.0261  0.0925
 9395TIP3    H149600   3.564   3.157   0.223  0.5302  1.2756 -0.7331
 9395TIP3    H249601   3.641   3.143   0.352 -0.8388 -0.7574 -0.0807
 9396TIP3   OH249602   5.176   2.468   4.741 -0.1137  0.1786  0.1025
 9396TIP3    H149603   5.159   2.498   4.651 -0.8152  0.4520  0.3221
 9396TIP3    H249604   5.095   2.426   4.768 -0.2331  0.9295  0.9434
 9397TIP3   OH249605   1.509   1.488  13.384 -0.5890 -0.7602  0.3178
 9397TIP3    H149606   1.567   1.415  13.362  2.0297  1.8827 -2.3550
 9397TIP3    H249607   1.455   1.500  13.306 -0.8276  0.3022  0.6338
 9398TIP3   OH249608   0.091   2.997   3.512 -0.3368  0.2052  0.5524
 9398TIP3    H149609   0.082   2.907   3.543  0.8254  0.0483  0.4496
 9398TIP3    H249610   0.005   3.018   3.474 -0.4462 -1.0384  0.0830
 9399TIP3   OH249611   5.678   5.670  13.837 -0.9349 -0.1148  0.5867
 9399TIP3    H149612   5.625   5.590  13.831 -0.9949 -0.2811  2.6131
 9399TIP3    H249613   5.710   5.670  13.927  2.0343  0.2981 -0.3682
 9400TIP3   OH249614   3.122   2.661   6.329 -0.4338 -0.1638  0.3684
 9400TIP3    H149615   3.194   2.615   6.372 -0.2438 -0.8742 -0.6936
 9400TIP3    H249616   3.148   2.753   6.330  0.4679 -0.4130  0.0128
 9401TIP3   OH249617   2.801   4.855   2.693  0.2092  0.2443  0.5840
 9401TIP3    H149618   2.876   4.814   2.651  2.0972  0.6099  3.3857
 9401TIP3    H249619   2.733   4.787   2.692  1.8803 -1.5411  1.4020
 9402TIP3   OH249620   2.880   4.646  15.042  0.2575 -0.0788  0.2748
 9402TIP3    H149621   2.855   4.737  15.058 -1.5817 -0.8172  2.0428
 9402TIP3    H249622   2.884   4.638  14.947  2.7473  2.3730  0.0386
 9403TIP3   OH249623   4.952   6.767   3.086  0.2551  0.5297 -0.0698
 9403TIP3    H149624   5.029   6.711   3.096  0.6112  1.4531  3.9988
 9403TIP3    H249625   4.891   6.737   3.153 -2.1849  1.1211 -1.8885
 9404TIP3   OH249626   4.601   4.852  10.497  0.2805 -0.5608 -0.1096
 9404TIP3    H149627   4.614   4.793  10.572  1.0986  1.3553  1.3380
 9404TIP3    H249628   4.547   4.801  10.437 -2.7404 -1.3463  2.9035
 9405TIP3   OH249629   0.358   0.929   5.231  0.0149  0.1826 -0.0203
 9405TIP3    H149630   0.446   0.965   5.240  0.6633 -0.7690 -2.0420
 9405TIP3    H249631   0.308   1.000   5.190 -0.0131  0.4947  0.5406
 9406TIP3   OH249632   2.266   2.735  11.934 -0.1517  0.0527 -0.4807
 9406TIP3    H149633   2.177   2.710  11.957  0.5344 -0.4817  1.8761
 9406TIP3    H249634   2.289   2.802  11.998  1.5902 -0.7790 -0.1944
 9407TIP3   OH249635   5.057   2.993  13.038 -0.9348  0.0738  0.1979
 9407TIP3    H149636   5.131   3.027  13.088 -1.1758 -0.3568  0.8617
 9407TIP3    H249637   5.005   2.946  13.102 -1.0412 -0.8382 -0.5433
 9408TIP3   OH249638   4.949   0.813   5.113  0.2532 -0.7223  0.2374
 9408TIP3    H149639   4.927   0.898   5.150 -0.6248 -2.0754  3.1720
 9408TIP3    H249640   4.893   0.805   5.036 -0.6214  0.8271  0.6608
 9409TIP3   OH249641   5.251   0.481   5.807  0.0490 -0.3462  0.0092
 9409TIP3    H149642   5.324   0.538   5.780  0.2576 -0.8187 -0.4430
 9409TIP3    H249643   5.240   0.499   5.900  0.7784 -0.2997  0.0970
 9410TIP3   OH249644   1.285   4.691   3.113  0.4392  0.2859  0.0300
 9410TIP3    H149645   1.313   4.600   3.124 -0.8307 -0.6663 -3.2578
 9410TIP3    H249646   1.189   4.688   3.122  0.0084  0.5494 -3.0604
 9411TIP3   OH249647   3.146   1.292  13.603 -0.1282 -0.5627 -0.7511
 9411TIP3    H149648   3.193   1.212  13.626  1.3361  0.9861  2.0732
 9411TIP3    H249649   3.214   1.351  13.571 -1.0709 -0.0852 -1.9702
 9412TIP3   OH249650   1.382   1.219   4.693  0.0454 -0.2983 -0.2086
 9412TIP3    H149651   1.463   1.239   4.645 -0.0690 -0.0779 -0.3096
 9412TIP3    H249652   1.395   1.259   4.779  0.3765 -0.9513  0.0551
 9413TIP3   OH249653   2.452   3.036   5.994  0.6588  0.2308 -0.1733
 9413TIP3    H149654   2.411   2.971   5.938 -1.1697  2.1602 -1.2245
 9413TIP3    H249655   2.402   3.034   6.076 -0.5778  1.4755 -0.8631
 9414TIP3   OH249656   0.296   6.128  15.735 -0.0067 -0.5682  0.5821
 9414TIP3    H149657   0.253   6.043  15.746 -1.7813 -0.1594 -2.3539
 9414TIP3    H249658   0.314   6.135  15.642 -1.9694  3.1761  0.3016
 9415TIP3   OH249659   4.703   6.758   1.703  0.7663 -1.0211 -0.0442
 9415TIP3    H149660   4.718   6.665   1.716 -2.7134 -2.1067 -2.2848
 9415TIP3    H249661   4.703   6.769   1.608 -1.2134  0.7353  0.0904
 9416TIP3   OH249662   3.319   6.457   2.501  0.2471  0.4094  0.0499
 9416TIP3    H149663   3.261   6.412   2.563  1.0367  0.4761  0.8470
 9416TIP3    H249664   3.357   6.529   2.552  0.8305  0.5227 -0.5413
 9417TIP3   OH249665   2.403   6.208  11.638 -0.0014 -0.5811 -0.0310
 9417TIP3    H149666   2.356   6.274  11.689 -0.5558 -0.8886 -0.1488
 9417TIP3    H249667   2.467   6.259  11.587 -1.4774  0.0702 -1.3271
 9418TIP3   OH249668   6.134   6.638   1.870 -0.1440  0.6246  0.4949
 9418TIP3    H149669   6.192   6.649   1.794  1.1352 -0.2596  1.3158
 9418TIP3    H249670   6.192   6.628   1.944 -1.1850 -3.0809  1.0134
 9419TIP3   OH249671   0.500   3.051   3.285  0.3217 -0.1025  0.3783
 9419TIP3    H149672   0.429   3.087   3.338  1.1021  0.0436  1.3556
 9419TIP3    H249673   0.456   3.009   3.211 -0.8299 -0.6155  1.3139
 9420TIP3   OH249674   3.449   2.571  12.841  0.2917  0.2250 -0.1963
 9420TIP3    H149675   3.448   2.525  12.925 -1.6989  1.8944  0.7742
 9420TIP3    H249676   3.379   2.530  12.790 -0.7016  1.3246  0.2346
 9421TIP3   OH249677   5.119   2.183   2.294 -0.0536 -0.2502  0.2645
 9421TIP3    H149678   5.097   2.215   2.381  1.6778  0.2325  0.5789
 9421TIP3    H249679   5.167   2.102   2.309 -0.2990 -0.5030 -0.2791
 9422TIP3   OH249680   6.703   4.623  12.766  0.4549  0.0593 -0.1132
 9422TIP3    H149681   6.658   4.588  12.843  1.2614 -0.4391  0.1506
 9422TIP3    H249682   6.761   4.691  12.801 -0.5357  1.1374 -0.5273
 9423TIP3   OH249683   4.016   0.987   3.026  0.8078 -0.8816  0.0560
 9423TIP3    H149684   3.922   0.992   3.042  0.3979  1.9112 -2.4528
 9423TIP3    H249685   4.029   0.902   2.985 -0.5720 -1.3390  0.5233
 9424TIP3   OH249686   4.538   4.405  11.985 -0.2186 -0.0384 -0.5200
 9424TIP3    H149687   4.625   4.382  12.018 -0.9685  0.1676  1.8129
 9424TIP3    H249688   4.495   4.321  11.971  0.7809 -0.2044 -3.1994
 9425TIP3   OH249689   6.378   0.862   4.171  0.8425  0.0361  0.2444
 9425TIP3    H149690   6.314   0.863   4.243  0.4755 -0.0313 -0.0778
 9425TIP3    H249691   6.371   0.774   4.134  1.0113  0.0814  0.1042
 9426TIP3   OH249692   6.022   4.347   4.705  0.3659  0.0206  0.3887
 9426TIP3    H149693   5.984   4.410   4.766 -1.6485  0.5942 -1.3248
 9426TIP3    H249694   6.051   4.400   4.631  0.4731 -0.8792 -0.2299
 9427TIP3   OH249695   5.164   0.666  14.216  0.3801  0.7703 -0.3036
 9427TIP3    H149696   5.217   0.743  14.197 -0.3161  0.6689 -3.1590
 9427TIP3    H249697   5.081   0.683  14.171 -0.6116 -0.7231  0.8507
 9428TIP3   OH249698   3.431   3.840   1.080 -0.7880 -0.3119 -0.5286
 9428TIP3    H149699   3.386   3.810   1.001 -0.3456 -2.9669  0.1301
 9428TIP3    H249700   3.498   3.774   1.096 -0.1924  0.6872  1.5243
 9429TIP3   OH249701   4.373   2.484   2.735 -0.2423  0.0398  0.0390
 9429TIP3    H149702   4.338   2.572   2.722 -0.9141 -0.3327 -0.7202
 9429TIP3    H249703   4.440   2.495   2.802  0.2154  1.2645 -0.5941
 9430TIP3   OH249704   0.506   4.107  15.633  0.0578  0.0740 -0.2591
 9430TIP3    H149705   0.448   4.121  15.558  0.6361 -0.6414 -0.8713
 9430TIP3    H249706   0.582   4.162  15.615 -0.5034  1.1909  0.6575
 9431TIP3   OH249707   0.319   4.011  11.443 -0.0321 -0.6717  0.3605
 9431TIP3    H149708   0.370   3.933  11.466  0.5639  0.0018  1.4156
 9431TIP3    H249709   0.236   4.000  11.489 -0.0896 -0.8528  0.2143
 9432TIP3   OH249710   2.978   1.974   0.211  0.1765 -0.0710 -0.0045
 9432TIP3    H149711   2.888   1.949   0.188  0.0076  0.9567 -0.5706
 9432TIP3    H249712   2.986   2.064   0.179  0.7319  0.6095  1.9100
 9433TIP3   OH249713   2.780   3.504   6.624  0.3158 -0.4434  0.3809
 9433TIP3    H149714   2.717   3.556   6.673  0.5747  0.5379 -0.3052
 9433TIP3    H249715   2.727   3.442   6.574 -0.1612  0.7879 -0.6809
 9434TIP3   OH249716   2.072   5.180  15.284  0.0783 -0.2854  0.2379
 9434TIP3    H149717   2.038   5.244  15.221  0.5161 -0.8153 -0.5667
 9434TIP3    H249718   2.033   5.097  15.257 -0.7940 -0.3078  1.5146
 9435TIP3   OH249719   2.270   1.023  16.689 -0.1973 -0.4865  0.0355
 9435TIP3    H149720   2.202   1.079  16.726 -1.1576 -0.2601 -1.9496
 9435TIP3    H249721   2.328   1.003  16.763 -0.9612  1.4455  1.2265
 9436TIP3   OH249722   5.831   2.645  14.189  0.4834  0.4071  0.6578
 9436TIP3    H149723   5.816   2.733  14.224 -1.4574 -0.0176  1.0453
 9436TIP3    H249724   5.908   2.613  14.236  1.2516  1.8981  0.4645
 9437TIP3   OH249725   4.071   4.391   0.073 -0.0444  0.2607  0.4707
 9437TIP3    H149726   4.134   4.438   0.126  0.4619  0.3338 -0.1807
 9437TIP3    H249727   4.124   4.336   0.015 -0.6084 -1.9636  1.9234
 9438TIP3   OH249728   2.483   5.536   0.297  0.0831  0.2092  0.3533
 9438TIP3    H149729   2.486   5.632   0.300  0.7282  0.1770  1.1651
 9438TIP3    H249730   2.511   5.509   0.385  0.1259 -0.7250  0.0574
 9439TIP3   OH249731   6.073   1.575   3.876  0.2141  1.0495  0.7193
 9439TIP3    H149732   6.062   1.523   3.796  0.4891  2.5109 -0.3111
 9439TIP3    H249733   6.132   1.523   3.931 -2.4246 -1.4728  1.3885
 9440TIP3   OH249734   5.982   2.651  14.861  1.2234  0.6162 -0.0321
 9440TIP3    H149735   5.921   2.601  14.807  1.8652  2.8817 -3.1501
 9440TIP3    H249736   6.021   2.587  14.920 -1.0493 -1.6667 -0.8487
 9441TIP3   OH249737   2.742   6.472   1.789  0.1860 -0.4144 -0.2907
 9441TIP3    H149738   2.825   6.488   1.833  0.4243  0.2714 -0.9618
 9441TIP3    H249739   2.685   6.543   1.817  0.5915  0.4986 -1.6739
 9442TIP3   OH249740   3.270   5.957   5.017 -0.1615 -0.1602  0.1613
 9442TIP3    H149741   3.353   5.991   4.984 -0.2624 -0.6908 -0.6737
 9442TIP3    H249742   3.208   5.975   4.946 -0.5486 -0.6691  0.3687
 9443TIP3   OH249743   0.064   2.557  11.868  0.1830 -0.6453  0.6330
 9443TIP3    H149744   0.134   2.493  11.853  0.7267  0.2042 -0.6423
 9443TIP3    H249745   0.104   2.642  11.848 -1.4128 -0.2172 -0.9811
 9444TIP3   OH249746   3.750   6.037  17.110 -0.3686 -0.0921 -0.0552
 9444TIP3    H149747   3.772   5.975  17.180  2.5400 -0.8900 -1.5183
 9444TIP3    H249748   3.829   6.088  17.098 -2.4143  3.5165  0.5361
 9445TIP3   OH249749   2.567   6.133  15.453  0.3917  0.5632 -0.6444
 9445TIP3    H149750   2.518   6.170  15.526  1.6703 -1.1205  1.1667
 9445TIP3    H249751   2.628   6.202  15.428  0.3420  0.9617  0.2866
 9446TIP3   OH249752   1.851   1.643   4.654 -0.0019 -0.1912  0.0138
 9446TIP3    H149753   1.874   1.701   4.581 -0.7457 -0.3356 -0.3510
 9446TIP3    H249754   1.808   1.700   4.718  0.1947 -0.1529  0.1101
 9447TIP3   OH249755   4.637   1.335  17.041 -0.4651  0.5245  0.0254
 9447TIP3    H149756   4.724   1.295  17.036 -1.6048 -2.0068 -3.0226
 9447TIP3    H249757   4.651   1.426  17.015  1.1412 -0.1886 -1.8815
 9448TIP3   OH249758   0.120   1.138   6.774  0.0810 -0.8258 -0.3325
 9448TIP3    H149759   0.200   1.130   6.824 -0.5777  2.2315  1.4748
 9448TIP3    H249760   0.060   1.073   6.812  0.2488  0.0648  1.5182
 9449TIP3   OH249761   5.559   0.610   4.597 -0.2289  0.4339 -0.2373
 9449TIP3    H149762   5.489   0.587   4.536 -0.0966 -0.3911 -0.0827
 9449TIP3    H249763   5.524   0.683   4.648 -0.2886  1.2463 -1.3908
 9450TIP3   OH249764   3.690   6.628   0.349  0.1676  0.4746  0.9350
 9450TIP3    H149765   3.730   6.541   0.341  0.3778  0.6522 -0.1675
 9450TIP3    H249766   3.762   6.689   0.335 -0.3377  0.7985 -0.4562
 9451TIP3   OH249767   0.979   1.978  13.786 -0.0034  0.5759  0.0438
 9451TIP3    H149768   0.946   1.982  13.697  0.3199 -0.7749 -0.1612
 9451TIP3    H249769   1.007   2.067  13.806 -1.3541  1.1993 -0.6931
 9452TIP3   OH249770   6.768   0.917   1.399  0.4776  0.4294  0.0098
 9452TIP3    H149771   6.710   0.842   1.386  1.0438 -0.1695  0.8505
 9452TIP3    H249772   6.797   0.910   1.490  0.1995  1.9171  0.2353
 9453TIP3   OH249773   3.499   0.283   4.797 -1.2599 -0.0608  0.8470
 9453TIP3    H149774   3.417   0.236   4.783 -1.1607  0.3710 -1.6080
 9453TIP3    H249775   3.556   0.254   4.726  0.0207  1.1354  1.3472
 9454TIP3   OH249776   4.070   6.563   5.114  0.1377 -0.0996  0.5290
 9454TIP3    H149777   4.140   6.609   5.160  0.8265 -0.2308 -0.3543
 9454TIP3    H249778   4.020   6.519   5.183  1.3195 -0.5353  1.1387
 9455TIP3   OH249779   6.327   4.781   3.135 -0.1330 -0.1537  0.0443
 9455TIP3    H149780   6.401   4.820   3.090 -1.0603  1.4233 -0.1971
 9455TIP3    H249781   6.258   4.848   3.130 -1.6147 -1.6149  0.1349
 9456TIP3   OH249782   5.632   3.775   0.032  0.0818 -0.2695  0.5037
 9456TIP3    H149783   5.680   3.844   0.078  1.6822 -1.3866  0.5651
 9456TIP3    H249784   5.660   3.782  -0.059 -0.8118  0.0194  0.2375
 9457TIP3   OH249785   1.759   2.455  16.449 -0.4065 -0.3372 -0.2689
 9457TIP3    H149786   1.717   2.497  16.524  1.2007 -0.7318  0.9104
 9457TIP3    H249787   1.850   2.485  16.453  0.1205 -1.7416 -1.0044
 9458TIP3   OH249788   5.270   5.336   5.108  0.3097  0.0654  0.4467
 9458TIP3    H149789   5.269   5.259   5.165  0.8602  0.2025  0.6504
 9458TIP3    H249790   5.337   5.316   5.042 -0.5910 -0.2516 -0.3895
 9459TIP3   OH249791   2.558   3.020  11.309  0.3899 -0.1452 -0.6400
 9459TIP3    H149792   2.584   2.978  11.391 -0.2201  1.4167  0.4089
 9459TIP3    H249793   2.637   3.020  11.255  1.0016 -0.5484  0.2447
 9460TIP3   OH249794   0.271   5.338  11.998 -0.1158  0.4947 -0.3233
 9460TIP3    H149795   0.326   5.346  12.076  0.3738  0.4988 -0.6659
 9460TIP3    H249796   0.321   5.281  11.939 -0.9022 -0.2786 -0.2654
 9461TIP3   OH249797   6.673   5.359  17.009  0.2756 -0.4327 -0.0540
 9461TIP3    H149798   6.683   5.272  16.969 -0.5754 -0.6028  0.0935
 9461TIP3    H249799   6.652   5.341  17.100 -2.5963 -0.1766 -0.5618
 9462TIP3   OH249800   0.580   3.200  16.227 -0.1389  0.1467 -0.1869
 9462TIP3    H149801   0.613   3.165  16.310  2.5493  1.7198 -0.4491
 9462TIP3    H249802   0.507   3.257  16.252 -1.2931 -1.6549  0.7224
 9463TIP3   OH249803   3.432   5.552  13.976 -0.3380  0.1183 -0.0690
 9463TIP3    H149804   3.378   5.624  13.943  0.4708  0.7218 -0.1115
 9463TIP3    H249805   3.519   5.570  13.940 -0.1864 -1.0341 -0.3008
 9464TIP3   OH249806   5.449   0.263   5.809 -0.1537  0.3949 -0.5616
 9464TIP3    H149807   5.533   0.303   5.830  0.2267 -1.4640  1.9441
 9464TIP3    H249808   5.384   0.331   5.829  0.6336  1.3818 -1.2230
 9465TIP3   OH249809   3.130   2.718   1.645  0.3234 -0.3432 -0.1927
 9465TIP3    H149810   3.205   2.666   1.617  0.7905  0.3296 -0.2240
 9465TIP3    H249811   3.167   2.785   1.702 -0.2531  0.0134 -0.2259
 9466TIP3   OH249812   4.162   5.386  12.952 -0.2373 -0.1838  0.2534
 9466TIP3    H149813   4.075   5.398  12.914 -0.2167  0.3777  0.3710
 9466TIP3    H249814   4.147   5.335  13.031 -0.3394 -0.9209 -0.2265
 9467TIP3   OH249815   6.500   2.817  13.261 -0.1461 -0.0221  0.2084
 9467TIP3    H149816   6.453   2.764  13.326 -1.0261  0.8246  0.2831
 9467TIP3    H249817   6.483   2.774  13.178  0.2457 -0.6008  0.4162
 9468TIP3   OH249818   3.079   1.374   1.697  0.0529 -0.3766  0.0665
 9468TIP3    H149819   3.117   1.458   1.671  1.3551 -1.0344 -0.2632
 9468TIP3    H249820   3.092   1.370   1.792 -1.2866  0.3809  0.3081
 9469TIP3   OH249821   1.217   5.939  14.521 -0.3741  0.3534 -0.5555
 9469TIP3    H149822   1.206   5.918  14.428 -2.5931 -2.7580  0.2083
 9469TIP3    H249823   1.300   5.898  14.545 -0.8670 -0.8164 -0.7671
 9470TIP3   OH249824   5.747   3.797   3.150 -0.7161 -0.3896 -0.9720
 9470TIP3    H149825   5.839   3.802   3.176 -0.6050  0.6375 -1.5018
 9470TIP3    H249826   5.707   3.740   3.216  0.0898  0.0117 -0.0982
 9471TIP3   OH249827   3.313   2.993   3.425 -0.2057 -0.0077  0.6154
 9471TIP3    H149828   3.348   2.904   3.423 -0.5748 -0.1585  0.6768
 9471TIP3    H249829   3.260   2.999   3.345 -1.2359 -0.2908  1.2529
 9472TIP3   OH249830   3.410   3.450   2.113  0.9813 -0.2438  0.2353
 9472TIP3    H149831   3.329   3.438   2.063  0.5123 -0.4473  1.0300
 9472TIP3    H249832   3.432   3.543   2.102  0.4816 -0.1238  0.2672
 9473TIP3   OH249833   3.892   4.590  13.853 -0.0810 -0.2201  0.2031
 9473TIP3    H149834   3.962   4.556  13.909 -0.5918 -0.1633  0.9012
 9473TIP3    H249835   3.815   4.593  13.911 -1.4113 -2.9571 -1.2230
 9474TIP3   OH249836   0.367   1.144   2.138  0.1651 -0.6088  0.1027
 9474TIP3    H149837   0.436   1.208   2.156  1.4049 -1.6228 -0.8330
 9474TIP3    H249838   0.343   1.110   2.224  0.9166 -0.3137  0.4389
 9475TIP3   OH249839   4.458   4.244  10.832  0.2539 -0.4513 -0.2870
 9475TIP3    H149840   4.494   4.164  10.868  1.5405  0.3201  0.1809
 9475TIP3    H249841   4.453   4.304  10.906  0.6840  0.3769 -0.9178
 9476TIP3   OH249842   3.686   1.586   5.094  0.0536 -0.4198 -0.2904
 9476TIP3    H149843   3.768   1.538   5.091  0.7008  0.6713 -0.7371
 9476TIP3    H249844   3.656   1.589   5.003 -0.9065 -1.4924 -0.0285
 9477TIP3   OH249845   4.682   2.080  13.861 -0.3287 -0.1625 -0.1761
 9477TIP3    H149846   4.750   2.016  13.837 -1.2566 -1.0164 -0.6441
 9477TIP3    H249847   4.618   2.074  13.790 -0.4292  1.3382 -0.2448
 9478TIP3   OH249848   6.178   2.943   5.672  0.0335 -0.0753 -0.7645
 9478TIP3    H149849   6.094   2.929   5.628  0.8015 -3.7206 -1.3987
 9478TIP3    H249850   6.157   2.940   5.765 -0.6342  0.0443 -0.9045
 9479TIP3   OH249851   5.469   4.906  13.536  0.0985 -0.4175 -0.0689
 9479TIP3    H149852   5.554   4.948  13.551  0.7832 -2.1906  1.3068
 9479TIP3    H249853   5.463   4.839  13.603 -1.3332 -1.9474 -1.6250
 9480TIP3   OH249854   5.023   1.519  11.936 -0.1122  0.0059  0.2645
 9480TIP3    H149855   5.098   1.473  11.973 -1.0426 -0.3751  1.7342
 9480TIP3    H249856   5.057   1.605  11.911  1.1008 -0.6222 -0.3317
 9481TIP3   OH249857   0.940   3.180   1.983 -0.2646  0.4279 -0.3717
 9481TIP3    H149858   0.973   3.167   1.894 -0.5357  0.2057 -0.4437
 9481TIP3    H249859   0.879   3.253   1.975  0.3184  0.9415 -0.2088
 9482TIP3   OH249860   4.352   1.954   4.629  0.3931  0.3152 -0.5185
 9482TIP3    H149861   4.262   1.931   4.650  0.4369  0.8041  0.2059
 9482TIP3    H249862   4.349   1.982   4.537  0.1375 -1.4457 -1.0972
 9483TIP3   OH249863   1.373   3.678  10.199  0.0212 -0.4606  0.3137
 9483TIP3    H149864   1.279   3.660  10.202  0.2399 -1.8490 -0.3775
 9483TIP3    H249865   1.381   3.769  10.228 -1.4037 -0.7119  1.6203
 9484TIP3   OH249866   2.489   4.327   3.510 -0.4137 -0.0956  0.5237
 9484TIP3    H149867   2.481   4.353   3.602 -0.5101 -1.4753  0.9355
 9484TIP3    H249868   2.579   4.296   3.502 -0.4030  0.0324  0.1593
 9485TIP3   OH249869   1.427   5.865  16.531 -0.4053 -0.1062 -0.7415
 9485TIP3    H149870   1.493   5.795  16.533 -0.0430  0.2402 -0.4540
 9485TIP3    H249871   1.366   5.838  16.463 -0.1464 -0.5949 -0.7867
 9486TIP3   OH249872   1.493   0.402  16.574  0.2103  0.3171 -0.4733
 9486TIP3    H149873   1.486   0.310  16.598 -0.6282  0.2888 -0.7823
 9486TIP3    H249874   1.408   0.423  16.536  0.9417  0.7769 -1.9389
 9487TIP3   OH249875   3.697   2.077  11.959  0.4523  0.4556  0.0976
 9487TIP3    H149876   3.619   2.031  11.928  0.8348 -1.6300  1.9533
 9487TIP3    H249877   3.666   2.128  12.034  0.4678  1.4892 -0.5813
 9488TIP3   OH249878   5.166   4.107  11.752 -0.4648 -0.0452 -0.5396
 9488TIP3    H149879   5.096   4.055  11.790 -1.1090  1.6633  0.7445
 9488TIP3    H249880   5.246   4.068  11.785 -0.8731 -0.8791 -0.5054
 9489TIP3   OH249881   1.191   0.244  15.600 -0.0387  0.4421 -0.0118
 9489TIP3    H149882   1.282   0.242  15.570  0.1242 -1.8554  0.4448
 9489TIP3    H249883   1.186   0.177  15.668 -1.9730  0.8447  0.3181
 9490TIP3   OH249884   0.339   1.923   6.827 -0.0453 -0.2504 -0.7642
 9490TIP3    H149885   0.384   1.979   6.764 -1.2358 -1.4544 -2.7526
 9490TIP3    H249886   0.250   1.957   6.831  0.1152  0.1090  0.7093
 9491TIP3   OH249887   3.724   2.558   3.120  0.4289 -0.5149 -0.7081
 9491TIP3    H149888   3.667   2.616   3.169 -1.4574 -3.4389  0.8689
 9491TIP3    H249889   3.807   2.605   3.113 -0.8582  2.1574  0.6936
 9492TIP3   OH249890   6.673   1.512   3.650 -0.3698  0.6490 -0.1985
 9492TIP3    H149891   6.753   1.557   3.622  0.5412 -1.6320 -1.4786
 9492TIP3    H249892   6.669   1.526   3.745  0.7587  1.9571 -0.3120
 9493TIP3   OH249893   1.287   1.765  13.428  0.5891  0.4987  0.3575
 9493TIP3    H149894   1.217   1.775  13.494 -0.8816  2.6673 -1.3773
 9493TIP3    H249895   1.363   1.806  13.468 -0.8976  4.0092  0.0018
 9494TIP3   OH249896   1.792   4.355  12.839 -0.6235  0.5947  0.0105
 9494TIP3    H149897   1.757   4.328  12.755  2.0240  0.1048 -1.0468
 9494TIP3    H249898   1.845   4.433  12.819 -0.1814  0.6410  1.2620
 9495TIP3   OH249899   0.348   6.390   0.181 -0.4824 -0.5708 -0.5984
 9495TIP3    H149900   0.320   6.469   0.134 -0.3419  0.3091  0.7280
 9495TIP3    H249901   0.270   6.361   0.228 -0.4396 -1.0021 -0.7970
 9496TIP3   OH249902   1.568   6.330   4.834  0.1888  0.0242  0.1507
 9496TIP3    H149903   1.646   6.287   4.800  0.0650 -0.0651 -0.0204
 9496TIP3    H249904   1.496   6.273   4.810 -0.1915  1.1767 -1.6873
 9497TIP3   OH249905   6.458   5.465  12.568  0.4669 -0.0798 -0.0262
 9497TIP3    H149906   6.397   5.537  12.583  0.4817 -0.1635  0.4606
 9497TIP3    H249907   6.484   5.474  12.477  0.6490  0.6761  0.0925
 9498TIP3   OH249908   1.013   4.581  16.638 -0.1838  0.1155  0.0769
 9498TIP3    H149909   1.032   4.674  16.639 -0.5782  0.2447 -1.2802
 9498TIP3    H249910   0.948   4.571  16.568 -1.3614 -0.9656  1.2803
 9499TIP3   OH249911   5.192   0.127   2.192  0.4555  0.0462  0.3988
 9499TIP3    H149912   5.180   0.222   2.191  1.6762  0.2087 -0.1163
 9499TIP3    H249913   5.117   0.095   2.241  1.0131  1.4237  2.2776
 9500TIP3   OH249914   3.152   0.547   0.526 -0.2234  0.0538  0.0569
 9500TIP3    H149915   3.066   0.588   0.518 -0.3243 -0.4760 -2.5061
 9500TIP3    H249916   3.145   0.467   0.474  1.1831 -1.1788  1.6395
 9501TIP3   OH249917   5.965   6.010  16.829 -0.7979 -0.0413  0.3269
 9501TIP3    H149918   6.056   5.983  16.843 -0.4369  0.9297 -0.0619
 9501TIP3    H249919   5.929   5.943  16.771  0.0986  0.3244 -0.6849
 9502TIP3   OH249920   5.401   1.470  17.006 -0.0013 -0.4482 -0.2543
 9502TIP3    H149921   5.330   1.408  16.994 -1.4034  0.5158  2.3654
 9502TIP3    H249922   5.360   1.548  17.043  2.2823  0.4703  0.5492
 9503TIP3   OH249923   6.092   6.208   3.318  0.1950 -0.0323  0.1197
 9503TIP3    H149924   6.095   6.303   3.309 -0.6109 -0.0774 -0.8628
 9503TIP3    H249925   6.083   6.176   3.228  1.0394 -1.0701  0.3828
 9504TIP3   OH249926   2.569   6.777  12.062 -0.3454  0.2137 -0.2017
 9504TIP3    H149927   2.479   6.808  12.075 -1.2703 -1.1651 -2.6856
 9504TIP3    H249928   2.618   6.814  12.136 -3.0805  0.3638  1.6830
 9505TIP3   OH249929   5.234   5.037   4.234 -0.1458 -0.3024  0.4178
 9505TIP3    H149930   5.222   5.104   4.168 -0.2917  0.3804  1.1212
 9505TIP3    H249931   5.287   4.970   4.191  0.5484  0.5609 -0.1084
 9506TIP3   OH249932   0.269   2.817  17.146  0.0650 -0.1803 -0.1938
 9506TIP3    H149933   0.209   2.882  17.183 -0.3344 -1.9964  2.6180
 9506TIP3    H249934   0.220   2.778  17.073 -0.6847  0.9102 -0.2903
 9507TIP3   OH249935   0.362   1.512  16.978  0.0257  0.5239  0.1594
 9507TIP3    H149936   0.331   1.602  16.984  0.0576  0.4313  2.3200
 9507TIP3    H249937   0.429   1.505  17.046 -0.9237 -1.4739  0.9711
 9508TIP3   OH249938   0.125   1.219  11.701 -0.7379  0.2386 -0.1558
 9508TIP3    H149939   0.216   1.191  11.711 -0.0854  1.6589 -1.6053
 9508TIP3    H249940   0.094   1.230  11.790  0.6680  0.1835  0.3710
 9509TIP3   OH249941   0.263   3.997  10.954 -0.3061  0.4206 -0.1165
 9509TIP3    H149942   0.288   4.024  11.043 -2.7485  0.6460  0.5559
 9509TIP3    H249943   0.221   4.074  10.916 -1.1661 -0.3183 -0.6964
 9510TIP3   OH249944   3.272   5.143  11.902  0.0117 -0.4796 -0.0042
 9510TIP3    H149945   3.351   5.153  11.955  1.1691  0.9438 -1.8540
 9510TIP3    H249946   3.304   5.112  11.817 -1.2940  0.9248 -1.0526
 9511TIP3   OH249947   4.368   0.313   0.187  0.0940 -0.2898 -0.6794
 9511TIP3    H149948   4.435   0.347   0.127 -0.3696  1.1433 -0.4295
 9511TIP3    H249949   4.316   0.253   0.133  0.9235 -0.5989 -1.1546
 9512TIP3   OH249950   3.468   4.994   5.985 -0.3145 -0.0158  0.3770
 9512TIP3    H149951   3.535   5.023   6.046 -0.0619 -1.5579  0.8854
 9512TIP3    H249952   3.508   4.920   5.939 -0.8098  0.5869 -1.0482
 9513TIP3   OH249953   2.788   5.229   3.558 -0.4014 -0.2796 -0.7049
 9513TIP3    H149954   2.861   5.243   3.618 -0.9931 -0.1925  0.0068
 9513TIP3    H249955   2.809   5.148   3.512  0.1145 -0.2828 -0.4611
 9514TIP3   OH249956   3.594   3.489  16.966  0.3862  0.3282  0.3124
 9514TIP3    H149957   3.532   3.428  16.926  0.9890 -0.0872  0.0057
 9514TIP3    H249958   3.677   3.472  16.921  0.9599  0.2169  1.3810
 9515TIP3   OH249959   1.083   6.303  13.992  0.1548  0.0652  0.1259
 9515TIP3    H149960   1.054   6.353  13.915  0.4315 -1.2914 -0.8810
 9515TIP3    H249961   1.009   6.308  14.052  0.1605  1.6536  0.0600
 9516TIP3   OH249962   0.303   5.130  15.850  0.3130 -0.1210  0.0865
 9516TIP3    H149963   0.286   5.132  15.944  0.1492 -0.8237  0.0765
 9516TIP3    H249964   0.216   5.128  15.810  0.3692 -1.3959 -0.0270
 9517TIP3   OH249965   3.762   0.751  16.303 -0.2597 -0.1036  0.1103
 9517TIP3    H149966   3.724   0.732  16.218  1.0878  0.0841 -0.5624
 9517TIP3    H249967   3.727   0.837  16.327 -2.0735 -0.9253  0.6330
 9518TIP3   OH249968   6.063   2.322  15.981  0.1206  0.8735 -0.2686
 9518TIP3    H149969   6.112   2.241  15.972 -0.5066  0.3159  1.0173
 9518TIP3    H249970   6.044   2.329  16.075 -1.1859  1.6891 -0.5566
 9519TIP3   OH249971   1.645   3.677  16.483 -0.3587 -0.8121 -0.1114
 9519TIP3    H149972   1.550   3.680  16.492 -0.2636 -0.9012  0.9805
 9519TIP3    H249973   1.670   3.589  16.512 -0.1577 -1.7381 -2.8059
 9520TIP3   OH249974   5.326   2.683   0.467  0.0120  0.0375  0.2658
 9520TIP3    H149975   5.268   2.758   0.455 -0.6242 -0.4857  0.0297
 9520TIP3    H249976   5.386   2.711   0.536 -0.0640  0.8484  0.0245
 9521TIP3   OH249977   4.922   6.721   1.094  0.0433  0.1221  0.2276
 9521TIP3    H149978   4.984   6.783   1.132 -0.3252 -0.5378  1.9810
 9521TIP3    H249979   4.837   6.747   1.129 -0.0723 -1.5723  1.3365
 9522TIP3   OH249980   4.049   1.540  12.550 -0.0138 -0.3172 -0.3743
 9522TIP3    H149981   4.006   1.623  12.528  1.0654  0.2501 -0.4057
 9522TIP3    H249982   3.999   1.474  12.502 -1.2046  0.2413  0.0385
 9523TIP3   OH249983   0.868   4.196   6.151 -0.1571 -0.1856  0.4211
 9523TIP3    H149984   0.843   4.160   6.236  0.5478  1.8572  1.5619
 9523TIP3    H249985   0.874   4.290   6.166  0.0517  0.2242 -1.8997
 9524TIP3   OH249986   2.468   4.654   5.750  0.3343 -0.2736 -0.0681
 9524TIP3    H149987   2.488   4.682   5.839  1.5347  0.0055 -0.4033
 9524TIP3    H249988   2.544   4.681   5.699 -0.9450  0.8160 -1.4542
 9525TIP3   OH249989   6.655   1.352   2.682  0.2400 -0.4841 -0.1545
 9525TIP3    H149990   6.677   1.432   2.634 -0.8592 -0.0246  0.0757
 9525TIP3    H249991   6.582   1.315   2.632 -0.4961 -0.3392  0.7960
 9526TIP3   OH249992   1.365   1.678  16.309 -0.4124 -0.2123 -0.1470
 9526TIP3    H149993   1.296   1.673  16.243 -1.0651 -2.7537  0.6295
 9526TIP3    H249994   1.444   1.648  16.264 -0.0107  1.5633 -0.7078
 9527TIP3   OH249995   1.007   5.786  14.251 -0.2281  0.5728  0.1274
 9527TIP3    H149996   1.102   5.797  14.247 -0.3640  2.2046  0.3993
 9527TIP3    H249997   0.983   5.749  14.166  0.8235 -1.7733  0.7721
 9528TIP3   OH249998   6.028   2.019  14.194 -0.0534 -0.5582 -0.6947
 9528TIP3    H149999   6.120   2.025  14.169 -0.3267  3.1000 -1.3763
 9528TIP3    H250000   6.027   2.042  14.287 -0.4593  3.2959 -1.5092
 9529TIP3   OH250001   1.022   0.866   3.593  0.0479 -0.1733  0.1769
 9529TIP3    H150002   1.093   0.843   3.653  1.9019  1.4122 -1.2763
 9529TIP3    H250003   1.002   0.958   3.613 -1.2629 -0.4454  0.2107
 9530TIP3   OH250004   1.435   6.230  12.348  0.5120 -0.1421  0.1774
 9530TIP3    H150005   1.416   6.316  12.309  1.3865  0.6736  1.4464
 9530TIP3    H250006   1.494   6.250  12.421 -1.5352 -1.5120  2.3190
 9531TIP3   OH250007   1.047   6.101   0.164  0.1067  0.0776  0.2178
 9531TIP3    H150008   0.975   6.125   0.222 -0.6381  0.3036 -0.7888
 9531TIP3    H250009   1.116   6.070   0.224  0.1710  2.2903  1.3939
 9532TIP3   OH250010   1.156   3.970   5.806  0.0741  0.2055  0.1133
 9532TIP3    H150011   1.135   3.957   5.898  1.5689 -0.1904  0.4382
 9532TIP3    H250012   1.252   3.962   5.803  0.0882  0.7361 -1.3876
 9533TIP3   OH250013   4.474   6.601  14.450  0.2210  0.0670  0.2693
 9533TIP3    H150014   4.553   6.643  14.483 -0.2400  0.1740  1.2824
 9533TIP3    H250015   4.472   6.622  14.356  0.2864  1.8714  0.6300
 9534TIP3   OH250016   4.520   4.900  16.086  0.0910 -0.3095  0.3440
 9534TIP3    H150017   4.581   4.861  16.023 -0.1801  1.1514 -0.8936
 9534TIP3    H250018   4.450   4.835  16.095  1.1984 -1.4776  0.8500
 9535TIP3   OH250019   6.085   4.896   0.485  0.4060 -0.0022  0.1372
 9535TIP3    H150020   6.078   4.803   0.505  0.7028  0.1254  0.8529
 9535TIP3    H250021   6.007   4.915   0.433 -0.5470 -0.2852  1.4135
 9536TIP3   OH250022   2.533   2.081  11.057  0.0980 -0.4500  0.1170
 9536TIP3    H150023   2.540   2.070  11.152  1.2367 -1.3046 -0.0463
 9536TIP3    H250024   2.506   1.995  11.025 -0.6423 -0.0691 -0.3172
 9537TIP3   OH250025   3.062   1.456   1.035 -0.0901 -0.5052 -0.1080
 9537TIP3    H150026   3.019   1.466   0.950 -1.6559  0.0291  0.6936
 9537TIP3    H250027   3.154   1.477   1.019 -0.3495 -0.4509 -1.6656
 9538TIP3   OH250028   5.533   4.650   3.026 -0.2505  0.1836 -0.0133
 9538TIP3    H150029   5.571   4.563   3.032 -4.2213 -1.6711  3.5895
 9538TIP3    H250030   5.476   4.647   2.950 -0.9710 -0.6885  0.5530
 9539TIP3   OH250031   4.961   1.362  14.311 -0.2835 -0.4095 -0.3839
 9539TIP3    H150032   4.927   1.384  14.398  2.5447  0.4100  0.6087
 9539TIP3    H250033   4.946   1.441  14.259  0.1615 -0.0427  0.0468
 9540TIP3   OH250034   0.476   2.147  11.508  0.5233  0.2112 -0.3221
 9540TIP3    H150035   0.547   2.113  11.562  0.1197 -0.2677 -0.0839
 9540TIP3    H250036   0.495   2.116  11.420  1.2967  1.1707 -0.5084
 9541TIP3   OH250037   4.324   5.732  15.439  0.1516  0.1516 -0.2260
 9541TIP3    H150038   4.390   5.777  15.492  2.1914 -1.0450 -1.6311
 9541TIP3    H250039   4.368   5.655  15.405 -2.5288 -1.7104  0.1711
 9542TIP3   OH250040   5.207   2.237  12.649  0.0723 -0.1230 -0.2053
 9542TIP3    H150041   5.280   2.282  12.607 -2.6798  2.0729 -3.1702
 9542TIP3    H250042   5.188   2.164  12.589 -0.3103 -0.5328  0.4115
 9543TIP3   OH250043   2.673   3.446   6.148 -0.4611 -0.2671  0.1687
 9543TIP3    H150044   2.669   3.383   6.075 -0.1665  1.4655 -1.4175
 9543TIP3    H250045   2.591   3.495   6.141  0.8800  1.9598 -0.9952
 9544TIP3   OH250046   3.329   1.992   3.118 -0.0260 -0.3191 -0.0717
 9544TIP3    H150047   3.265   1.994   3.047  0.3821 -1.2902 -0.4852
 9544TIP3    H250048   3.349   2.084   3.134 -0.0720 -0.0806 -1.2725
 9545TIP3   OH250049   0.133   2.195   5.093 -0.5364 -0.4110 -0.6346
 9545TIP3    H150050   0.217   2.241   5.095 -0.3955 -0.6793  0.5591
 9545TIP3    H250051   0.156   2.102   5.096 -0.8688 -0.4721  0.5686
 9546TIP3   OH250052   5.270   6.377  11.757  0.2285 -0.5245  0.2345
 9546TIP3    H150053   5.350   6.397  11.709  1.0949  1.0225  2.2159
 9546TIP3    H250054   5.279   6.286  11.783  0.1147 -1.1465 -1.7411
 9547TIP3   OH250055   0.763   3.731   0.512  0.1592  0.4622  0.2092
 9547TIP3    H150056   0.717   3.807   0.478  0.5155  1.0648  1.0348
 9547TIP3    H250057   0.835   3.767   0.564 -0.0326 -0.4084  1.1296
 9548TIP3   OH250058   2.481   2.282  13.632  0.8140  0.6520 -0.1697
 9548TIP3    H150059   2.417   2.353  13.641 -0.3755 -0.4393  0.2062
 9548TIP3    H250060   2.538   2.291  13.708  1.7291  2.1957 -0.9784
 9549TIP3   OH250061   2.054   0.331  11.845 -0.5211  0.1238 -0.2829
 9549TIP3    H150062   2.142   0.320  11.881 -0.9726 -1.5867  0.3998
 9549TIP3    H250063   1.997   0.332  11.922 -1.1678  0.4136 -0.7573
 9550TIP3   OH250064   4.235   3.820   2.219 -0.1725  0.3124 -0.7017
 9550TIP3    H150065   4.294   3.889   2.248 -0.7502  0.5533 -0.0584
 9550TIP3    H250066   4.231   3.760   2.293  2.0772 -1.6546 -2.0287
 9551TIP3   OH250067   5.957   4.300  13.663 -0.2100 -0.2727 -0.6159
 9551TIP3    H150068   5.863   4.287  13.647 -0.0111 -0.9568 -1.3050
 9551TIP3    H250069   5.961   4.351  13.743 -1.1518 -0.9732 -0.1062
 9552TIP3   OH250070   4.933   5.626   4.657  0.0325 -0.0819  0.7518
 9552TIP3    H150071   4.868   5.622   4.726  0.9883 -0.6673  1.6411
 9552TIP3    H250072   5.017   5.617   4.702  0.7374  0.6364 -0.3678
 9553TIP3   OH250073   2.563   3.174  14.944 -0.0001 -0.1885 -0.2342
 9553TIP3    H150074   2.597   3.245  14.997 -1.8383  1.3022 -0.9454
 9553TIP3    H250075   2.468   3.187  14.944 -0.3634 -2.3704 -0.7785
 9554TIP3   OH250076   4.104   2.822  15.105  0.3147 -0.0318 -0.2082
 9554TIP3    H150077   4.067   2.811  15.193 -0.5674 -0.3113 -0.6112
 9554TIP3    H250078   4.197   2.798  15.116 -0.1804 -1.9395  0.2582
 9555TIP3   OH250079   1.140   3.518   1.612  0.3661 -0.0625 -0.2492
 9555TIP3    H150080   1.224   3.558   1.589  1.1265 -1.5918 -0.2758
 9555TIP3    H250081   1.092   3.513   1.529  0.2831  0.7030 -0.2549
 9556TIP3   OH250082   1.129   1.023   1.231 -0.1321 -0.1480  0.0615
 9556TIP3    H150083   1.200   1.033   1.168  1.0295 -0.5370  1.2600
 9556TIP3    H250084   1.146   1.090   1.297 -0.1501 -1.0608  1.0079
 9557TIP3   OH250085   3.894   0.760   4.574 -0.4735  0.1085 -0.3227
 9557TIP3    H150086   3.893   0.847   4.535 -0.4359  0.0199 -0.5217
 9557TIP3    H250087   3.948   0.769   4.652  1.0400 -0.1444 -1.3010
 9558TIP3   OH250088   0.043   5.114   2.502  0.4293  0.1807  0.3969
 9558TIP3    H150089  -0.025   5.048   2.513  0.6745  0.2191  2.5982
 9558TIP3    H250090  -0.003   5.197   2.501  0.2559  0.0916 -0.8168
 9559TIP3   OH250091   1.626   4.007   4.302 -0.1292  0.0031  0.1047
 9559TIP3    H150092   1.620   4.008   4.206  1.1295  0.4342  0.0038
 9559TIP3    H250093   1.616   4.098   4.327  0.2465 -0.0126  0.3200
 9560TIP3   OH250094   0.880   1.931  13.528  0.6823 -0.1525 -0.3545
 9560TIP3    H150095   0.915   1.891  13.448  0.6663 -0.4968 -0.1926
 9560TIP3    H250096   0.799   1.883  13.545  0.1614  0.5896 -0.6847
 9561TIP3   OH250097   4.649   1.632   1.122 -0.0852 -0.1850 -0.0078
 9561TIP3    H150098   4.678   1.626   1.213  0.8283 -0.8115 -0.3343
 9561TIP3    H250099   4.633   1.726   1.109  2.2558  0.2964  0.0715
 9562TIP3   OH250100   3.208   2.433   5.518  0.4946  0.5390  0.0923
 9562TIP3    H150101   3.144   2.444   5.588  1.0281 -0.7858  0.8275
 9562TIP3    H250102   3.266   2.508   5.526 -0.6820  1.5391 -0.3232
 9563TIP3   OH250103   3.720   3.243   1.533  0.2233 -0.0068  0.6123
 9563TIP3    H150104   3.780   3.304   1.489  1.3122  0.3002  2.4116
 9563TIP3    H250105   3.694   3.288   1.614 -0.7453 -1.0234  0.9026
 9564TIP3   OH250106   4.093   4.025   0.232 -0.1932  0.5404 -0.0168
 9564TIP3    H150107   4.065   3.995   0.146 -2.1444  1.2641  0.3272
 9564TIP3    H250108   4.139   3.950   0.270 -1.4238 -0.6113 -0.7444
 9565TIP3   OH250109   1.029   4.482  15.597  0.1638 -0.0982 -0.0013
 9565TIP3    H150110   1.033   4.559  15.540  0.3415 -0.2856 -0.2447
 9565TIP3    H250111   1.082   4.416  15.552  0.2433 -0.2733  0.3442
 9566TIP3   OH250112   5.585   2.505  16.189 -0.4983  0.1737  0.4397
 9566TIP3    H150113   5.585   2.440  16.259  0.7364  0.7451  0.9984
 9566TIP3    H250114   5.613   2.457  16.111 -1.3872 -0.3507  0.4269
 9567TIP3   OH250115   4.588   0.146  12.067 -0.4863 -0.7482  0.1277
 9567TIP3    H150116   4.541   0.108  12.141 -0.6490 -1.4382 -0.3197
 9567TIP3    H250117   4.620   0.230  12.099 -2.1201 -0.2131  0.4020
 9568TIP3   OH250118   2.795   2.573   4.949 -0.5357 -0.2652  0.3244
 9568TIP3    H150119   2.859   2.589   4.880  0.9131 -2.1109  1.1443
 9568TIP3    H250120   2.802   2.650   5.005 -0.2718  0.3344 -0.5105
 9569TIP3   OH250121   0.677   3.721  16.453 -0.0822  0.3958  0.7403
 9569TIP3    H150122   0.741   3.772  16.504  0.9155  0.6960 -0.7659
 9569TIP3    H250123   0.730   3.661  16.401 -1.1379 -0.5349  0.7040
 9570TIP3   OH250124   0.933   1.050  13.447  0.0783 -0.5738  0.5524
 9570TIP3    H150125   0.983   1.117  13.495 -0.1689 -1.9677  2.9254
 9570TIP3    H250126   0.896   1.097  13.372  2.4440  1.1988  0.3685
 9571TIP3   OH250127   5.810   1.819   1.380 -0.4726 -0.5673  0.7645
 9571TIP3    H150128   5.775   1.840   1.466  0.6590 -1.4622  1.4687
 9571TIP3    H250129   5.884   1.879   1.370 -1.4280  0.5089 -0.2157
 9572TIP3   OH250130   4.403   3.468  12.874 -0.2107  0.4814  0.3556
 9572TIP3    H150131   4.369   3.489  12.961  0.7642  1.9526  0.4199
 9572TIP3    H250132   4.449   3.385  12.886 -1.8156 -0.3820  0.7567
 9573TIP3   OH250133   0.494   6.745   6.436  0.0000  0.4868 -0.1267
 9573TIP3    H150134   0.544   6.704   6.366 -0.0123  1.0071 -0.4438
 9573TIP3    H250135   0.487   6.677   6.503 -1.3193 -0.5357 -1.2576
 9574TIP3   OH250136   1.973   5.972  14.416 -0.0168 -0.5978  0.2085
 9574TIP3    H150137   1.939   6.016  14.494  2.1376  1.8637 -0.0933
 9574TIP3    H250138   2.023   6.040  14.371  0.3083 -2.4399 -2.3897
 9575TIP3   OH250139   2.391   3.469  10.266  0.6749  0.5140 -0.0400
 9575TIP3    H150140   2.379   3.394  10.324  0.0493 -1.5234 -2.6031
 9575TIP3    H250141   2.316   3.526  10.285  0.0556 -0.4780  0.5995
 9576TIP3   OH250142   5.132   2.533  17.118 -0.5792  0.2127  0.1989
 9576TIP3    H150143   5.038   2.549  17.109 -0.4305  0.1631 -1.8159
 9576TIP3    H250144   5.166   2.536  17.029  1.4888  1.0686  0.9497
 9577TIP3   OH250145   0.361   3.304   5.649 -0.2554 -0.4717  0.1248
 9577TIP3    H150146   0.424   3.232   5.661  0.8276  0.2738 -0.8682
 9577TIP3    H250147   0.308   3.277   5.574 -0.6671 -0.7776  0.5197
 9578TIP3   OH250148   2.968   2.613   1.302 -0.2025  0.2786 -0.2943
 9578TIP3    H150149   3.037   2.637   1.364 -0.8084 -0.3938  0.6868
 9578TIP3    H250150   2.905   2.563   1.355  0.1567 -1.9635 -1.8414
 9579TIP3   OH250151   0.949   3.416  12.617 -0.2269  0.0651 -0.6133
 9579TIP3    H150152   0.883   3.366  12.665 -0.5633  0.1126 -1.0226
 9579TIP3    H250153   0.968   3.492  12.673  0.8870 -0.9160  0.4015
 9580TIP3   OH250154   3.588   5.649   2.415  0.1794  0.6811  0.2422
 9580TIP3    H150155   3.668   5.598   2.407 -0.3215 -0.4916  2.1018
 9580TIP3    H250156   3.618   5.738   2.435  1.0308  0.2544  0.9178
 9581TIP3   OH250157   3.380   3.354  10.964  0.1557  0.7824  0.1073
 9581TIP3    H150158   3.395   3.375  10.872 -0.6438  2.1898  0.2685
 9581TIP3    H250159   3.461   3.381  11.008 -0.1247  1.7526  0.0408
 9582TIP3   OH250160   2.844   3.330   2.761  0.4600 -0.2714  0.6734
 9582TIP3    H150161   2.854   3.351   2.668  2.2956 -0.4081  0.7928
 9582TIP3    H250162   2.759   3.286   2.767 -0.4493  1.1957 -0.6523
 9583TIP3   OH250163   6.030   1.300  16.653  0.2626  0.2591  0.4365
 9583TIP3    H150164   6.042   1.345  16.569  3.5223 -0.6177  0.2830
 9583TIP3    H250165   5.939   1.270  16.651 -1.4641  4.7839 -0.3619
 9584TIP3   OH250166   4.062   0.949  12.641  0.4240 -0.3683 -0.3383
 9584TIP3    H150167   4.118   0.974  12.714  0.8578 -1.3467 -0.3107
 9584TIP3    H250168   4.039   0.858  12.658 -2.1407  0.3080  0.2244
 9585TIP3   OH250169   4.040   4.498  13.285 -0.4261  0.7169  0.7554
 9585TIP3    H150170   4.057   4.487  13.191 -0.0281 -0.0799  0.9107
 9585TIP3    H250171   4.105   4.561  13.314 -1.2116  1.7628  0.3016
 9586TIP3   OH250172   4.757   1.062  10.949  0.2519  0.3331  0.4077
 9586TIP3    H150173   4.732   1.044  11.039  0.5446 -1.8071  0.1186
 9586TIP3    H250174   4.694   1.012  10.896  0.7670  0.6415 -0.5276
 9587TIP3   OH250175   1.844   3.249  12.533 -0.4253  0.0555 -0.3579
 9587TIP3    H150176   1.865   3.156  12.546 -0.0647  0.2385  0.5029
 9587TIP3    H250177   1.807   3.276  12.617 -1.5318  0.4402 -0.9534
 9588TIP3   OH250178   4.794   2.269   2.942  0.1505 -0.0852 -0.2716
 9588TIP3    H150179   4.716   2.251   2.993  0.3575 -1.2424 -0.3362
 9588TIP3    H250180   4.800   2.364   2.939 -1.5584  0.0396 -0.7244
 9589TIP3   OH250181   3.910   4.206  13.881  0.1687 -0.0759  0.8043
 9589TIP3    H150182   3.880   4.174  13.966 -0.7692 -1.0696  0.1207
 9589TIP3    H250183   3.951   4.130  13.839 -1.0636 -0.1214 -0.3769
 9590TIP3   OH250184   3.306   4.821  17.170 -0.0284  0.0287  0.1467
 9590TIP3    H150185   3.218   4.821  17.206 -0.3243 -1.0405 -0.5178
 9590TIP3    H250186   3.364   4.825  17.246 -0.5950  3.0909  0.5239
 9591TIP3   OH250187   4.742   5.607   4.854 -0.2658  0.5034 -0.1489
 9591TIP3    H150188   4.771   5.564   4.934  1.9541  3.6242  0.9601
 9591TIP3    H250189   4.698   5.687   4.884 -2.3547  0.1551 -2.0526
 9592TIP3   OH250190   4.033   6.175  13.194  0.5269 -0.2858  0.2858
 9592TIP3    H150191   4.084   6.212  13.266  0.0290  0.8461  0.0811
 9592TIP3    H250192   4.076   6.092  13.174  0.6994 -0.6184  1.8625
 9593TIP3   OH250193   3.383   5.902  13.632  0.6688 -0.2031  0.5161
 9593TIP3    H150194   3.306   5.953  13.658  0.8214 -0.1771  0.9276
 9593TIP3    H250195   3.351   5.811  13.630  0.3122 -0.0668 -0.5487
 9594TIP3   OH250196   0.441   6.551  15.072  0.0127 -0.4482 -0.6042
 9594TIP3    H150197   0.354   6.588  15.060  0.0755  0.6802  1.7482
 9594TIP3    H250198   0.499   6.628  15.080  1.1172 -1.1638 -1.4596
 9595TIP3   OH250199   2.580   1.761   6.085 -0.0935 -0.0654  0.1918
 9595TIP3    H150200   2.619   1.705   6.153  3.4467 -0.6911 -2.1313
 9595TIP3    H250201   2.578   1.848   6.124 -2.6125 -1.0634  2.6769
 9596TIP3   OH250202   5.875   6.444   2.411 -0.2168 -0.3789 -0.3494
 9596TIP3    H150203   5.870   6.355   2.444  1.2808 -1.3473 -2.5040
 9596TIP3    H250204   5.786   6.477   2.417 -0.5034 -1.3873  2.0112
 9597TIP3   OH250205   3.066   6.728  11.299 -0.0195  0.4093 -0.1741
 9597TIP3    H150206   3.054   6.644  11.255 -0.7989  0.5689 -0.2775
 9597TIP3    H250207   3.152   6.721  11.341 -0.7479 -1.0695  1.1911
 9598TIP3   OH250208   1.485   1.766   5.421 -0.5801 -0.0686 -0.3929
 9598TIP3    H150209   1.493   1.675   5.394 -0.4694 -0.3953  0.6921
 9598TIP3    H250210   1.404   1.770   5.471 -0.3210  0.3022  0.0116
 9599TIP3   OH250211   3.314   2.240  12.904 -0.3518 -0.2711  0.4636
 9599TIP3    H150212   3.358   2.321  12.929  1.0409 -0.1573 -2.0545
 9599TIP3    H250213   3.349   2.174  12.965  1.6645  0.2599 -0.0344
 9600TIP3   OH250214   2.993   2.363  10.645  0.3282 -0.4452  0.0461
 9600TIP3    H150215   3.044   2.400  10.717 -0.3582  1.6273 -0.4841
 9600TIP3    H250216   2.908   2.406  10.650 -0.3813 -1.6679 -0.8715
 9601TIP3   OH250217   1.093   2.748  12.490  0.2822 -0.1521 -0.2114
 9601TIP3    H150218   1.067   2.656  12.491 -0.2068 -0.0682  2.5536
 9601TIP3    H250219   1.023   2.793  12.538  0.8500  1.5597 -0.9174
 9602TIP3   OH250220   2.982   5.045  15.093  0.0533  0.1419  0.0557
 9602TIP3    H150221   3.075   5.022  15.096 -0.4530 -2.1858 -0.5242
 9602TIP3    H250222   2.953   5.039  15.184  0.5943  1.6577  0.3631
 9603TIP3   OH250223   1.040   2.786  16.547 -0.0097  0.5652 -0.0567
 9603TIP3    H150224   1.024   2.726  16.474  0.6609  0.2035  0.0833
 9603TIP3    H250225   1.135   2.800  16.546  0.1990 -0.5011  1.5484
 9604TIP3   OH250226   0.335   2.381   3.379 -0.2777  0.0353  0.0657
 9604TIP3    H150227   0.415   2.388   3.431 -0.2377 -2.1747  0.3953
 9604TIP3    H250228   0.363   2.395   3.289  0.3600 -0.0324  0.2526
 9605TIP3   OH250229   2.241   2.212   5.707  0.4486  0.0161 -0.3099
 9605TIP3    H150230   2.231   2.293   5.756  1.5959  0.6634 -1.0875
 9605TIP3    H250231   2.188   2.148   5.754 -1.5597  1.5193 -0.4435
 9606TIP3   OH250232   4.246   2.665   4.262  0.2689  0.3110  0.0032
 9606TIP3    H150233   4.235   2.707   4.177  2.5011 -0.8424 -0.9452
 9606TIP3    H250234   4.199   2.582   4.254 -0.7214  0.8201  0.4274
 9607TIP3   OH250235   1.188   6.606   1.465  0.0132  0.3287 -0.4242
 9607TIP3    H150236   1.254   6.548   1.503 -0.9345  0.8502  2.2586
 9607TIP3    H250237   1.119   6.611   1.532 -1.1851  2.4133 -1.6904
 9608TIP3   OH250238   4.221   5.294  12.622  0.0796  0.1674 -0.0749
 9608TIP3    H150239   4.252   5.275  12.534 -1.3345  2.2555 -1.1176
 9608TIP3    H250240   4.126   5.298  12.613 -0.1274 -0.1460  1.6817
 9609TIP3   OH250241   5.232   2.467   5.618  0.1979  0.7233 -0.0881
 9609TIP3    H150242   5.138   2.453   5.624  0.1181  1.6819  1.9263
 9609TIP3    H250243   5.268   2.381   5.599 -1.0750  0.3518 -0.9125
 9610TIP3   OH250244   2.981   5.966   1.920 -0.0032 -0.3222  0.2804
 9610TIP3    H150245   2.978   6.025   1.845  0.4376  0.6752  1.0305
 9610TIP3    H250246   2.941   6.016   1.992  0.2394 -0.9871  0.8911
 9611TIP3   OH250247   2.251   0.770  12.369  0.3691 -0.4192  0.4702
 9611TIP3    H150248   2.221   0.820  12.445  2.1061 -0.9390  1.5724
 9611TIP3    H250249   2.335   0.732  12.397  0.1460 -2.2063 -1.0442
 9612TIP3   OH250250   6.492   3.475   2.757  0.5175 -0.0252  0.8765
 9612TIP3    H150251   6.519   3.558   2.717 -2.1932  0.3311 -0.5064
 9612TIP3    H250252   6.426   3.500   2.822  0.5340 -1.0081  1.2900
 9613TIP3   OH250253   5.786   4.207   1.889  0.2710 -0.0783  0.3955
 9613TIP3    H150254   5.698   4.198   1.926  0.2617  2.5930  1.2603
 9613TIP3    H250255   5.776   4.275   1.822  1.8476  1.0056  1.2170
 9614TIP3   OH250256   3.579   6.176   2.130  0.3804  0.1566  0.1002
 9614TIP3    H150257   3.510   6.207   2.071 -1.1056 -2.5234  0.2465
 9614TIP3    H250258   3.604   6.090   2.095 -0.2102 -1.3257  2.9592
 9615TIP3   OH250259   5.834   6.241   1.791 -0.3082  0.4296 -0.1979
 9615TIP3    H150260   5.779   6.306   1.747 -1.1395  0.0524  0.2457
 9615TIP3    H250261   5.869   6.287   1.867  1.1457  1.0884 -1.2177
 9616TIP3   OH250262   3.315   0.345   1.041  0.4033  0.1398  0.4942
 9616TIP3    H150263   3.365   0.365   0.962  0.1306  0.6403  0.4456
 9616TIP3    H250264   3.225   0.371   1.019  0.1743 -0.4544  0.6921
 9617TIP3   OH250265   5.810   6.265  12.834 -0.4050  0.3666  0.4135
 9617TIP3    H150266   5.892   6.217  12.846  0.7193  2.0692 -0.1194
 9617TIP3    H250267   5.831   6.335  12.772 -1.7556  1.9882  1.6578
 9618TIP3   OH250268   3.306   0.695   0.903  0.0491 -0.2047  0.0185
 9618TIP3    H150269   3.333   0.710   0.993 -0.1691 -1.5509  0.3235
 9618TIP3    H250270   3.225   0.645   0.910  0.2681 -0.7175 -0.9283
 9619TIP3   OH250271   2.293   0.274  11.042  0.0196  0.3430 -0.1149
 9619TIP3    H150272   2.280   0.367  11.057  1.3413  0.1270  3.1073
 9619TIP3    H250273   2.385   0.267  11.014 -0.2451  0.0352 -0.9338
 9620TIP3   OH250274   6.776   4.560  10.565  0.5700  0.0001 -0.3975
 9620TIP3    H150275   6.763   4.489  10.627 -0.2788  0.7334  0.2962
 9620TIP3    H250276   6.855   4.604  10.595 -0.2415  0.8096  0.6650
 9621TIP3   OH250277   4.184   2.160   0.415 -0.5914  0.1927  0.1948
 9621TIP3    H150278   4.239   2.208   0.477 -2.1169 -0.1929  1.9394
 9621TIP3    H250279   4.245   2.125   0.351  0.8232  2.3804  0.2531
 9622TIP3   OH250280   2.613   3.100   2.006 -0.0156 -0.5787  0.0795
 9622TIP3    H150281   2.531   3.124   1.963  0.5380 -1.7212 -1.6963
 9622TIP3    H250282   2.632   3.012   1.974  1.8131 -0.4168  0.6199
 9623TIP3   OH250283   0.932   4.704  13.615  0.2044  0.2674  0.3531
 9623TIP3    H150284   0.994   4.635  13.592 -1.1681 -0.3596 -1.7312
 9623TIP3    H250285   0.847   4.660  13.622 -0.8207  1.7553 -1.6534
 9624TIP3   OH250286   0.262   0.182   4.489  0.0940  0.4476 -0.2612
 9624TIP3    H150287   0.243   0.260   4.437  0.6901  1.5536  1.0889
 9624TIP3    H250288   0.217   0.197   4.572  1.4778  0.1135  0.5953
 9625TIP3   OH250289   5.772   3.429  16.429 -0.3996  0.1448 -0.4054
 9625TIP3    H150290   5.771   3.426  16.334  1.0903 -0.4586 -0.4267
 9625TIP3    H250291   5.773   3.522  16.451  0.0575  0.2759 -0.9931
 9626TIP3   OH250292   1.458   5.073  15.890  0.3665 -0.5276  0.0801
 9626TIP3    H150293   1.396   5.009  15.856 -0.1452  0.1082 -0.2047
 9626TIP3    H250294   1.502   5.108  15.812  0.9040 -0.7928  0.2619
 9627TIP3   OH250295   1.298   3.899  14.512 -0.1707 -0.4200  0.1742
 9627TIP3    H150296   1.302   3.984  14.468 -0.4902 -0.7804 -0.5613
 9627TIP3    H250297   1.262   3.919  14.598 -2.9263 -0.1452 -0.9295
 9628TIP3   OH250298   4.078   4.500  16.352  0.0946  0.8910 -0.2500
 9628TIP3    H150299   4.075   4.588  16.388 -1.3140 -0.4094  3.2665
 9628TIP3    H250300   4.167   4.469  16.369  0.5957  1.5573 -1.5022
 9629TIP3   OH250301   3.450   5.749   5.357 -0.3198 -0.6922 -0.4058
 9629TIP3    H150302   3.512   5.794   5.300  0.8543  0.1528  1.4208
 9629TIP3    H250303   3.410   5.819   5.409 -0.9083 -1.4566  0.1957
 9630TIP3   OH250304   0.159   4.124   4.456 -0.4653 -0.0512  0.6114
 9630TIP3    H150305   0.081   4.170   4.427 -0.6236  0.9271  2.4549
 9630TIP3    H250306   0.193   4.082   4.376 -1.5815  1.3740 -0.6807
 9631TIP3   OH250307   0.840   3.380  10.577  0.2620  0.4111  0.7100
 9631TIP3    H150308   0.882   3.322  10.640 -0.0287  0.8219  1.2924
 9631TIP3    H250309   0.852   3.468  10.613  0.5911  0.7052 -0.1004
 9632TIP3   OH250310   5.841   4.083  16.636  0.4969  0.0828  0.3899
 9632TIP3    H150311   5.924   4.072  16.591  1.3306 -0.6491  2.0036
 9632TIP3    H250312   5.840   4.176  16.661  2.5109 -0.5204  3.2727
 9633TIP3   OH250313   3.897   1.735  16.864 -0.6287 -0.6007 -0.1379
 9633TIP3    H150314   3.960   1.807  16.854 -0.8764 -0.0679  1.7291
 9633TIP3    H250315   3.944   1.668  16.912 -0.8387 -1.0922 -0.6138
 9634TIP3   OH250316   5.619   3.832  11.399 -0.4206  0.9125  0.2369
 9634TIP3    H150317   5.527   3.835  11.425 -0.3456  0.0236  0.6507
 9634TIP3    H250318   5.617   3.840  11.303 -0.7498  3.4916  0.3954
 9635TIP3   OH250319   6.433   3.781   1.524 -0.3586 -0.5987  0.0718
 9635TIP3    H150320   6.432   3.686   1.538  0.2308 -0.8978 -1.7161
 9635TIP3    H250321   6.493   3.794   1.451 -0.8646  1.1075 -0.0840
 9636TIP3   OH250322   1.970   5.698   4.523 -0.0418 -0.2578  0.3985
 9636TIP3    H150323   1.986   5.624   4.465 -0.8134 -0.2299  0.1432
 9636TIP3    H250324   1.938   5.768   4.465  2.6857  1.0195  0.2851
 9637TIP3   OH250325   6.749   2.877   4.348 -0.1094  0.2306  0.1207
 9637TIP3    H150326   6.734   2.807   4.285 -0.6318  0.9989 -0.6314
 9637TIP3    H250327   6.691   2.856   4.421  0.2911 -0.5149  0.2347
 9638TIP3   OH250328   5.938   1.267   1.585  0.4823  0.0245 -0.1961
 9638TIP3    H150329   6.033   1.277   1.580  0.3676  0.6979 -1.0750
 9638TIP3    H250330   5.916   1.294   1.674  0.7592  2.9269 -0.9374
 9639TIP3   OH250331   1.280   2.573   0.396 -0.0426  0.4309 -0.1341
 9639TIP3    H150332   1.210   2.514   0.368 -1.3697  1.2566  1.3037
 9639TIP3    H250333   1.306   2.618   0.316  0.2493 -1.2857 -1.0530
 9640TIP3   OH250334   1.762   3.340  12.766  0.1114 -0.5725  0.0738
 9640TIP3    H150335   1.744   3.431  12.792 -0.2500  0.0460 -2.1428
 9640TIP3    H250336   1.698   3.289  12.815 -0.2011  0.4480  0.7729
 9641TIP3   OH250337   4.061   0.331  12.303  0.3735 -0.0877  0.3421
 9641TIP3    H150338   3.984   0.281  12.331  0.2968  0.0079  0.3017
 9641TIP3    H250339   4.073   0.396  12.372  0.4456 -0.1310  0.3711
 9642TIP3   OH250340   0.505   1.597  14.385  0.5966  0.5513 -0.0098
 9642TIP3    H150341   0.420   1.577  14.423  0.6500 -0.2983 -0.3041
 9642TIP3    H250342   0.486   1.623  14.295  0.6382  0.3950 -0.0651
 9643TIP3   OH250343   4.855   4.447   0.186  0.0426  0.5124 -0.4186
 9643TIP3    H150344   4.915   4.522   0.191 -0.9240  1.2559  0.9997
 9643TIP3    H250345   4.883   4.389   0.257  0.9747 -0.6718 -1.6974
 9644TIP3   OH250346   4.516   2.316   4.990 -0.4101  0.0019 -0.2394
 9644TIP3    H150347   4.545   2.286   5.076 -0.9932 -0.7493 -0.2949
 9644TIP3    H250348   4.456   2.248   4.959  0.5681 -0.2374 -1.6971
 9645TIP3   OH250349   6.125   5.730  14.063  0.0115 -0.1200 -0.3020
 9645TIP3    H150350   6.066   5.805  14.056  0.6747  0.3355 -1.2937
 9645TIP3    H250351   6.071   5.655  14.038 -0.4350  0.1337 -0.1225
 9646TIP3   OH250352   6.325   6.655  15.076 -0.7203 -0.4973 -0.4990
 9646TIP3    H150353   6.320   6.654  15.171  1.3716  0.7893 -0.3079
 9646TIP3    H250354   6.237   6.631  15.046 -1.5366 -0.4506  1.7363
 9647TIP3   OH250355   3.277   3.488   2.708  0.4484  0.6246  0.2829
 9647TIP3    H150356   3.342   3.441   2.656 -0.6906  0.4075 -1.0304
 9647TIP3    H250357   3.274   3.441   2.791 -1.1394 -2.2341 -1.2036
 9648TIP3   OH250358   0.162   1.360   3.564 -0.3297 -0.6089 -0.4629
 9648TIP3    H150359   0.089   1.374   3.503  1.1057 -0.0103 -2.1150
 9648TIP3    H250360   0.178   1.446   3.602 -1.1304 -0.9541  0.7020
 9649TIP3   OH250361   0.693   1.735  15.516 -0.0526  0.4276  0.4092
 9649TIP3    H150362   0.719   1.661  15.461 -2.1206 -0.7026  0.8414
 9649TIP3    H250363   0.733   1.812  15.475 -0.9555 -0.4546 -2.2834
 9650TIP3   OH250364   5.910   3.572  11.511 -0.7981  0.2817  0.3730
 9650TIP3    H150365   5.840   3.545  11.570 -0.0048  0.4576  1.4316
 9650TIP3    H250366   5.948   3.650  11.552  0.8314 -0.5336  0.5059
 9651TIP3   OH250367   2.645   4.308  17.122  0.1401  0.5540 -0.0005
 9651TIP3    H150368   2.740   4.308  17.131  0.3028 -0.8233 -1.2601
 9651TIP3    H250369   2.627   4.381  17.062  0.5599 -0.0419 -0.8739
 9652TIP3   OH250370   6.725   3.078   4.707 -0.5717 -0.6695 -0.3038
 9652TIP3    H150371   6.770   3.031   4.778  0.0032  0.9520  0.4507
 9652TIP3    H250372   6.774   3.054   4.628 -0.1898 -1.1958  0.0779
 9653TIP3   OH250373   3.608   6.057  11.475 -0.1041 -0.0593  0.2463
 9653TIP3    H150374   3.534   6.043  11.533  1.2685  0.2752  2.1801
 9653TIP3    H250375   3.618   5.974  11.428 -2.6215  0.4090 -1.2567
 9654TIP3   OH250376   6.499   1.240  12.341  0.1703  0.6525  0.1325
 9654TIP3    H150377   6.594   1.245  12.340  0.2863 -1.0333 -0.7142
 9654TIP3    H250378   6.470   1.324  12.306  1.4743 -0.0300 -2.8667
 9655TIP3   OH250379   1.680   3.903  15.473 -0.5730  0.2115 -0.1112
 9655TIP3    H150380   1.621   3.831  15.493  0.3560 -1.1116 -1.8091
 9655TIP3    H250381   1.726   3.921  15.555  0.6256 -2.5523 -0.0839
 9656TIP3   OH250382   2.395   3.591   4.594 -0.3979 -0.5643 -0.6833
 9656TIP3    H150383   2.339   3.536   4.540 -0.9358 -1.3830  0.6528
 9656TIP3    H250384   2.470   3.535   4.617  0.0005 -0.1138 -0.8776
 9657TIP3   OH250385   6.472   4.608   1.978 -0.0319 -0.0462 -0.1524
 9657TIP3    H150386   6.417   4.534   1.954  1.5659 -0.7011 -2.0661
 9657TIP3    H250387   6.484   4.600   2.073 -2.0889 -0.6141  0.1063
 9658TIP3   OH250388   3.770   1.461   0.930  0.1397 -0.1965  0.1432
 9658TIP3    H150389   3.830   1.424   0.865  0.7867  0.4915  0.3441
 9658TIP3    H250390   3.721   1.528   0.882 -2.1442 -2.2484 -0.6501
 9659TIP3   OH250391   4.677   1.195  11.763  0.1512 -0.1496 -0.1180
 9659TIP3    H150392   4.757   1.247  11.766 -0.2961  0.6086 -1.0363
 9659TIP3    H250393   4.608   1.255  11.793 -0.1519 -0.6561  0.2189
 9660TIP3   OH250394   4.093   3.852  14.528  0.1652 -0.0490  0.2069
 9660TIP3    H150395   4.027   3.868  14.595  1.4398 -2.8165  2.3437
 9660TIP3    H250396   4.174   3.884  14.566  0.5739  0.4609 -1.0529
 9661TIP3   OH250397   4.883   6.751  12.893 -0.3176  0.6204  0.1786
 9661TIP3    H150398   4.803   6.707  12.920 -0.9136  0.1282 -2.1446
 9661TIP3    H250399   4.856   6.806  12.819  1.9345 -1.8894 -2.7516
 9662TIP3   OH250400   4.794   3.339   4.522  0.1352  0.1206  0.5808
 9662TIP3    H150401   4.805   3.428   4.488 -1.8217  1.0224  2.0945
 9662TIP3    H250402   4.856   3.335   4.596  3.1654 -1.2659 -1.8312
 9663TIP3   OH250403   4.163   2.255  11.157  0.4694 -0.4317  0.0591
 9663TIP3    H150404   4.156   2.219  11.069  0.6901 -0.2228 -0.0476
 9663TIP3    H250405   4.151   2.350  11.144 -0.4223 -0.4956  0.3736
 9664TIP3   OH250406   4.532   3.963  14.684 -0.0859  0.4186  0.4757
 9664TIP3    H150407   4.618   3.956  14.644 -0.6692  0.6680 -0.8822
 9664TIP3    H250408   4.527   3.888  14.744  1.1228  0.5001  0.6974
 9665TIP3   OH250409   3.548   5.835  16.620 -0.2393  0.2051 -0.3448
 9665TIP3    H150410   3.484   5.887  16.572 -0.9731  1.1818  1.6050
 9665TIP3    H250411   3.587   5.896  16.683  1.1205 -0.8779 -0.0734
 9666TIP3   OH250412   0.575   4.349  15.987  0.1126 -0.1608 -0.7940
 9666TIP3    H150413   0.580   4.337  15.892 -0.4725 -0.5478 -0.7789
 9666TIP3    H250414   0.533   4.269  16.019 -0.6105  0.3961 -0.3160
 9667TIP3   OH250415   5.792   6.450   5.700  0.3485 -0.7432  0.2005
 9667TIP3    H150416   5.704   6.412   5.699 -0.3307  0.7535  0.1713
 9667TIP3    H250417   5.807   6.473   5.791  0.1935  0.1167  0.0156
 9668TIP3   OH250418   2.843   4.158   1.392 -0.1637  0.1779  0.3784
 9668TIP3    H150419   2.847   4.205   1.309  0.3893  1.4451  1.1046
 9668TIP3    H250420   2.794   4.216   1.450  2.3893  0.9366  1.9310
 9669TIP3   OH250421   2.168   6.702   4.092 -0.2156  0.1466 -0.1669
 9669TIP3    H150422   2.243   6.717   4.034  0.1138 -1.0103 -0.0669
 9669TIP3    H250423   2.128   6.621   4.060  0.4146 -0.9492  1.6436
 9670TIP3   OH250424   1.549   0.586   0.399  0.3459  0.9162  0.1647
 9670TIP3    H150425   1.489   0.657   0.376 -0.0131  0.1310 -1.4388
 9670TIP3    H250426   1.632   0.611   0.360  0.8498  1.5395  1.5748
 9671TIP3   OH250427   2.483   0.067   2.614  0.1161  0.6207  0.1909
 9671TIP3    H150428   2.474   0.069   2.710  0.6637  0.9539  0.2389
 9671TIP3    H250429   2.568   0.025   2.600 -0.2669 -0.0431 -0.1700
 9672TIP3   OH250430   5.026   0.390   5.055  0.0493  0.1666 -0.5314
 9672TIP3    H150431   4.955   0.454   5.045 -0.5752 -0.0930  1.8428
 9672TIP3    H250432   5.103   0.442   5.075 -0.4948  0.2477  1.5748
 9673TIP3   OH250433   4.850   6.269  14.345  0.6158  0.3847 -0.1847
 9673TIP3    H150434   4.892   6.210  14.282  0.7224  0.5330 -0.2520
 9673TIP3    H250435   4.896   6.352  14.335  0.1924  0.5990 -0.3899
 9674TIP3   OH250436   5.196   3.628   3.160 -0.3132 -0.4822 -0.2385
 9674TIP3    H150437   5.250   3.704   3.183 -0.0474 -1.0537  1.0763
 9674TIP3    H250438   5.246   3.584   3.090 -0.8358  0.9299 -1.5681
 9675TIP3   OH250439   5.211   1.557   2.836  0.7806  0.1613  0.4128
 9675TIP3    H150440   5.275   1.539   2.906  1.3902  0.6186 -0.0226
 9675TIP3    H250441   5.212   1.652   2.826  0.6719  0.1016 -0.1951
 9676TIP3   OH250442   3.217   2.998   1.127 -0.4566 -0.0767  0.3084
 9676TIP3    H150443   3.283   2.957   1.183  0.7848  0.5643 -0.6284
 9676TIP3    H250444   3.259   3.003   1.041 -0.6767  2.7595  0.2759
 9677TIP3   OH250445   3.735   1.965  17.204 -0.3972  0.1712  0.5325
 9677TIP3    H150446   3.798   1.944  17.273  1.1303  0.8267 -0.6280
 9677TIP3    H250447   3.685   2.039  17.240 -2.0172 -1.6512  2.3104
 9678TIP3   OH250448   6.266   2.852   2.089 -0.3360  0.0391  0.0143
 9678TIP3    H150449   6.198   2.800   2.047 -0.6300  2.0542 -2.2263
 9678TIP3    H250450   6.238   2.943   2.078  0.9986  0.7982  2.1973
 9679TIP3   OH250451   1.530   1.073  16.995 -0.2045  0.2054 -0.2927
 9679TIP3    H150452   1.465   1.143  16.988 -0.3390  0.0982 -0.1019
 9679TIP3    H250453   1.604   1.105  16.943 -0.5985  0.1096 -0.9384
 9680TIP3   OH250454   1.217   3.564   3.318  0.6747  0.2349  0.2881
 9680TIP3    H150455   1.124   3.588   3.312 -0.0730 -1.9862  1.8368
 9680TIP3    H250456   1.243   3.591   3.406  1.4471  0.5842 -0.0328
 9681TIP3   OH250457   2.521   5.008  11.568 -0.3345 -0.0066  0.5240
 9681TIP3    H150458   2.460   4.985  11.498  0.1325  0.0404  0.0994
 9681TIP3    H250459   2.478   5.080  11.615 -0.4820  0.2166  0.0516
 9682TIP3   OH250460   3.247   0.954  12.527  0.1321  0.1759  0.0718
 9682TIP3    H150461   3.331   0.990  12.501 -0.2975  1.9102  0.9530
 9682TIP3    H250462   3.228   0.995  12.611 -1.1546 -0.9131  0.3450
 9683TIP3   OH250463   3.128   0.670  11.768 -0.1745  0.0187 -0.5238
 9683TIP3    H150464   3.113   0.737  11.835 -1.1313 -1.6278  0.9969
 9683TIP3    H250465   3.048   0.671  11.715  0.6784  1.4883 -1.8987
 9684TIP3   OH250466   1.230   2.062  12.820 -0.4467 -0.0567 -0.0244
 9684TIP3    H150467   1.241   2.110  12.738  0.0244  0.6629  0.4554
 9684TIP3    H250468   1.315   2.066  12.862 -0.3244 -1.5110 -0.0664
 9685TIP3   OH250469   1.641   2.194   3.420 -0.2882  1.2644  0.2269
 9685TIP3    H150470   1.554   2.158   3.404  0.4073  0.3941 -1.8465
 9685TIP3    H250471   1.625   2.273   3.472 -2.2272  0.6916  0.5684
 9686TIP3   OH250472   1.030   1.014  12.582  0.7625  0.5411  0.1544
 9686TIP3    H150473   1.011   0.977  12.495 -0.9751  0.5511  0.5037
 9686TIP3    H250474   0.959   1.076  12.598  1.1097  0.6040  1.5655
 9687TIP3   OH250475   0.199   6.145  11.416 -0.0840 -0.0919  0.5934
 9687TIP3    H150476   0.259   6.216  11.390 -0.5967  0.0299 -0.3148
 9687TIP3    H250477   0.255   6.068  11.421  0.2309  0.0951  0.1390
 9688TIP3   OH250478   5.500   4.441  13.469  0.2340  0.2570 -0.4965
 9688TIP3    H150479   5.448   4.384  13.412  0.6646  0.1396 -0.7840
 9688TIP3    H250480   5.445   4.518  13.483 -0.9476 -0.8259  1.0729
 9689TIP3   OH250481   2.334   0.943   3.946 -0.3507  0.6385 -0.5863
 9689TIP3    H150482   2.266   0.982   3.890 -0.5138 -0.7856 -1.4361
 9689TIP3    H250483   2.395   0.902   3.884  0.2090  0.1883  0.2449
 9690TIP3   OH250484   6.051   1.399  14.368  0.0339 -0.2580  0.6150
 9690TIP3    H150485   6.062   1.404  14.273 -0.0422  0.2491  0.6323
 9690TIP3    H250486   6.115   1.461  14.403 -0.9755  0.6944  0.8240
 9691TIP3   OH250487   4.537   0.482  12.649  0.7182  0.1993  0.1478
 9691TIP3    H150488   4.544   0.572  12.617 -0.1407  0.8040  1.5453
 9691TIP3    H250489   4.566   0.488  12.740 -0.5002 -0.6888  0.6157
 9692TIP3   OH250490   2.788   1.134  16.378 -0.6033 -0.0842  0.1307
 9692TIP3    H150491   2.861   1.082  16.346 -1.8860 -0.0053 -3.3616
 9692TIP3    H250492   2.814   1.161  16.467  2.9657 -1.0807 -0.4671
 9693TIP3   OH250493   3.708   1.350  11.667 -0.2343  0.5327  0.0241
 9693TIP3    H150494   3.620   1.369  11.635 -0.1351 -1.0164 -1.2866
 9693TIP3    H250495   3.696   1.280  11.730  0.0463  0.3671 -0.1034
 9694TIP3   OH250496   0.413   4.187  12.864  0.4044 -0.1532 -0.0884
 9694TIP3    H150497   0.380   4.167  12.776 -3.1774  1.2532  0.7487
 9694TIP3    H250498   0.362   4.131  12.922  1.4291  0.2315  1.2423
 9695TIP3   OH250499   6.384   0.307   3.988  0.4616 -0.5992  0.6818
 9695TIP3    H150500   6.376   0.355   3.906 -0.3307  0.9013  1.5897
 9695TIP3    H250501   6.478   0.308   4.007  0.5607 -0.2638  0.1919
 9696TIP3   OH250502   0.599   1.218   1.428 -0.0319  0.1401 -0.4745
 9696TIP3    H150503   0.550   1.281   1.480  1.1390 -0.0912  0.9702
 9696TIP3    H250504   0.543   1.140   1.425  1.0873 -1.0393  3.2649
 9697TIP3   OH250505   6.686   3.139   3.807  0.7785 -0.0596 -0.3553
 9697TIP3    H150506   6.779   3.159   3.802  1.1221 -1.3439  0.3869
 9697TIP3    H250507   6.665   3.146   3.900 -0.0196  0.7992 -0.5846
 9698TIP3   OH250508   5.887   6.693   1.959 -0.3537 -0.4937  0.3149
 9698TIP3    H150509   5.976   6.687   1.922  0.0282  1.2060  0.8627
 9698TIP3    H250510   5.878   6.785   1.983 -2.4059 -0.5680 -0.0264
 9699TIP3   OH250511   5.388   0.099  14.191  0.1778  0.4880  0.2839
 9699TIP3    H150512   5.453   0.032  14.172  0.2539  0.4913  0.5185
 9699TIP3    H250513   5.439   0.174  14.222  0.1443  0.9010 -0.6259
 9700TIP3   OH250514   1.335   3.144  13.105 -0.0054 -0.5656 -0.0238
 9700TIP3    H150515   1.240   3.148  13.117  0.0116  1.3056 -0.1142
 9700TIP3    H250516   1.358   3.053  13.122 -1.8296 -1.0858 -0.1265
 9701TIP3   OH250517   5.935   1.008   3.728 -0.2267  0.3769  0.0137
 9701TIP3    H150518   6.022   0.971   3.748 -1.3615 -1.7714  1.3881
 9701TIP3    H250519   5.902   1.037   3.812 -0.6017  1.8690 -0.6197
 9702TIP3   OH250520   3.427   0.332   6.526 -0.3666 -0.4358 -0.2408
 9702TIP3    H150521   3.522   0.332   6.534 -0.2497 -0.4739 -1.4672
 9702TIP3    H250522   3.402   0.240   6.530 -0.1646 -0.5792 -1.6651
 9703TIP3   OH250523   3.492   1.531  16.895  0.4946 -0.2413 -0.2402
 9703TIP3    H150524   3.537   1.614  16.886 -1.5296  0.9742  0.1462
 9703TIP3    H250525   3.452   1.515  16.810  1.1683 -1.0248 -0.4222
 9704TIP3   OH250526   3.669   3.607   5.022  0.0537 -0.3444  0.9310
 9704TIP3    H150527   3.750   3.557   5.018 -1.0716 -2.1711 -0.8973
 9704TIP3    H250528   3.636   3.592   5.111  0.0256 -2.4913  0.6039
 9705TIP3   OH250529   2.528   1.423  12.585 -0.5463  0.4503 -0.6456
 9705TIP3    H150530   2.582   1.425  12.664  0.4975  2.1891 -1.3477
 9705TIP3    H250531   2.438   1.423  12.618 -0.1677  2.8448  0.6181
 9706TIP3   OH250532   6.644   5.770   1.515  0.1520  0.2103 -0.0799
 9706TIP3    H150533   6.695   5.843   1.480  1.1554 -1.6596 -2.8576
 9706TIP3    H250534   6.706   5.722   1.569  0.1735  0.1282 -0.1774
 9707TIP3   OH250535   2.134   2.837   0.421  0.2701 -0.4322  0.2783
 9707TIP3    H150536   2.177   2.861   0.502  0.6884  1.6929 -0.5216
 9707TIP3    H250537   2.204   2.799   0.367  0.5028  0.2469  0.0915
 9708TIP3   OH250538   1.822   3.163  13.292 -0.0129  0.2232  0.4791
 9708TIP3    H150539   1.763   3.202  13.357  1.0418  0.2248  1.4730
 9708TIP3    H250540   1.889   3.230  13.279  0.2368 -0.1196  0.0048
 9709TIP3   OH250541   1.597   2.181   0.323 -0.1275  0.1587 -0.5611
 9709TIP3    H150542   1.598   2.277   0.317  2.6384  0.3539  1.3226
 9709TIP3    H250543   1.508   2.160   0.351 -1.1983  2.0158 -2.2973
 9710TIP3   OH250544   0.499   3.081   4.185  0.2891 -0.1266 -0.4416
 9710TIP3    H150545   0.463   3.096   4.098  0.1398 -0.8222 -0.5003
 9710TIP3    H250546   0.553   3.159   4.202 -1.3993  1.0598 -0.2550
 9711TIP3   OH250547   4.466   3.256  15.946  0.1288  0.1777 -0.3068
 9711TIP3    H150548   4.505   3.336  15.909  0.9937  0.8899  1.9961
 9711TIP3    H250549   4.533   3.189  15.931  0.3680  0.4002 -0.2465
 9712TIP3   OH250550   6.056   1.749   4.804 -0.1549  0.2820  0.2191
 9712TIP3    H150551   6.114   1.764   4.729 -0.5191  1.2069  0.1094
 9712TIP3    H250552   6.114   1.742   4.879  0.3135 -1.8300 -0.2727
 9713TIP3   OH250553   4.943   4.709  13.956 -0.5569  0.3421  0.4769
 9713TIP3    H150554   4.949   4.616  13.979 -0.6673  0.3936  0.7271
 9713TIP3    H250555   5.016   4.750  14.004  0.1165  0.2398 -0.4364
 9714TIP3   OH250556   0.934   2.938  13.395  0.5352 -0.5057 -0.0551
 9714TIP3    H150557   0.933   2.889  13.477 -0.2879  1.0039  0.8689
 9714TIP3    H250558   1.023   2.927  13.361  0.2962 -2.8984 -0.0741
 9715TIP3   OH250559   3.017   4.961  16.266 -0.0660 -0.0232 -0.0860
 9715TIP3    H150560   2.977   4.956  16.179  0.7370 -1.4044 -0.3914
 9715TIP3    H250561   2.943   4.978  16.325 -0.7072  0.2549 -0.9468
 9716TIP3   OH250562   0.784   4.382  12.236 -0.9089 -0.3409  0.0991
 9716TIP3    H150563   0.808   4.305  12.184  0.6198 -0.0793  0.3667
 9716TIP3    H250564   0.853   4.445  12.217 -1.2088  0.3383  1.2077
 9717TIP3   OH250565   0.385   1.889   1.936 -0.1116  0.4014  0.2834
 9717TIP3    H150566   0.302   1.881   1.890  0.7712 -0.2567 -1.2645
 9717TIP3    H250567   0.418   1.799   1.944  0.1987  0.5894  1.4137
 9718TIP3   OH250568   0.007   1.195  13.169  0.1214  0.2232  0.0766
 9718TIP3    H150569   0.059   1.222  13.093 -2.3748  1.8850 -1.1575
 9718TIP3    H250570   0.023   1.101  13.176  4.7905  0.8273  1.0818
 9719TIP3   OH250571   6.546   6.620  12.830  0.0164 -0.0196  0.6400
 9719TIP3    H150572   6.533   6.526  12.817  0.2995 -0.1465  1.2045
 9719TIP3    H250573   6.610   6.645  12.764  0.8355 -0.4758  1.2351
 9720TIP3   OH250574   3.928   6.069  16.785 -0.5889 -0.3386 -0.4583
 9720TIP3    H150575   4.000   6.008  16.772  1.1721  1.0503  1.9873
 9720TIP3    H250576   3.942   6.137  16.719  0.8844  0.3171  0.4791
 9721TIP3   OH250577   5.607   2.677   0.019  0.2456  1.2633 -0.4601
 9721TIP3    H150578   5.674   2.707   0.080  0.0580  1.1360 -0.1916
 9721TIP3    H250579   5.531   2.658   0.074  1.4274 -3.3375  0.0165
 9722TIP3   OH250580   0.632   2.535  16.854 -0.1866 -0.8763 -0.2320
 9722TIP3    H150581   0.723   2.540  16.826  0.3166  0.0324  1.4254
 9722TIP3    H250582   0.625   2.599  16.924 -2.0052 -1.2508 -0.0143
 9723TIP3   OH250583   2.716   4.527  14.824  0.1997 -0.1836 -0.0365
 9723TIP3    H150584   2.767   4.516  14.744 -0.0281  2.2086 -0.5918
 9723TIP3    H250585   2.711   4.622  14.836 -1.9359 -0.4207  1.4435
 9724TIP3   OH250586   5.140   1.401   1.684  0.2600 -0.1597  0.1123
 9724TIP3    H150587   5.077   1.472   1.670 -1.2760 -1.7366 -1.4822
 9724TIP3    H250588   5.218   1.428   1.634 -0.0571  0.6781  0.0543
 9725TIP3   OH250589   3.949   1.699   0.349 -0.5012 -0.2573  0.3468
 9725TIP3    H150590   3.983   1.695   0.438 -0.8621 -0.9945  0.4593
 9725TIP3    H250591   3.989   1.622   0.306 -1.5213 -0.7776  0.3066
 9726TIP3   OH250592   2.599   4.349   5.762 -0.1829 -0.3486 -0.0891
 9726TIP3    H150593   2.622   4.410   5.692 -1.0694  0.4541  0.2999
 9726TIP3    H250594   2.683   4.329   5.805 -0.1081  2.5615  1.3606
 9727TIP3   OH250595   6.216   0.468   6.730  0.2363 -0.0584  0.3242
 9727TIP3    H150596   6.214   0.411   6.807 -0.3049  0.0326  0.3801
 9727TIP3    H250597   6.168   0.418   6.663 -0.0743  0.2494  0.3169
 9728TIP3   OH250598   0.218   4.922  11.499  0.3952  0.5892 -0.6018
 9728TIP3    H150599   0.270   4.849  11.466 -0.4995 -0.3226 -0.0586
 9728TIP3    H250600   0.269   4.958  11.571 -0.1812 -0.9867  0.6399
 9729TIP3   OH250601   6.287   5.317  15.154  0.2227 -0.1372  0.2855
 9729TIP3    H150602   6.286   5.222  15.164  2.5313 -0.3662 -1.0177
 9729TIP3    H250603   6.232   5.333  15.077 -0.7569 -0.3154  0.9272
 9730TIP3   OH250604   1.404   6.395   6.253 -0.2017  0.3595  0.7296
 9730TIP3    H150605   1.492   6.372   6.283  0.5487  0.0196 -1.5706
 9730TIP3    H250606   1.346   6.344   6.309  1.2191 -2.8686 -0.4930
 9731TIP3   OH250607   6.439   2.373   1.740 -0.4591  0.3677  0.2144
 9731TIP3    H150608   6.429   2.464   1.765  2.1305  0.3785  1.5585
 9731TIP3    H250609   6.516   2.372   1.682 -0.1773 -0.9796  0.5573
 9732TIP3   OH250610   1.439   3.035  11.645 -0.0927  0.2797  0.0302
 9732TIP3    H150611   1.471   2.945  11.637 -0.8805 -0.2826  2.1783
 9732TIP3    H250612   1.346   3.025  11.667 -0.5789  1.6981 -1.1985
 9733TIP3   OH250613   4.453   1.699   1.672  0.1415  0.0259  0.1015
 9733TIP3    H150614   4.519   1.726   1.608 -0.2705 -1.0810 -0.8107
 9733TIP3    H250615   4.454   1.770   1.738  2.5724 -0.1893  0.4059
 9734TIP3   OH250616   2.576   1.057  11.929 -0.0613  0.0172  0.1056
 9734TIP3    H150617   2.560   0.969  11.965 -1.0681  0.5885  1.1326
 9734TIP3    H250618   2.494   1.080  11.887  0.2745  0.3906 -0.3481
 9735TIP3   OH250619   4.592   4.473  17.040 -0.3269  0.2167 -0.0253
 9735TIP3    H150620   4.527   4.537  17.068 -0.5466 -0.0103 -0.0135
 9735TIP3    H250621   4.540   4.398  17.011 -0.0413 -0.4229  1.0849
 9736TIP3   OH250622   5.776   1.819  14.544 -0.0461  0.2778  0.0118
 9736TIP3    H150623   5.798   1.732  14.576  1.6525  0.1888 -1.2596
 9736TIP3    H250624   5.688   1.836  14.578 -0.7393 -2.2352 -0.3892
 9737TIP3   OH250625   3.491   1.486  11.536  0.2827  0.5228 -0.0873
 9737TIP3    H150626   3.434   1.421  11.495  0.2166 -0.2887  1.2586
 9737TIP3    H250627   3.437   1.565  11.541 -0.5365 -0.0575  0.6001
 9738TIP3   OH250628   1.563   3.248  13.432  0.6515 -0.1509  0.4549
 9738TIP3    H150629   1.543   3.288  13.347 -1.4133 -0.6355  0.6661
 9738TIP3    H250630   1.533   3.313  13.496  1.9891  0.1140  0.8415
 9739TIP3   OH250631   3.569   1.937   4.858  0.1476  0.0848  0.0175
 9739TIP3    H150632   3.618   1.910   4.780 -1.9576  0.1842 -1.4092
 9739TIP3    H250633   3.528   1.856   4.889  1.0569  0.0242  1.1331
 9740TIP3   OH250634   3.736   6.085   1.208 -0.0767  0.5021 -0.0603
 9740TIP3    H150635   3.831   6.074   1.214 -0.3663 -1.7220  2.0037
 9740TIP3    H250636   3.711   6.133   1.287 -0.7228  0.6659 -0.3552
 9741TIP3   OH250637   3.063   0.354  16.710 -0.1427  0.3824 -0.1910
 9741TIP3    H150638   3.104   0.307  16.783  0.3883  1.5982  0.3374
 9741TIP3    H250639   3.085   0.446  16.727  0.8479  0.6149 -2.4233
 9742TIP3   OH250640   4.842   1.825   5.369 -0.4833 -0.2233  0.6003
 9742TIP3    H150641   4.783   1.809   5.443 -1.7288  0.4557 -0.2175
 9742TIP3    H250642   4.805   1.902   5.325  1.2266  0.4378  0.2649
 9743TIP3   OH250643   1.683   0.432  15.121 -0.0754  0.5834  0.5035
 9743TIP3    H150644   1.701   0.515  15.164 -2.0946  0.6364  1.3917
 9743TIP3    H250645   1.672   0.454  15.028  3.4180  0.6098 -0.0234
 9744TIP3   OH250646   2.290   3.787   4.012 -0.0500  0.1226  0.0957
 9744TIP3    H150647   2.374   3.746   4.033  0.7929  1.8185  0.2529
 9744TIP3    H250648   2.307   3.837   3.931 -0.8861  0.5380  0.1606
 9745TIP3   OH250649   5.215   2.996  15.741  0.0496 -0.7479 -0.3909
 9745TIP3    H150650   5.246   3.082  15.769 -1.8969 -0.6478  1.8519
 9745TIP3    H250651   5.207   3.002  15.646 -3.2863  2.8593 -0.1175
 9746TIP3   OH250652   3.872   1.056   5.462  0.2176 -0.0633 -0.1427
 9746TIP3    H150653   3.933   0.984   5.451  0.3916 -0.1514  1.1638
 9746TIP3    H250654   3.786   1.015   5.466  0.1638 -0.0398 -0.9271
 9747TIP3   OH250655   5.497   4.846   2.478  0.4054  0.3709 -0.3699
 9747TIP3    H150656   5.515   4.940   2.475 -0.2381  0.5336  0.4621
 9747TIP3    H250657   5.470   4.824   2.389 -1.0181  1.3246 -0.2140
 9748TIP3   OH250658   1.849   1.873   5.914 -0.1592 -0.4950  0.0529
 9748TIP3    H150659   1.920   1.838   5.860  0.2161  0.7228 -0.2854
 9748TIP3    H250660   1.780   1.896   5.852 -0.1287 -0.0155  0.1930
 9749TIP3   OH250661   3.751   4.416  16.884  0.4312 -0.2482  0.3305
 9749TIP3    H150662   3.764   4.469  16.962  0.4040 -0.3534  0.4077
 9749TIP3    H250663   3.656   4.402  16.880  0.1693  1.5453 -0.8949
 9750TIP3   OH250664   1.711   1.573   0.488 -0.0214  0.2196 -0.5916
 9750TIP3    H150665   1.649   1.646   0.483 -0.1392  0.0804 -1.2618
 9750TIP3    H250666   1.792   1.609   0.453  0.0380  0.1558 -0.5178
 9751TIP3   OH250667   4.587   4.948  15.679  0.0833 -0.3583  0.5466
 9751TIP3    H150668   4.576   5.030  15.726 -0.5027 -0.5296  0.7228
 9751TIP3    H250669   4.681   4.933  15.679  0.4307  1.4151 -1.4216
 9752TIP3   OH250670   2.597   5.079  14.658  0.2125 -0.0624  0.7130
 9752TIP3    H150671   2.646   5.152  14.620 -2.4991  0.7186 -1.5997
 9752TIP3    H250672   2.547   5.119  14.730 -0.7333  0.2563 -0.1017
 9753TIP3   OH250673   4.752   2.956  13.432  0.2994 -0.4653  0.0519
 9753TIP3    H150674   4.724   2.866  13.420  0.4997 -0.8648  2.2104
 9753TIP3    H250675   4.673   3.003  13.458  0.4210 -0.2981  0.1297
 9754TIP3   OH250676   1.922   2.888  16.309  0.2119  0.0024  0.3236
 9754TIP3    H150677   1.921   2.983  16.322 -0.2754  0.2155 -1.1052
 9754TIP3    H250678   1.879   2.875  16.225  0.9864 -1.4377  0.1226
 9755TIP3   OH250679   5.573   6.332  11.597 -0.0375 -0.3685  0.2582
 9755TIP3    H150680   5.532   6.355  11.513  0.2614  2.2621  0.7405
 9755TIP3    H250681   5.661   6.303  11.572 -0.3034 -0.6469 -0.3942
 9756TIP3   OH250682   4.040   4.486  13.010  0.3154  0.3814 -0.1553
 9756TIP3    H150683   3.991   4.541  12.949  1.3221  1.9756  0.4129
 9756TIP3    H250684   4.050   4.403  12.964 -1.0422  0.7346 -1.1500
 9757TIP3   OH250685   0.139   3.468   5.350 -0.1833  0.0238  0.2718
 9757TIP3    H150686   0.141   3.383   5.394 -1.9913 -0.4219 -0.4198
 9757TIP3    H250687   0.049   3.476   5.317  0.2782  1.6769 -0.6997
 9758TIP3   OH250688   3.064   2.342   1.425  0.0293  0.4836 -0.4926
 9758TIP3    H150689   3.157   2.341   1.450 -0.1365  0.1556  0.1116
 9758TIP3    H250690   3.061   2.295   1.342 -0.0903 -2.8012  1.2401
 9759TIP3   OH250691   6.577   0.775  11.900 -0.2194 -0.4702  0.5065
 9759TIP3    H150692   6.496   0.740  11.863  0.3909 -1.0913 -0.2757
 9759TIP3    H250693   6.620   0.820  11.827  0.6982 -1.1644  0.5968
 9760TIP3   OH250694   1.330   3.915   2.379  0.7395  0.0832  0.2176
 9760TIP3    H150695   1.334   4.000   2.423  0.0565  0.2769 -0.0780
 9760TIP3    H250696   1.346   3.935   2.287  0.4738 -0.0953  0.1309
 9761TIP3   OH250697   2.620   6.130   0.760 -0.3244  0.2542 -0.8550
 9761TIP3    H150698   2.622   6.184   0.839 -2.2522 -0.4375 -0.2834
 9761TIP3    H250699   2.570   6.181   0.697 -1.5640 -0.5037 -0.5338
 9762TIP3   OH250700   1.231   6.144  14.234 -0.0405 -0.4717  0.6610
 9762TIP3    H150701   1.216   6.050  14.225 -0.2509 -0.4080  0.3271
 9762TIP3    H250702   1.206   6.180  14.149 -0.3950 -0.0591  0.9382
 9763TIP3   OH250703   4.152   1.863   1.795 -0.5066 -0.4312  0.6918
 9763TIP3    H150704   4.127   1.893   1.707 -1.5092  1.2229  1.4965
 9763TIP3    H250705   4.248   1.863   1.794 -0.4946  0.5878 -0.0854
 9764TIP3   OH250706   1.247   1.970   5.444 -0.0231  0.2161  0.1943
 9764TIP3    H150707   1.312   1.989   5.376  0.3582 -0.4064  0.3666
 9764TIP3    H250708   1.214   2.055   5.471 -1.6904  0.4360 -2.1874
 9765TIP3   OH250709   3.296   3.807   2.644 -0.3692  0.5642 -0.2068
 9765TIP3    H150710   3.379   3.760   2.646 -0.6507  0.0350 -0.6975
 9765TIP3    H250711   3.317   3.889   2.599 -0.4367 -0.2568 -1.8095
 9766TIP3   OH250712   1.494   2.737  11.603 -0.0661 -0.4348 -0.9291
 9766TIP3    H150713   1.431   2.724  11.674  0.8460 -0.3303 -0.0721
 9766TIP3    H250714   1.525   2.649  11.582  1.4403 -0.2968  0.5033
 9767TIP3   OH250715   6.777   2.357   4.507  0.1074 -0.3964  0.0010
 9767TIP3    H150716   6.854   2.379   4.456  1.5497 -3.6161  0.5457
 9767TIP3    H250717   6.705   2.403   4.464  1.8998  0.4291 -2.2703
 9768TIP3   OH250718   3.283   4.716   4.796 -0.2488 -0.0459 -0.6098
 9768TIP3    H150719   3.287   4.802   4.837 -0.5773 -1.4074  2.6108
 9768TIP3    H250720   3.193   4.709   4.763 -0.3132  0.7112 -0.6080
 9769TIP3   OH250721   6.516   2.964  11.136  0.2455  0.2536  0.7689
 9769TIP3    H150722   6.442   2.918  11.096 -0.5326  1.6197  0.5950
 9769TIP3    H250723   6.593   2.931  11.090 -0.4111  0.0167 -0.1736
 9770TIP3   OH250724   5.002   0.503  15.320  0.1199 -0.7380 -0.3707
 9770TIP3    H150725   5.081   0.474  15.367  0.0474  0.4982  0.5740
 9770TIP3    H250726   5.025   0.493  15.228  1.6322  0.1111 -0.1367
 9771TIP3   OH250727   3.953   0.877   0.763  0.5098  0.3048  0.2080
 9771TIP3    H150728   4.046   0.887   0.742  0.1697  0.2801 -1.4381
 9771TIP3    H250729   3.912   0.956   0.730 -0.5204 -1.1677 -2.3225
 9772TIP3   OH250730   2.865   5.792   0.865 -0.1749  0.5390 -0.1039
 9772TIP3    H150731   2.876   5.841   0.947 -0.0109  0.2545  0.0441
 9772TIP3    H250732   2.785   5.741   0.877  0.5584 -0.5336  0.4087
 9773TIP3   OH250733   3.762   3.435   4.226  0.2447  0.0584  0.0925
 9773TIP3    H150734   3.855   3.458   4.219  0.3162 -0.5937 -1.6807
 9773TIP3    H250735   3.761   3.340   4.228 -0.3512  0.0660  1.4764
 9774TIP3   OH250736   2.458   5.946  13.958 -0.2490 -0.0307 -0.4992
 9774TIP3    H150737   2.433   5.880  13.893 -1.5512  1.8344 -2.0462
 9774TIP3    H250738   2.379   5.999  13.970  1.3290  2.7286 -1.2568
 9775TIP3   OH250739   0.484   6.057   0.296 -0.2022  0.4652  0.0267
 9775TIP3    H150740   0.401   6.093   0.327 -1.3378 -1.0707 -1.0454
 9775TIP3    H250741   0.520   6.011   0.373  0.1304  1.8758  0.7448
 9776TIP3   OH250742   1.359   6.105   6.070  0.1828  0.5514  0.0208
 9776TIP3    H150743   1.340   6.117   5.977  0.3575  1.9500  0.1576
 9776TIP3    H250744   1.305   6.170   6.115  0.5653  0.3031  0.8709
 9777TIP3   OH250745   6.405   5.638   2.675 -0.5889  0.2225  0.3497
 9777TIP3    H150746   6.347   5.710   2.702 -1.8361 -0.9026  0.7812
 9777TIP3    H250747   6.361   5.599   2.600 -1.2634 -1.6378  1.6425
 9778TIP3   OH250748   2.165   2.492   0.802 -0.3609  0.0972  0.3701
 9778TIP3    H150749   2.147   2.516   0.711 -0.3178 -0.9179  0.0805
 9778TIP3    H250750   2.150   2.397   0.805  0.0371  0.0539  1.3244
 9779TIP3   OH250751   2.728   3.276  12.759 -0.5032  0.1879 -0.1072
 9779TIP3    H150752   2.744   3.273  12.854  4.0768  0.4602 -0.6415
 9779TIP3    H250753   2.700   3.366  12.742 -2.3218 -0.1158  0.9963
 9780TIP3   OH250754   1.519   6.352  13.900 -0.1106 -0.1203 -0.0844
 9780TIP3    H150755   1.476   6.293  13.963  0.2754  2.3932  2.7773
 9780TIP3    H250756   1.453   6.367  13.833 -1.7918 -0.4805  1.4098
 9781TIP3   OH250757   2.774   2.806   3.887 -0.2799 -0.0200  0.0200
 9781TIP3    H150758   2.802   2.758   3.809 -1.6974 -0.1736 -0.4307
 9781TIP3    H250759   2.731   2.885   3.852 -0.4693  0.1641  0.6600
 9782TIP3   OH250760   5.252   6.562   0.838 -0.0356  0.0177 -0.2929
 9782TIP3    H150761   5.197   6.487   0.814  1.4535 -1.0821 -0.4151
 9782TIP3    H250762   5.252   6.562   0.934  1.2536 -1.1827 -0.2597
 9783TIP3   OH250763   5.237   4.510   5.239 -0.2648 -0.0455  0.4095
 9783TIP3    H150764   5.165   4.573   5.245 -0.0537  0.2290  0.0857
 9783TIP3    H250765   5.276   4.509   5.326  0.0449  0.6499  0.2855
 9784TIP3   OH250766   1.239   5.829   2.748 -0.3612  0.3615 -0.3736
 9784TIP3    H150767   1.217   5.736   2.761 -0.0273  0.2750 -0.4163
 9784TIP3    H250768   1.167   5.876   2.790 -0.1211  0.0819  0.3754
 9785TIP3   OH250769   6.091   6.277   5.714 -0.1353  0.0937  0.0729
 9785TIP3    H150770   6.160   6.221   5.750  1.1752  1.7610  0.2529
 9785TIP3    H250771   6.037   6.300   5.790 -2.1368 -2.7226 -0.3278
 9786TIP3   OH250772   0.004   1.801  15.012 -0.2718 -0.3340  0.4075
 9786TIP3    H150773   0.017   1.710  15.039  0.1875  0.2843  2.4142
 9786TIP3    H250774  -0.059   1.836  15.074  0.3809  1.0188  0.3421
 9787TIP3   OH250775   5.075   6.420  14.796  0.1049 -0.2547 -0.0975
 9787TIP3    H150776   4.986   6.449  14.778  0.4913  0.1521 -1.4704
 9787TIP3    H250777   5.074   6.395  14.888 -1.4319 -0.2984 -0.1076
 9788TIP3   OH250778   5.520   6.238  11.304 -0.3986  0.1847  0.2377
 9788TIP3    H150779   5.488   6.153  11.336  1.7366  0.2539  2.8409
 9788TIP3    H250780   5.440   6.286  11.282 -1.9179 -1.1119  2.4703
 9789TIP3   OH250781   1.743   1.362   5.083  0.4658  0.6309 -0.4204
 9789TIP3    H150782   1.826   1.409   5.091  0.2084  0.9489  0.4397
 9789TIP3    H250783   1.756   1.282   5.133  0.3396  0.5566 -0.5057
 9790TIP3   OH250784   5.376   1.183   2.068 -0.7584  0.4221  0.6273
 9790TIP3    H150785   5.442   1.209   2.132 -0.3762  2.1105 -0.3792
 9790TIP3    H250786   5.298   1.164   2.120 -0.1582  0.7460  1.6704
 9791TIP3   OH250787   4.824   0.156  13.108 -0.1365 -0.4437  0.0123
 9791TIP3    H150788   4.737   0.191  13.086 -0.1414 -0.2702  0.3003
 9791TIP3    H250789   4.884   0.203  13.050 -0.2797 -0.8796 -0.4953
 9792TIP3   OH250790   6.511   3.112   3.580  0.2106 -0.1086 -0.1667
 9792TIP3    H150791   6.494   3.206   3.577 -0.2638 -0.1461  0.8441
 9792TIP3    H250792   6.509   3.090   3.674 -0.7217 -1.3068 -0.4327
 9793TIP3   OH250793   3.606   2.320  11.804  0.4772 -0.1896 -0.5520
 9793TIP3    H150794   3.534   2.382  11.817  0.8573  0.3632 -1.0352
 9793TIP3    H250795   3.570   2.236  11.832 -0.8704 -0.1983 -2.1373
 9794TIP3   OH250796   3.586   4.900  12.501  0.1792 -0.2015 -0.2177
 9794TIP3    H150797   3.497   4.936  12.505  0.1905 -0.2656  0.6296
 9794TIP3    H250798   3.577   4.822  12.446  0.2034  1.1985 -2.3343
 9795TIP3   OH250799   4.783   6.187  13.908  0.5405 -0.4298  0.2687
 9795TIP3    H150800   4.777   6.156  13.998  0.0507 -2.6558 -0.4585
 9795TIP3    H250801   4.698   6.165  13.869  0.6700  0.6683 -0.7045
 9796TIP3   OH250802   4.805   5.536  12.973 -0.2399  0.7373  0.2207
 9796TIP3    H150803   4.836   5.472  12.910 -0.6793  0.3622  0.3758
 9796TIP3    H250804   4.849   5.617  12.950 -0.0586  0.4943 -0.2871
 9797TIP3   OH250805   1.608   5.706   0.842  0.0348  0.2820  0.4820
 9797TIP3    H150806   1.684   5.670   0.795  0.3531  0.8749  0.5219
 9797TIP3    H250807   1.638   5.715   0.932 -0.6592 -1.0887  0.8717
 9798TIP3   OH250808   3.413   0.453   6.216  0.3937 -0.4850  0.2346
 9798TIP3    H150809   3.470   0.493   6.282  0.8083  1.1062 -1.0139
 9798TIP3    H250810   3.470   0.438   6.141 -0.2062 -1.6705 -0.0087
 9799TIP3   OH250811   1.479   3.478  16.239  0.5466 -0.5094 -0.7775
 9799TIP3    H150812   1.409   3.457  16.176 -2.2911  2.3948  1.0745
 9799TIP3    H250813   1.448   3.442  16.322  0.2850  2.2727  0.4308
 9800TIP3   OH250814   1.989   5.900  11.226  0.0297  0.2056 -0.0971
 9800TIP3    H150815   2.039   5.825  11.194  0.6549  0.5907 -0.0312
 9800TIP3    H250816   2.027   5.975  11.181 -0.1596  0.5632  0.3333
 9801TIP3   OH250817   3.137   2.187  15.706  0.0892  0.5351  0.9306
 9801TIP3    H150818   3.193   2.223  15.637 -1.4347  0.4132 -0.4169
 9801TIP3    H250819   3.086   2.262  15.738 -0.0790  0.3633  1.0715
 9802TIP3   OH250820   0.995   4.004   2.312  0.4091 -0.5871  0.0904
 9802TIP3    H150821   1.015   4.065   2.383  1.8783 -0.1632 -0.6514
 9802TIP3    H250822   1.045   3.925   2.333 -3.2122 -2.5615  2.2627
 9803TIP3   OH250823   2.058   2.865   2.847 -0.2411  0.4111  0.4143
 9803TIP3    H150824   2.071   2.789   2.904  0.7896 -1.0551 -1.6873
 9803TIP3    H250825   1.969   2.855   2.813 -1.1859  1.7418  2.2783
 9804TIP3   OH250826   6.028   0.038  13.079  0.5385  0.7920  0.6875
 9804TIP3    H150827   5.944   0.075  13.055  1.3376  1.6450 -0.9788
 9804TIP3    H250828   6.031  -0.047  13.034  0.4152  0.5701  1.0895
 9805TIP3   OH250829   0.205   1.410   6.954  0.0543 -0.2812  0.0106
 9805TIP3    H150830   0.244   1.454   7.029  1.0574  2.0095 -1.7600
 9805TIP3    H250831   0.278   1.366   6.911 -0.1187  0.1658 -0.7588
 9806TIP3   OH250832   2.898   5.300   4.897  0.1350  0.1284 -0.4757
 9806TIP3    H150833   2.986   5.336   4.884  0.1225  0.0544 -0.7569
 9806TIP3    H250834   2.850   5.325   4.818 -0.9178  2.6310  0.8092
 9807TIP3   OH250835   4.092   0.072  17.117  0.0146 -0.1027  0.3260
 9807TIP3    H150836   4.142   0.109  17.043 -1.0677  1.4270  0.3062
 9807TIP3    H250837   4.069  -0.016  17.088  1.6181 -0.4082 -0.1670
 9808TIP3   OH250838   5.010   3.830  13.378  0.8384  0.2177 -0.3875
 9808TIP3    H150839   4.961   3.754  13.349  0.2781  0.0327  0.9534
 9808TIP3    H250840   4.947   3.903  13.372  1.8538  0.9796 -3.3008
 9809TIP3   OH250841   0.899   3.845  16.612 -0.3424 -0.0503 -0.4095
 9809TIP3    H150842   0.911   3.910  16.681  0.9780 -0.4517 -0.2456
 9809TIP3    H250843   0.956   3.874  16.541 -0.7299 -0.3308 -0.8471
 9810TIP3   OH250844   5.460   3.988   3.021 -0.2297  0.2256  0.8144
 9810TIP3    H150845   5.538   4.042   3.011  0.5321 -0.8345  0.9095
 9810TIP3    H250846   5.410   4.002   2.941  2.0710 -2.2515 -1.2425
 9811TIP3   OH250847   6.182   6.503   4.225  0.1475 -0.1370 -0.7238
 9811TIP3    H150848   6.144   6.541   4.146  1.2060 -1.2710 -1.8252
 9811TIP3    H250849   6.274   6.529   4.223  0.1516 -0.0160  0.2493
 9812TIP3   OH250850   4.159   5.286  11.555  0.2910  0.7146 -0.6431
 9812TIP3    H150851   4.087   5.314  11.498 -1.2925  1.8943  1.7781
 9812TIP3    H250852   4.184   5.365  11.603  4.1559  0.6940 -2.2180
 9813TIP3   OH250853   4.406   0.907  15.419  0.2313 -0.2079  0.5515
 9813TIP3    H150854   4.337   0.964  15.454 -0.1627 -1.0453  1.1665
 9813TIP3    H250855   4.384   0.895  15.327  0.9155  1.4891  0.1210
 9814TIP3   OH250856   6.740   2.893  16.340  0.0598  0.1888  0.0685
 9814TIP3    H150857   6.769   2.876  16.430  0.3905 -0.2038 -0.1106
 9814TIP3    H250858   6.726   2.806  16.302  1.3387  0.3105 -0.7178
 9815TIP3   OH250859   4.854   2.936   5.205  0.5468  0.4924 -0.7047
 9815TIP3    H150860   4.773   2.924   5.255 -0.1925  3.2897 -1.0867
 9815TIP3    H250861   4.857   2.860   5.147 -1.3835 -0.0930 -0.1346
 9816TIP3   OH250862   3.659   5.620  13.862 -0.4522  0.6958 -0.1491
 9816TIP3    H150863   3.674   5.715  13.859 -0.4041  0.7735  1.4433
 9816TIP3    H250864   3.711   5.585  13.790  0.7908  1.7357  0.1939
 9817TIP3   OH250865   1.460   6.246   3.334  0.4799 -0.4522 -0.1476
 9817TIP3    H150866   1.527   6.314   3.342 -0.6566  0.5934  1.2824
 9817TIP3    H250867   1.506   6.164   3.351  1.3877  0.2600  0.9853
 9818TIP3   OH250868   5.298   2.491   5.287 -0.4898 -0.2933  0.1840
 9818TIP3    H150869   5.393   2.491   5.294 -0.3581 -1.0280 -1.1825
 9818TIP3    H250870   5.268   2.425   5.349 -0.1507  0.2295  0.9139
 9819TIP3   OH250871   4.310   4.246   0.354 -0.2453  0.1675 -0.2439
 9819TIP3    H150872   4.293   4.153   0.342 -0.4564 -0.3616  3.0653
 9819TIP3    H250873   4.245   4.274   0.418  0.2717  2.4382 -0.6297
 9820TIP3   OH250874   4.751   0.039   5.304 -0.0424 -0.6430 -0.0140
 9820TIP3    H150875   4.756   0.096   5.227  2.6767 -2.0142 -0.9715
 9820TIP3    H250876   4.688   0.082   5.361  0.0244  1.9800 -1.7419
 9821TIP3   OH250877   2.439   3.707   2.196 -0.4509 -0.2724  0.2118
 9821TIP3    H150878   2.504   3.769   2.161  1.3911 -0.9176  2.2620
 9821TIP3    H250879   2.356   3.734   2.156  0.8690  1.3247 -1.6188
 9822TIP3   OH250880   5.765   1.880  12.866 -0.2145  0.0309  0.1402
 9822TIP3    H150881   5.842   1.896  12.919  0.1597  2.0826 -0.9144
 9822TIP3    H250882   5.787   1.915  12.780 -1.3065 -1.9128 -1.0127
 9823TIP3   OH250883   2.614   5.813  12.351  0.2753  0.6850 -0.2329
 9823TIP3    H150884   2.573   5.881  12.405 -0.6111  0.9336 -1.1652
 9823TIP3    H250885   2.581   5.831  12.263  2.3878  0.8474 -1.0334
 9824TIP3   OH250886   1.583   5.980  15.736  0.1420  0.6793 -0.1501
 9824TIP3    H150887   1.640   5.960  15.811 -0.9971  2.7536  1.3970
 9824TIP3    H250888   1.624   6.055  15.694 -1.0000  1.7414  0.5553
 9825TIP3   OH250889   5.260   0.012  11.987  0.4257 -0.3567  0.3719
 9825TIP3    H150890   5.235  -0.080  11.978 -0.8923  0.1139 -1.0250
 9825TIP3    H250891   5.180   0.056  12.017  0.7938  0.4755  0.1594
 9826TIP3   OH250892   1.423   3.366  11.810 -0.1162 -0.8763 -0.4077
 9826TIP3    H150893   1.371   3.288  11.830 -0.7324 -0.5714 -0.8207
 9826TIP3    H250894   1.384   3.402  11.731 -2.3079  1.9675  1.7307
 9827TIP3   OH250895   2.747   5.293  14.588  0.0660  0.1954  0.4568
 9827TIP3    H150896   2.763   5.323  14.677 -0.2903  0.0849  0.5581
 9827TIP3    H250897   2.724   5.372  14.540  0.3425  0.2689  0.4388
 9828TIP3   OH250898   6.596   0.252   5.699 -0.1087 -0.2570  0.1745
 9828TIP3    H150899   6.591   0.157   5.703  0.4519 -0.3400 -0.6686
 9828TIP3    H250900   6.686   0.272   5.725  0.1903 -0.0735 -0.9308
 9829TIP3   OH250901   3.276   6.584   6.722  0.3368  0.0282 -0.0924
 9829TIP3    H150902   3.343   6.604   6.787  2.2806 -0.6870 -1.7748
 9829TIP3    H250903   3.287   6.490   6.706 -1.9623 -0.4012  0.4842
 9830TIP3   OH250904   4.513   4.106  17.074  0.5065 -0.1004  0.3294
 9830TIP3    H150905   4.449   4.130  17.141  0.1236  0.6852 -0.2923
 9830TIP3    H250906   4.503   4.011  17.063 -1.6025  0.1987 -0.7854
 9831TIP3   OH250907   1.760   6.109   2.613 -0.2217 -0.2993  0.2276
 9831TIP3    H150908   1.781   6.121   2.521 -0.8499 -1.0107 -0.0186
 9831TIP3    H250909   1.836   6.063   2.649  0.4973  0.9233  0.3204
 9832TIP3   OH250910   5.476   6.640   4.809  0.3573 -0.5429 -0.3776
 9832TIP3    H150911   5.458   6.615   4.900  0.4552  0.9841  0.0828
 9832TIP3    H250912   5.390   6.651   4.770  0.2595  1.0062  0.1907
 9833TIP3   OH250913   0.232   6.360  16.114 -0.3994 -0.0389  0.0175
 9833TIP3    H150914   0.270   6.448  16.126 -0.0475 -0.0026 -1.2834
 9833TIP3    H250915   0.227   6.348  16.020 -1.1567 -1.1327  0.1765
 9834TIP3   OH250916   4.343   2.705  15.167 -0.2417 -0.3865  0.1243
 9834TIP3    H150917   4.358   2.743  15.253  0.1550 -0.3059  0.0216
 9834TIP3    H250918   4.350   2.610  15.180 -2.5842 -0.5423  0.6524
 9835TIP3   OH250919   3.188   2.179   0.127 -0.1354 -0.2851 -0.2148
 9835TIP3    H150920   3.116   2.188   0.065  0.8242 -0.3561 -1.3641
 9835TIP3    H250921   3.186   2.260   0.178  0.1142  0.5401 -1.4856
 9836TIP3   OH250922   2.022   3.486   6.424  0.9050 -0.0189 -0.3407
 9836TIP3    H150923   2.036   3.570   6.468  0.4076  0.7087 -1.5062
 9836TIP3    H250924   1.942   3.499   6.373  0.4714 -1.4204 -0.0619
 9837TIP3   OH250925   3.627   0.859  15.845  0.3372 -0.3610  0.6357
 9837TIP3    H150926   3.606   0.787  15.786  0.3294 -0.0856  0.2967
 9837TIP3    H250927   3.711   0.892  15.814  0.8223 -0.8614  1.4148
 9838TIP3   OH250928   6.090   5.700  12.767 -0.3706  0.2437 -0.1424
 9838TIP3    H150929   6.045   5.680  12.848  0.0531  0.1542  0.0714
 9838TIP3    H250930   6.027   5.678  12.698 -0.6936  0.2326  0.1566
 9839TIP3   OH250931   1.935   5.509   3.696  0.0133 -0.2712  0.5180
 9839TIP3    H150932   1.957   5.549   3.612 -1.6283  1.0260  0.6454
 9839TIP3    H250933   2.005   5.538   3.755  1.0863 -1.0532 -0.3145
 9840TIP3   OH250934   5.683   6.288   1.405 -0.3159 -0.2009  0.4199
 9840TIP3    H150935   5.697   6.262   1.496  0.9576 -2.1813 -0.2857
 9840TIP3    H250936   5.707   6.211   1.354 -0.3478  1.0872 -1.6480
 9841TIP3   OH250937   0.118   4.746   5.164 -0.0219 -0.2955 -0.0405
 9841TIP3    H150938   0.204   4.742   5.122  0.6622 -0.3392  1.3180
 9841TIP3    H250939   0.128   4.698   5.246 -1.6905 -1.3457 -0.3953
 9842TIP3   OH250940   0.251   0.608   5.781  0.3481 -0.0628 -0.0084
 9842TIP3    H150941   0.275   0.613   5.874  0.4346  0.5082 -0.0612
 9842TIP3    H250942   0.324   0.650   5.735 -0.5855  1.4031 -0.1975
 9843TIP3   OH250943   0.018   3.154   5.778  0.0916  0.2384 -0.0752
 9843TIP3    H150944  -0.054   3.207   5.813 -0.7499 -1.2451  0.5171
 9843TIP3    H250945  -0.025   3.088   5.724  0.9073 -1.2024  0.9533
 9844TIP3   OH250946   3.065   3.191   3.545  0.2793 -0.1056  0.5469
 9844TIP3    H150947   3.074   3.154   3.633 -2.7791  0.8588  1.4058
 9844TIP3    H250948   3.085   3.284   3.555  1.1844 -0.2122 -0.1058
 9845TIP3   OH250949   5.541   0.964   5.907  0.2392  0.1972  0.4285
 9845TIP3    H150950   5.495   1.042   5.877 -0.3694  0.4940  2.0105
 9845TIP3    H250951   5.513   0.954   5.998  1.4922 -0.9922  0.7100
 9846TIP3   OH250952   2.340   4.646  13.970 -0.0637 -0.2204  0.0703
 9846TIP3    H150953   2.348   4.740  13.985  0.2153 -0.0112 -1.2253
 9846TIP3    H250954   2.271   4.618  14.030  0.3368  0.6675  0.9765
 9847TIP3   OH250955   2.520   6.022  11.768  0.0639 -0.2828 -0.3887
 9847TIP3    H150956   2.483   6.101  11.729  0.1379  0.2138  0.5321
 9847TIP3    H250957   2.561   5.977  11.694  0.2543  0.6662 -0.8834
 9848TIP3   OH250958   1.859   2.598  15.167 -0.0420  0.2496  0.1499
 9848TIP3    H150959   1.781   2.569  15.120  0.4267 -0.8564  0.0275
 9848TIP3    H250960   1.840   2.688  15.191 -0.7386  0.4849 -1.2013
 9849TIP3   OH250961   2.997   5.558  13.862 -0.6080  0.1011  0.4337
 9849TIP3    H150962   3.005   5.568  13.767 -2.3672  1.1757  0.3534
 9849TIP3    H250963   3.026   5.468  13.879 -2.4200 -0.9328 -1.4476
 9850TIP3   OH250964   2.457   5.669  15.329 -0.2195  0.0750 -0.3204
 9850TIP3    H150965   2.510   5.623  15.263  0.0502  0.1393 -0.1506
 9850TIP3    H250966   2.467   5.617  15.408  0.2605  0.5356 -0.0691
 9851TIP3   OH250967   6.678   1.030   2.736 -0.1847  0.0618  0.1298
 9851TIP3    H150968   6.662   1.031   2.831 -2.7211  1.9211 -0.2325
 9851TIP3    H250969   6.706   1.119   2.715 -0.5516 -0.0713 -0.9906
 9852TIP3   OH250970   4.930   6.238  14.616  0.1471  0.0323  0.5880
 9852TIP3    H150971   4.907   6.246  14.523  1.4620 -0.9061  0.1625
 9852TIP3    H250972   5.023   6.217  14.617  0.1580  0.0099  2.1308
 9853TIP3   OH250973   5.860   5.585  12.993  0.3708 -0.5203 -0.0647
 9853TIP3    H150974   5.832   5.538  13.072  1.0261 -0.7567  0.0285
 9853TIP3    H250975   5.778   5.616  12.954  0.1223  0.9435  1.5259
 9854TIP3   OH250976   4.187   3.885  13.393 -0.2852 -0.8582  0.4677
 9854TIP3    H150977   4.179   3.953  13.327  0.7287 -1.3982 -0.2466
 9854TIP3    H250978   4.238   3.816  13.350 -1.1062 -1.9837  1.2311
 9855TIP3   OH250979   4.787   1.248   2.966  0.4454 -0.2278 -0.2518
 9855TIP3    H150980   4.805   1.297   2.886 -1.0984  0.7826  0.0005
 9855TIP3    H250981   4.758   1.162   2.936  1.6903 -0.5091 -0.7140
 9856TIP3   OH250982   5.279   5.467  15.717 -0.0402  0.2618  0.8135
 9856TIP3    H150983   5.285   5.444  15.810  1.8361 -1.1391  0.4249
 9856TIP3    H250984   5.347   5.533  15.704  0.3558 -0.2415  0.2707
 9857TIP3   OH250985   4.533   5.215   2.453  0.1363  0.1866  0.1993
 9857TIP3    H150986   4.518   5.158   2.378  0.4878 -1.3576  1.2673
 9857TIP3    H250987   4.605   5.174   2.500  0.7273  1.7932  0.7522
 9858TIP3   OH250988   1.140   0.168  13.829  0.4998  0.1341  0.0318
 9858TIP3    H150989   1.115   0.094  13.774 -2.8164  1.0097  0.1345
 9858TIP3    H250990   1.164   0.128  13.913 -1.4130 -0.8733  0.1516
 9859TIP3   OH250991   3.736   0.002  15.999 -0.6854 -0.3671  0.0291
 9859TIP3    H150992   3.775  -0.048  16.070 -1.3197 -0.6800  0.1677
 9859TIP3    H250993   3.780   0.087  16.002 -0.1750 -0.6375  0.3131
 9860TIP3   OH250994   4.804   5.269   1.135  0.6516 -0.2848 -0.0019
 9860TIP3    H150995   4.777   5.216   1.060 -2.4678 -2.0325  2.1449
 9860TIP3    H250996   4.850   5.208   1.192  1.6404  0.6598  0.2538
 9861TIP3   OH250997   6.359   4.357   2.962  0.0511 -0.5224 -0.6874
 9861TIP3    H150998   6.337   4.406   3.041  0.5514 -0.2378 -0.7194
 9861TIP3    H250999   6.352   4.420   2.891 -1.3864 -1.0199 -1.0152
 9862TIP3   OH251000   0.739   6.447   5.492 -0.4325  0.6929 -0.2360
 9862TIP3    H151001   0.798   6.439   5.416  1.8228  1.2503  1.3436
 9862TIP3    H251002   0.670   6.506   5.462  0.4749  1.0044 -1.8256
 9863TIP3   OH251003   5.400   1.654  11.543 -0.1492 -0.0732 -0.1164
 9863TIP3    H151004   5.459   1.671  11.615 -0.7844 -0.0934  0.4180
 9863TIP3    H251005   5.403   1.559  11.531  0.3283 -0.0191 -0.4436
 9864TIP3   OH251006   5.252   2.859  13.427  0.3867 -0.1052 -0.1447
 9864TIP3    H151007   5.162   2.849  13.395  0.0942 -0.9119  0.8855
 9864TIP3    H251008   5.246   2.844  13.521  1.5559  0.1729 -0.0100
 9865TIP3   OH251009   3.055   0.326   5.835 -0.8111 -0.0386  0.1465
 9865TIP3    H151010   3.006   0.394   5.882 -1.4293 -2.6084  3.5888
 9865TIP3    H251011   3.147   0.347   5.852 -0.9905  0.0916  1.0236
 9866TIP3   OH251012   3.803   4.850   5.683  0.1911 -0.4113  0.0841
 9866TIP3    H151013   3.829   4.812   5.599  0.7510 -0.9037  0.4702
 9866TIP3    H251014   3.882   4.844   5.738  0.0732  0.6499  0.3888
 9867TIP3   OH251015   4.161   3.871  14.093 -0.0575  0.4109 -0.0706
 9867TIP3    H151016   4.105   3.799  14.066  3.0763 -1.9579 -0.8251
 9867TIP3    H251017   4.203   3.840  14.173  1.6809  1.1381 -0.6485
 9868TIP3   OH251018   4.059   6.252   6.058  0.4906 -0.6352  0.5585
 9868TIP3    H151019   4.144   6.231   6.098  0.7093 -2.4114 -0.6888
 9868TIP3    H251020   4.002   6.180   6.085 -0.0288 -0.5524 -0.2748
 9869TIP3   OH251021   5.381   6.764   2.555 -0.3958  0.0062 -0.7507
 9869TIP3    H151022   5.372   6.716   2.638 -1.2859  1.0845 -0.1922
 9869TIP3    H251023   5.409   6.852   2.581  0.7592 -0.0483 -1.7257
 9870TIP3   OH251024   1.834   4.503  14.358 -0.3694 -0.4338  0.1124
 9870TIP3    H151025   1.790   4.469  14.436  0.0465 -1.7249 -0.1849
 9870TIP3    H251026   1.808   4.444  14.288 -0.5136  0.5520 -0.6797
 9871TIP3   OH251027   1.288   3.093  12.209  0.4247  0.1826  0.8830
 9871TIP3    H151028   1.338   3.012  12.211 -0.2302 -0.2250  1.1731
 9871TIP3    H251029   1.198   3.066  12.228  0.1877  0.9672  0.9093
 9872TIP3   OH251030   3.133   5.184   3.199  0.1843 -0.2596 -0.0977
 9872TIP3    H151031   3.197   5.202   3.267 -0.0651 -0.1456  0.1068
 9872TIP3    H251032   3.050   5.211   3.236  0.1352  0.4616 -0.7026
 9873TIP3   OH251033   4.325   3.702  16.268  0.2309  0.3720  0.5134
 9873TIP3    H151034   4.279   3.620  16.286 -1.0044  0.7668 -0.6418
 9873TIP3    H251035   4.271   3.769  16.309 -0.2332  0.8373 -0.7896
 9874TIP3   OH251036   6.095   0.791  15.274 -0.7109 -0.0047 -0.2785
 9874TIP3    H151037   6.045   0.772  15.353 -2.2108  1.1613 -0.8795
 9874TIP3    H251038   6.034   0.841  15.219  0.1995 -0.9356 -2.2532
 9875TIP3   OH251039   4.363   3.852  13.878  0.2829 -0.2254 -0.2176
 9875TIP3    H151040   4.425   3.851  13.950 -0.4613 -0.6996  0.4362
 9875TIP3    H251041   4.288   3.900  13.911  0.3494  0.4698 -1.0486
 9876TIP3   OH251042   3.036   5.796   0.382  0.1153  0.0496  0.2789
 9876TIP3    H151043   2.995   5.713   0.359 -1.3667  0.8662 -0.1999
 9876TIP3    H251044   3.009   5.812   0.472 -1.3517  0.9515 -0.2761
 9877TIP3   OH251045   5.550   1.107  15.881  0.0045  0.1658 -0.0597
 9877TIP3    H151046   5.568   1.038  15.817  1.6440  0.0335  0.4834
 9877TIP3    H251047   5.522   1.182  15.828 -0.9050 -0.6234 -0.7320
 9878TIP3   OH251048   3.472   4.321   2.058  0.0050 -0.0730 -0.1379
 9878TIP3    H151049   3.402   4.387   2.061 -0.1418 -0.1368 -1.6404
 9878TIP3    H251050   3.454   4.270   1.979  2.6544  0.9454 -1.5403
 9879TIP3   OH251051   2.969   3.997   1.018 -0.5159  0.5905  0.1203
 9879TIP3    H151052   3.048   3.952   1.048  1.0660  2.2766 -1.2701
 9879TIP3    H251053   2.923   3.933   0.964  0.2068 -0.2489  0.4918
 9880TIP3   OH251054   5.670   2.004   1.839 -0.4465  0.0300 -0.1346
 9880TIP3    H151055   5.737   2.037   1.780 -0.4289  0.2696  0.0219
 9880TIP3    H251056   5.607   2.076   1.848  0.4264  0.6340  1.5071
 9881TIP3   OH251057   6.194   6.601  11.698 -0.6577 -0.1862  0.7826
 9881TIP3    H151058   6.249   6.547  11.641  2.8294 -0.3891  3.9528
 9881TIP3    H251059   6.195   6.688  11.657  1.3296 -0.4264  0.1859
 9882TIP3   OH251060   2.737   3.306   0.588 -0.6237 -0.6846 -0.0543
 9882TIP3    H151061   2.686   3.261   0.521  0.7789 -0.2799 -1.4660
 9882TIP3    H251062   2.828   3.294   0.561 -0.0794  0.5359  1.1148
 9883TIP3   OH251063   6.349   2.740  16.003  0.3660 -0.0123 -1.2311
 9883TIP3    H151064   6.381   2.665  16.052  0.8815  1.0176  0.0625
 9883TIP3    H251065   6.398   2.738  15.920  2.0088  0.1253 -0.3017
 9884TIP3   OH251066   1.654   4.649  11.180 -0.4231 -0.1201 -0.2933
 9884TIP3    H151067   1.728   4.591  11.196  0.4651  1.2161  0.6663
 9884TIP3    H251068   1.636   4.688  11.265  0.1972  2.3538 -1.2089
 9885TIP3   OH251069   5.913   2.287  11.176 -0.3925  0.3715  0.0593
 9885TIP3    H151070   5.825   2.272  11.141 -0.3910  1.0503 -0.2492
 9885TIP3    H251071   5.972   2.267  11.103 -0.3685  1.3754 -0.2114
 9886TIP3   OH251072   6.023   3.011  13.684 -0.2808  0.1720  0.1546
 9886TIP3    H151073   5.959   2.994  13.753  0.9451  0.5658  1.4387
 9886TIP3    H251074   6.036   3.105  13.687 -0.1478  0.1820 -0.5839
 9887TIP3   OH251075   2.600   3.531  12.710  0.8904  0.2404 -0.1064
 9887TIP3    H151076   2.629   3.621  12.725 -0.5142  0.6140  0.4724
 9887TIP3    H251077   2.516   3.539  12.665 -1.0073 -0.6446  2.9917
 9888TIP3   OH251078   2.598   5.874   0.249  0.1282 -0.7904  0.2673
 9888TIP3    H151079   2.677   5.928   0.256 -0.0837 -0.4556  0.1521
 9888TIP3    H251080   2.609   5.806   0.315  0.5432 -0.7852  0.2066
 9889TIP3   OH251081   0.040   1.554  16.113  0.1410  0.1363  0.6113
 9889TIP3    H151082  -0.011   1.512  16.044 -0.4054  0.2826  0.9230
 9889TIP3    H251083   0.091   1.621  16.068  0.4399 -0.3398  0.2243
 9890TIP3   OH251084   1.168   4.546   1.865 -0.6702 -0.2105  0.1353
 9890TIP3    H151085   1.153   4.487   1.939 -1.9206  1.2951  1.1566
 9890TIP3    H251086   1.209   4.492   1.798 -1.3820 -2.1109  1.1808
 9891TIP3   OH251087   5.142   4.809   0.251 -0.2562 -0.2688 -0.2953
 9891TIP3    H151088   5.224   4.776   0.286  0.2933 -0.4592 -1.6875
 9891TIP3    H251089   5.141   4.902   0.273  1.3369  0.2070 -2.0183
 9892TIP3   OH251090   5.707   2.164  14.696  0.1159 -0.4839 -0.0137
 9892TIP3    H151091   5.646   2.207  14.756 -0.7347 -2.1955  0.4250
 9892TIP3    H251092   5.674   2.185  14.609 -1.4531 -1.8008  0.2215
 9893TIP3   OH251093   3.135   2.597   3.039  0.1603 -0.1111 -0.0445
 9893TIP3    H151094   3.055   2.634   3.001 -0.6255 -1.0751  0.6025
 9893TIP3    H251095   3.142   2.509   3.001  0.7388 -0.1523  0.1475
 9894TIP3   OH251096   0.462   5.210   2.563  0.5012  0.0022  0.4024
 9894TIP3    H151097   0.426   5.150   2.497 -0.4207  0.5129  0.4272
 9894TIP3    H251098   0.463   5.159   2.644 -0.9313  0.2141  0.5750
 9895TIP3   OH251099   2.261   0.747   1.596  0.0248  0.1095  0.1450
 9895TIP3    H151100   2.350   0.715   1.583 -0.4579 -1.1301 -0.1813
 9895TIP3    H251101   2.205   0.676   1.567 -1.1013  0.1531  2.0452
 9896TIP3   OH251102   4.328   3.496   3.431 -0.1476  0.3668  0.4758
 9896TIP3    H151103   4.297   3.582   3.402  0.3483  0.8767  1.3823
 9896TIP3    H251104   4.278   3.478   3.510  0.0467  0.0154  0.5192
 9897TIP3   OH251105   4.251   5.282  14.027 -0.2212 -0.0014 -0.0126
 9897TIP3    H151106   4.173   5.231  14.004  0.6909 -1.6256  0.3440
 9897TIP3    H251107   4.273   5.253  14.115  0.3359  1.0194  0.1881
 9898TIP3   OH251108   2.203   1.050   0.516 -0.3127  0.1178 -0.3868
 9898TIP3    H151109   2.271   1.025   0.578 -0.6411  0.9141  0.3140
 9898TIP3    H251110   2.238   1.128   0.472 -0.9743  0.8750  0.3769
 9899TIP3   OH251111   0.217   6.403  13.993 -0.4902  0.0852 -0.2256
 9899TIP3    H151112   0.162   6.376  14.066 -0.0658 -1.7282 -0.5236
 9899TIP3    H251113   0.225   6.498  14.002 -1.0667 -0.0103  1.6312
 9900TIP3   OH251114   0.017   1.005  15.562  0.3640  0.0922  0.6926
 9900TIP3    H151115   0.060   1.056  15.493 -0.5602  1.5425  1.1437
 9900TIP3    H251116  -0.074   0.999  15.534  0.0276  0.4986  1.6541
 9901TIP3   OH251117   6.288   0.035   1.040  0.0112 -0.0583  0.6760
 9901TIP3    H151118   6.305  -0.058   1.024  1.8894  0.2667  0.5631
 9901TIP3    H251119   6.221   0.059   0.975  0.9982 -0.8650 -0.6791
 9902TIP3   OH251120   0.613   6.684   4.085 -0.6002  0.2122 -0.4399
 9902TIP3    H151121   0.681   6.728   4.136 -0.7125  0.0286 -0.1348
 9902TIP3    H251122   0.572   6.623   4.146 -0.6040 -0.1481 -0.7970
 9903TIP3   OH251123   2.342   2.284   2.896 -0.2491  0.2866 -0.1004
 9903TIP3    H151124   2.330   2.379   2.902  1.3304  0.4884  0.3930
 9903TIP3    H251125   2.431   2.273   2.862 -0.1721 -1.0093  0.4532
 9904TIP3   OH251126   0.970   4.938  13.468 -0.6473 -0.1977 -0.0742
 9904TIP3    H151127   0.912   5.009  13.496 -0.0837 -0.2895  1.4452
 9904TIP3    H251128   0.943   4.863  13.521 -0.2508 -0.7022 -0.5778
 9905TIP3   OH251129   5.143   5.256   1.035  0.1895 -0.3629 -0.0258
 9905TIP3    H151130   5.101   5.303   1.107  1.1628  0.9522 -0.2683
 9905TIP3    H251131   5.073   5.202   0.998 -0.5396 -0.4014  1.3468
 9906TIP3   OH251132   3.305   4.770   1.767 -0.2848  0.1157  0.3976
 9906TIP3    H151133   3.292   4.861   1.794  0.4630  1.2584 -2.6713
 9906TIP3    H251134   3.252   4.761   1.688 -0.6768 -2.2995  0.8770
 9907TIP3   OH251135   2.892   4.703  12.402 -0.1765 -0.3361  0.1594
 9907TIP3    H151136   2.880   4.738  12.490  0.3270 -1.3312  0.6441
 9907TIP3    H251137   2.940   4.621  12.415 -0.5945 -0.7898 -0.9901
 9908TIP3   OH251138   2.958   5.931   3.196  0.5684 -0.3216  1.1643
 9908TIP3    H151139   3.024   5.897   3.136 -0.4457 -0.8094  0.2746
 9908TIP3    H251140   2.902   5.855   3.215 -1.4205  0.6642 -0.4114
 9909TIP3   OH251141   2.592   6.424   2.118 -0.2145  0.7858  0.2581
 9909TIP3    H151142   2.605   6.336   2.084 -1.1177  0.0314  1.7820
 9909TIP3    H251143   2.530   6.465   2.058 -0.0976  0.2546 -0.2279
 9910TIP3   OH251144   3.119   2.244  13.177 -0.2924 -0.2081  0.4471
 9910TIP3    H151145   3.048   2.266  13.236 -0.7707  0.2928 -0.2971
 9910TIP3    H251146   3.125   2.318  13.117 -0.1982 -0.9391 -0.4824
 9911TIP3   OH251147   1.527   1.313  14.009  0.3094  0.7039  0.3227
 9911TIP3    H151148   1.557   1.275  14.091 -0.6517  1.4825  1.0591
 9911TIP3    H251149   1.436   1.284  14.000  0.3622  0.7401 -0.3906
 9912TIP3   OH251150   3.218   3.614   4.552 -0.8291 -0.6832  0.3585
 9912TIP3    H151151   3.265   3.698   4.550 -2.2630  0.1602  0.4284
 9912TIP3    H251152   3.258   3.563   4.482 -0.2583  0.2490 -0.0205
 9913TIP3   OH251153   2.541   0.698   6.281  0.1765 -0.1548 -0.4198
 9913TIP3    H151154   2.570   0.707   6.372 -2.7210 -0.3678  0.6483
 9913TIP3    H251155   2.534   0.788   6.249 -1.1391  0.0844  0.4570
 9914TIP3   OH251156   0.126   5.377  11.167  0.6255 -0.1529 -0.2366
 9914TIP3    H151157   0.139   5.285  11.190 -0.4637 -0.2017  0.2404
 9914TIP3    H251158   0.032   5.385  11.150  0.8220  0.7086 -1.0411
 9915TIP3   OH251159   0.918   0.148   2.014 -0.1067  0.1956 -0.0797
 9915TIP3    H151160   1.002   0.118   1.981 -0.1786 -0.8506  0.6373
 9915TIP3    H251161   0.881   0.200   1.942  0.4796 -0.6038 -0.9893
 9916TIP3   OH251162   3.677   2.892  13.928  0.7779 -0.7760 -0.0695
 9916TIP3    H151163   3.654   2.965  13.872  2.5128 -1.6198 -1.9857
 9916TIP3    H251164   3.704   2.932  14.011 -0.0765  0.5923 -0.4312
 9917TIP3   OH251165   2.311   1.565  11.921 -0.1550 -0.0328 -0.0995
 9917TIP3    H151166   2.275   1.638  11.871 -1.3243  0.7058  1.7118
 9917TIP3    H251167   2.403   1.560  11.895 -0.4818  0.9715 -1.5076
 9918TIP3   OH251168   6.133   0.972   2.449  0.5171  0.2304  0.4339
 9918TIP3    H151169   6.059   0.953   2.391 -0.4696  1.4283  1.2435
 9918TIP3    H251170   6.136   0.897   2.508  0.1824 -0.0086  0.1515
 9919TIP3   OH251171   1.731   5.576   2.914  0.1874  0.3850  0.1925
 9919TIP3    H151172   1.759   5.504   2.971 -1.6048  0.8992  1.8192
 9919TIP3    H251173   1.636   5.566   2.907  0.1571  1.4301 -1.2156
 9920TIP3   OH251174   4.598   6.266   3.757 -0.0342  0.4012 -0.0554
 9920TIP3    H151175   4.594   6.201   3.827  1.0090  0.1613 -0.1908
 9920TIP3    H251176   4.682   6.310   3.771 -0.3759  1.1916 -0.4276
 9921TIP3   OH251177   5.770   1.601  12.164  0.1399 -0.1333  0.5920
 9921TIP3    H151178   5.811   1.620  12.080  0.2548 -0.8170  0.4930
 9921TIP3    H251179   5.832   1.635  12.229 -0.5700  1.6313  0.3950
 9922TIP3   OH251180   5.154   2.740   2.691 -0.8188 -0.0884  0.3276
 9922TIP3    H151181   5.163   2.824   2.644  0.3888  0.5619  1.6492
 9922TIP3    H251182   5.170   2.762   2.782  0.0246 -1.8679  0.6453
 9923TIP3   OH251183   0.491   5.526  10.565  0.3265 -0.5446 -0.1740
 9923TIP3    H151184   0.398   5.544  10.557  0.4621 -0.4101 -1.8058
 9923TIP3    H251185   0.499   5.432  10.550  0.3810 -0.7049  0.8082
 9924TIP3   OH251186   4.579   6.608   0.625  0.5531 -0.1997  0.3752
 9924TIP3    H151187   4.649   6.546   0.602  1.1316  0.3451  0.6542
 9924TIP3    H251188   4.611   6.693   0.596  0.2317  0.1361  0.9815
 9925TIP3   OH251189   2.179   5.553   5.510  0.2103  0.3377  0.1138
 9925TIP3    H151190   2.114   5.622   5.500  0.1627  0.1564 -0.9743
 9925TIP3    H251191   2.228   5.577   5.589 -2.9685 -1.0540  2.7226
 9926TIP3   OH251192   3.892   4.643  14.325  0.0389  0.4583  0.2695
 9926TIP3    H151193   3.868   4.552  14.313 -0.9453  0.8745 -1.1524
 9926TIP3    H251194   3.813   4.685  14.359  0.0425  1.0279 -0.3971
 9927TIP3   OH251195   1.051   2.973   6.020 -0.7697  0.2501  0.5597
 9927TIP3    H151196   0.994   3.033   6.068  0.1557  2.0132 -0.4111
 9927TIP3    H251197   1.006   2.889   6.022 -2.0884  0.9433  2.0632
 9928TIP3   OH251198   2.543   0.195   4.289 -0.4185  0.2289  0.2118
 9928TIP3    H151199   2.516   0.279   4.325 -0.8632 -0.4450  1.4896
 9928TIP3    H251200   2.473   0.172   4.227 -0.4459  0.6455  0.0842
 9929TIP3   OH251201   0.715   1.049   0.776 -0.8430 -0.2033 -0.1087
 9929TIP3    H151202   0.673   1.040   0.691 -1.0982 -1.9681  0.1653
 9929TIP3    H251203   0.667   0.989   0.834  0.5191 -0.4778  0.7976
 9930TIP3   OH251204   4.186   3.696  16.958 -0.5442 -0.3866  0.2274
 9930TIP3    H151205   4.249   3.624  16.952  0.3579  0.3498  0.6611
 9930TIP3    H251206   4.109   3.656  16.998  1.3483 -0.3313  4.4368
 9931TIP3   OH251207   4.155   3.914  12.242  0.2331  0.0592  0.0654
 9931TIP3    H151208   4.209   3.944  12.169 -1.5158  0.6426 -1.0352
 9931TIP3    H251209   4.109   3.837  12.208  0.7011 -0.7196  1.1422
 9932TIP3   OH251210   3.144   4.350   0.885  0.1398 -0.0600  0.2557
 9932TIP3    H151211   3.141   4.280   0.819 -0.5543 -0.8607  1.1100
 9932TIP3    H251212   3.207   4.318   0.950 -0.6106 -0.1696  0.9396
 9933TIP3   OH251213   0.756   6.188   0.630  0.6623  0.9725  0.1347
 9933TIP3    H151214   0.672   6.230   0.644 -0.1182 -0.5937  0.3418
 9933TIP3    H251215   0.802   6.246   0.568 -1.5140  0.6707 -1.9002
 9934TIP3   OH251216   1.935   0.520   0.780  0.0721 -0.0632  0.4899
 9934TIP3    H151217   2.002   0.540   0.845  1.8824 -0.1404 -1.2462
 9934TIP3    H251218   1.879   0.597   0.777 -0.2112 -0.1633  2.2707
 9935TIP3   OH251219   4.974   5.166   2.670 -0.2199  0.2291  0.3420
 9935TIP3    H151220   5.036   5.105   2.711 -1.2666 -1.6982 -0.7597
 9935TIP3    H251221   5.009   5.180   2.582  1.0514  2.8864  1.1783
 9936TIP3   OH251222   2.860   2.751   5.141 -0.1004  0.0985  0.5357
 9936TIP3    H151223   2.828   2.757   5.230  0.1013  1.2743  0.5538
 9936TIP3    H251224   2.954   2.768   5.148  0.3345 -1.9419  0.3269
 9937TIP3   OH251225   5.825   2.417   0.322  0.6556 -0.2453 -0.5734
 9937TIP3    H151226   5.793   2.500   0.355 -0.6252 -1.2358  0.8025
 9937TIP3    H251227   5.915   2.435   0.293  0.4615  1.5459 -0.1577
 9938TIP3   OH251228   3.214   4.931   3.768  0.5801  0.9152 -0.2378
 9938TIP3    H151229   3.270   4.965   3.698 -1.3306  0.2439 -2.1960
 9938TIP3    H251230   3.253   4.846   3.789 -0.5994 -0.4051 -2.9027
 9939TIP3   OH251231   3.473   1.468  15.978 -0.3205  0.0024  0.3404
 9939TIP3    H151232   3.536   1.509  16.036  0.3158  0.2664 -0.5153
 9939TIP3    H251233   3.525   1.438  15.903 -0.9908 -1.0436  0.2615
 9940TIP3   OH251234   1.855   6.585  12.849  0.4122 -0.5455 -0.1903
 9940TIP3    H151235   1.839   6.606  12.757 -1.9907 -0.0862  0.2605
 9940TIP3    H251236   1.842   6.490  12.855 -0.7189 -0.4054 -0.1400
 9941TIP3   OH251237   6.013   5.570  15.498 -0.6985 -0.1622  0.1602
 9941TIP3    H151238   6.037   5.559  15.590  1.6906  2.2167 -0.0763
 9941TIP3    H251239   5.923   5.603  15.502 -0.6672 -0.1533  1.6160
 9942TIP3   OH251240   4.160   1.363  15.814  0.4051  0.0138 -0.4569
 9942TIP3    H151241   4.157   1.360  15.910  0.9214 -1.1759 -0.4711
 9942TIP3    H251242   4.160   1.272  15.787  0.2840  0.3430 -1.6011
 9943TIP3   OH251243   5.263   5.919   2.763 -0.1950 -0.4686 -0.6159
 9943TIP3    H151244   5.270   5.988   2.829 -0.5113 -2.4670  1.6872
 9943TIP3    H251245   5.335   5.936   2.702 -0.4682  2.0203 -0.3344
 9944TIP3   OH251246   6.175   2.910   0.672 -0.4582 -0.0466 -0.4680
 9944TIP3    H151247   6.173   2.890   0.579  1.8422  0.9618 -0.8140
 9944TIP3    H251248   6.090   2.881   0.706 -0.3576 -2.7970 -2.3482
 9945TIP3   OH251249   4.259   3.225   0.635 -0.1546 -0.6099  0.0225
 9945TIP3    H151250   4.341   3.262   0.669 -0.7340 -0.2167  1.0265
 9945TIP3    H251251   4.225   3.171   0.707 -0.5875 -1.0868 -0.5283
 9946TIP3   OH251252   0.932   6.615  16.820  0.1254  0.4035  0.0631
 9946TIP3    H151253   0.871   6.553  16.780  1.3483 -1.3791  0.8590
 9946TIP3    H251254   0.916   6.608  16.914 -0.8496  2.5733  0.1222
 9947TIP3   OH251255   4.550   4.830   3.156 -0.2618 -0.2371  0.5410
 9947TIP3    H151256   4.505   4.756   3.197  0.5559 -0.2022  1.5535
 9947TIP3    H251257   4.623   4.790   3.107  1.2409 -0.0452  2.5020
 9948TIP3   OH251258   0.414   3.550  13.493  0.0576 -0.0021  0.1455
 9948TIP3    H151259   0.372   3.568  13.577  0.4008  0.5050  0.2132
 9948TIP3    H251260   0.505   3.529  13.516  0.4610  1.2891 -0.1775
 9949TIP3   OH251261   1.560   0.330  14.217  1.1765  0.7152 -0.1171
 9949TIP3    H151262   1.598   0.387  14.150 -1.0326  2.5688  0.1125
 9949TIP3    H251263   1.504   0.387  14.269  0.2308 -1.3303  1.2465
 9950TIP3   OH251264   3.449   6.615   3.692  0.3563 -0.0394  0.2185
 9950TIP3    H151265   3.482   6.637   3.605  2.0762 -0.5565  0.7076
 9950TIP3    H251266   3.489   6.679   3.750 -1.6833  1.0285  0.5365
 9951TIP3   OH251267   0.736   4.560  11.566 -0.5979 -0.6278 -0.3354
 9951TIP3    H151268   0.698   4.608  11.639 -0.3575  0.6974 -1.0485
 9951TIP3    H251269   0.738   4.623  11.494  2.0330 -0.9094 -0.6212
 9952TIP3   OH251270   5.779   3.560  14.915 -0.8962  0.4563  0.4809
 9952TIP3    H151271   5.732   3.620  14.857 -0.8746 -0.3843 -0.4302
 9952TIP3    H251272   5.718   3.543  14.986 -0.7009  1.9805  1.0595
 9953TIP3   OH251273   0.228   6.454   5.562 -0.0275  0.1675 -0.1625
 9953TIP3    H151274   0.294   6.464   5.631  0.3890 -1.0818 -0.3430
 9953TIP3    H251275   0.269   6.488   5.483 -0.4370  1.4319  0.1497
 9954TIP3   OH251276   5.270   6.235   6.423  0.0865 -0.0664 -0.0963
 9954TIP3    H151277   5.350   6.287   6.434  0.4307 -0.7760  0.9833
 9954TIP3    H251278   5.203   6.283   6.473  0.3544 -0.5227  0.7274
 9955TIP3   OH251279   6.417   0.850   0.858 -0.2118  0.6180  0.3250
 9955TIP3    H151280   6.444   0.764   0.826  0.2408  0.6042  0.7380
 9955TIP3    H251281   6.434   0.847   0.952  0.8611  1.5566  0.1757
 9956TIP3   OH251282   2.070   4.986   2.124  0.2955 -0.0587  0.0392
 9956TIP3    H151283   2.090   5.047   2.053  0.8071  0.0318  0.2589
 9956TIP3    H251284   2.124   5.015   2.197 -0.5133  0.0849  0.5969
 9957TIP3   OH251285   2.722   2.495   2.554 -0.4896  0.2425 -0.1189
 9957TIP3    H151286   2.783   2.456   2.617 -1.9030 -0.7744  0.6742
 9957TIP3    H251287   2.709   2.585   2.585  1.0458  0.6768 -0.6539
 9958TIP3   OH251288   1.393   0.054   3.342  0.1107 -0.1964 -0.0135
 9958TIP3    H151289   1.400   0.006   3.260 -1.1402 -0.8622  0.2453
 9958TIP3    H251290   1.484   0.075   3.366  0.6264 -1.7030 -0.5581
 9959TIP3   OH251291   3.002   2.387  14.025 -0.1748 -0.2546  0.3151
 9959TIP3    H151292   3.049   2.359  13.947 -0.1175 -0.0880  0.2893
 9959TIP3    H251293   3.015   2.316  14.088  1.7173  0.6038  0.9754
 9960TIP3   OH251294   6.127   5.474  11.556  0.3397  0.2627  0.4401
 9960TIP3    H151295   6.196   5.451  11.493  0.2560 -2.8944  1.3143
 9960TIP3    H251296   6.058   5.514  11.503  0.9261 -0.8442 -1.2408
 9961TIP3   OH251297   1.199   1.642  12.038  0.4632  0.0217 -1.0927
 9961TIP3    H151298   1.106   1.623  12.055  0.6518 -1.0269 -1.1661
 9961TIP3    H251299   1.198   1.724  11.988 -0.3119  1.1632  0.6710
 9962TIP3   OH251300   6.256   2.165   5.429 -0.2360 -0.1441  0.9321
 9962TIP3    H151301   6.336   2.123   5.398 -1.1865  0.5347 -2.8840
 9962TIP3    H251302   6.272   2.259   5.416 -1.9173 -0.0465 -0.8664
 9963TIP3   OH251303   0.327   0.260   2.103  0.6262  0.0654 -0.1446
 9963TIP3    H151304   0.296   0.275   2.013 -0.8133  0.0502  0.3278
 9963TIP3    H251305   0.325   0.165   2.113  0.9515  0.0579 -0.1525
 9964TIP3   OH251306   4.681   2.867  17.106 -0.1007 -0.3063  0.2644
 9964TIP3    H151307   4.706   2.958  17.121 -0.6126 -0.4097  1.8946
 9964TIP3    H251308   4.739   2.816  17.162  0.4908 -1.0514 -0.9745
 9965TIP3   OH251309   1.036   2.956  11.852  0.2548  0.2919  0.2147
 9965TIP3    H151310   1.076   2.885  11.802 -0.9316 -0.3404  0.1352
 9965TIP3    H251311   1.011   2.916  11.935  1.3238  1.1001  0.9628
 9966TIP3   OH251312   2.415   1.817  12.915 -0.0656 -0.2149  0.2029
 9966TIP3    H151313   2.470   1.790  12.841  0.2168  0.9795 -0.0487
 9966TIP3    H251314   2.333   1.847  12.874 -0.5418 -1.0840  0.5038
 9967TIP3   OH251315   6.094   3.670   5.244 -0.1621 -0.0989 -0.3744
 9967TIP3    H151316   6.134   3.615   5.176 -0.7722  0.6925 -1.4082
 9967TIP3    H251317   6.139   3.754   5.237  0.1547 -0.1790  0.5946
 9968TIP3   OH251318   1.392   6.694  13.079  0.0152  0.4441  1.0433
 9968TIP3    H151319   1.368   6.654  13.162 -1.1447 -1.2386 -0.0298
 9968TIP3    H251320   1.476   6.654  13.056 -0.2499 -0.0149  0.8506
 9969TIP3   OH251321   0.673   2.661  13.251 -0.6113 -0.0822 -0.3899
 9969TIP3    H151322   0.734   2.613  13.307  0.2564 -1.0117 -2.0544
 9969TIP3    H251323   0.670   2.749  13.289 -0.7810 -0.9207  1.6189
 9970TIP3   OH251324   2.200   1.834   6.599 -0.2618 -1.1411  0.0703
 9970TIP3    H151325   2.252   1.794   6.530  1.3755 -2.0002  1.7514
 9970TIP3    H251326   2.258   1.900   6.638 -1.0733 -0.8434  0.8064
 9971TIP3   OH251327   2.938   3.558   4.683 -0.0863  0.0598 -0.2188
 9971TIP3    H151328   2.978   3.594   4.603  2.6321 -1.5863  0.2452
 9971TIP3    H251329   2.978   3.471   4.691 -0.0432  0.2888  3.0533
 9972TIP3   OH251330   6.049   6.726  10.870 -0.4260 -0.7224 -0.1931
 9972TIP3    H151331   6.016   6.816  10.863 -0.5103 -0.7976 -0.8415
 9972TIP3    H251332   6.142   6.736  10.888 -0.4700 -0.5089 -0.0725
 9973TIP3   OH251333   2.666   3.678   4.287 -0.2073  0.7319 -0.1495
 9973TIP3    H151334   2.756   3.675   4.318 -0.3349 -1.9971  0.2639
 9973TIP3    H251335   2.619   3.730   4.352  0.5301 -0.4257  1.3797
 9974TIP3   OH251336   0.051   4.332   1.803 -0.3061 -0.1353  0.9643
 9974TIP3    H151337   0.073   4.250   1.760 -0.7624  0.1045  0.2458
 9974TIP3    H251338   0.123   4.391   1.781 -0.3635 -0.1171  0.8222
 9975TIP3   OH251339   5.653   6.183   4.148 -0.3688  0.3924  0.6735
 9975TIP3    H151340   5.607   6.103   4.123 -1.1344  0.8628  0.5381
 9975TIP3    H251341   5.677   6.169   4.240  0.5757 -0.4748  0.3136
 9976TIP3   OH251342   5.007   4.492  15.989  0.1813  0.6952 -0.2183
 9976TIP3    H151343   4.999   4.434  15.913  1.2451 -0.5591  0.5677
 9976TIP3    H251344   5.102   4.502  16.001  0.0573  0.3272  1.3066
 9977TIP3   OH251345   3.213   5.553  16.401  0.1779 -0.1412 -0.6606
 9977TIP3    H151346   3.140   5.598  16.444 -0.4695 -1.7512  0.0021
 9977TIP3    H251347   3.183   5.463  16.392  2.6746 -1.2343  1.0630
 9978TIP3   OH251348   0.897   5.228  16.047 -0.1059 -0.5326  0.8967
 9978TIP3    H151349   0.814   5.214  16.092 -1.0726 -2.0956 -1.1709
 9978TIP3    H251350   0.873   5.280  15.970  0.9589 -0.3310  0.6928
 9979TIP3   OH251351   3.887   3.375  15.138  0.4609  0.7051 -0.3446
 9979TIP3    H151352   3.823   3.352  15.204 -0.9944  0.9072 -1.6192
 9979TIP3    H251353   3.855   3.333  15.058  2.4054  0.0729 -0.8479
 9980TIP3   OH251354   2.329   5.687  14.062  0.0029  0.1935 -0.6549
 9980TIP3    H151355   2.368   5.690  13.974  0.8542  2.1068 -0.2546
 9980TIP3    H251356   2.389   5.736  14.117 -0.3646 -1.2325  1.1108
 9981TIP3   OH251357   4.542   6.237  12.611 -0.2410  0.2241  0.0231
 9981TIP3    H151358   4.628   6.276  12.626 -0.5424  1.0406 -0.3020
 9981TIP3    H251359   4.527   6.182  12.688  1.7147 -2.1045 -1.1205
 9982TIP3   OH251360   4.460   3.608  12.556  0.1069  0.2049  0.0051
 9982TIP3    H151361   4.391   3.545  12.577 -0.1009  0.2106 -0.6518
 9982TIP3    H251362   4.531   3.586  12.617 -0.8116  0.7972  1.3367
 9983TIP3   OH251363   6.700   0.203   3.542  0.5294 -0.4448 -0.3494
 9983TIP3    H151364   6.752   0.258   3.600  0.3586 -2.1113  1.5120
 9983TIP3    H251365   6.740   0.213   3.456  2.8224 -0.2858  0.6707
 9984TIP3   OH251366   2.847   3.107  11.255 -0.1619 -0.2172  0.1725
 9984TIP3    H151367   2.831   3.014  11.241  1.0116 -0.5246  0.7307
 9984TIP3    H251368   2.834   3.119  11.350  2.1310 -0.3637  0.5529
 9985TIP3   OH251369   0.583   1.572   3.791 -0.1823  0.2169  0.0628
 9985TIP3    H151370   0.594   1.497   3.849  0.9507  0.4842  0.2099
 9985TIP3    H251371   0.588   1.536   3.703  1.6230  0.2641  0.1208
 9986TIP3   OH251372   4.305   1.413  16.280  0.5189 -0.2248 -0.2804
 9986TIP3    H151373   4.241   1.470  16.238  0.3978 -1.1554 -1.4155
 9986TIP3    H251374   4.294   1.430  16.374  0.0667  1.1443 -0.5632
 9987TIP3   OH251375   1.147   0.123   3.387  0.2483 -0.0075 -0.5642
 9987TIP3    H151376   1.234   0.088   3.371  0.6585  0.2650  0.9397
 9987TIP3    H251377   1.116   0.075   3.464 -0.6930  0.3105 -0.7372
 9988TIP3   OH251378   5.666   1.575  13.090 -0.6526 -0.2608  0.4249
 9988TIP3    H151379   5.630   1.490  13.117 -2.5323  0.7716  1.3610
 9988TIP3    H251380   5.755   1.555  13.061 -1.5420 -2.7694 -0.8535
 9989TIP3   OH251381   0.252   2.258  12.695 -0.0075  0.1285  0.5288
 9989TIP3    H151382   0.171   2.218  12.664 -0.1931  1.6239 -1.0975
 9989TIP3    H251383   0.322   2.208  12.652 -0.1344 -0.0872  0.5734
 9990TIP3   OH251384   1.790   1.445   2.447 -0.6098 -0.1385 -0.3804
 9990TIP3    H151385   1.864   1.386   2.457  0.1610  0.4315 -2.3848
 9990TIP3    H251386   1.829   1.531   2.430 -1.6572 -0.0380 -2.6952
 9991TIP3   OH251387   0.793   6.401  16.744  0.0649 -0.0641  0.3991
 9991TIP3    H151388   0.878   6.358  16.745  0.1489  0.0593 -0.3485
 9991TIP3    H251389   0.765   6.395  16.652 -0.5481  0.2440  0.5642
 9992TIP3   OH251390   1.885   2.214   0.760 -0.3786 -0.0102 -0.0619
 9992TIP3    H151391   1.817   2.262   0.807 -0.9446 -1.4844  0.6825
 9992TIP3    H251392   1.847   2.197   0.674 -0.8804 -0.6332  0.2752
 9993TIP3   OH251393   2.172   1.650   3.622  0.3840  0.6223 -0.1449
 9993TIP3    H151394   2.263   1.644   3.591  0.1164  2.1725 -1.3384
 9993TIP3    H251395   2.119   1.631   3.545 -0.3127  0.6869  0.3079
 9994TIP3   OH251396   1.408   6.079  14.658  0.2741 -0.1818  0.6247
 9994TIP3    H151397   1.318   6.070  14.628 -0.3910  1.2687  2.0744
 9994TIP3    H251398   1.459   6.093  14.578 -0.6583 -1.6462 -0.2665
 9995TIP3   OH251399   2.760   0.111   3.139  0.5343 -0.1017  0.2604
 9995TIP3    H151400   2.760   0.207   3.136  2.6389 -0.0479  0.4366
 9995TIP3    H251401   2.718   0.090   3.223  0.8557  0.7151  0.6429
 9996TIP3   OH251402   2.817   5.037   1.195  0.9490 -0.7091  0.2053
 9996TIP3    H151403   2.866   4.961   1.162 -0.0071 -1.3779  0.2860
 9996TIP3    H251404   2.882   5.107   1.199  1.7989 -1.4550 -0.1054
 9997TIP3   OH251405   3.627   1.698  15.464  0.5076  0.3274 -0.4680
 9997TIP3    H151406   3.565   1.687  15.536  0.6532  0.3585 -0.3399
 9997TIP3    H251407   3.661   1.610  15.447  0.9065  0.4133 -0.1176
 9998TIP3   OH251408   2.345   5.995  15.015  0.7611  0.2502  0.2603
 9998TIP3    H151409   2.363   6.080  15.054  3.3211  0.5643 -1.3653
 9998TIP3    H251410   2.382   6.001  14.927 -0.3303 -2.0591 -0.4257
 9999TIP3   OH251411   3.845   6.230  12.450 -0.3155  0.5711 -0.0223
 9999TIP3    H151412   3.822   6.291  12.520 -0.3385  0.3254  0.1849
 9999TIP3    H251413   3.879   6.153  12.495 -1.8076 -0.2319 -0.1804
10000TIP3   OH251414   3.902   3.442  13.624 -0.2821  0.0920  0.2269
10000TIP3    H151415   3.940   3.529  13.633 -1.9190  0.9408 -0.5343
10000TIP3    H251416   3.849   3.430  13.702  0.5863 -0.5895  0.7265
10001TIP3   OH251417   1.147   5.284   3.120  0.1894  0.5365  0.3230
10001TIP3    H151418   1.115   5.312   3.206 -0.6490 -1.9909  0.9414
10001TIP3    H251419   1.067   5.264   3.071  0.5840  3.3176 -1.6601
10002TIP3   OH251420   6.399   2.475  12.326 -0.1588 -0.0144  0.2017
10002TIP3    H151421   6.325   2.414  12.330  1.6454 -2.4860 -1.0603
10002TIP3    H251422   6.413   2.489  12.232 -0.3617  2.2597  0.4545
10003TIP3   OH251423   0.328   3.261  16.130  0.3532  0.3237  0.1528
10003TIP3    H151424   0.345   3.309  16.049  0.4232  0.9216  0.5199
10003TIP3    H251425   0.270   3.190  16.103 -0.2864  0.9968 -0.2909
10004TIP3   OH251426   6.595   6.160  15.708  0.1753 -0.8148  0.2544
10004TIP3    H151427   6.674   6.181  15.658 -0.5072  1.7757  0.1105
10004TIP3    H251428   6.611   6.198  15.795 -0.9731 -0.0096  0.1430
10005TIP3   OH251429   3.154   2.595  13.532 -0.0717 -0.6072  0.1097
10005TIP3    H151430   3.203   2.515  13.549  1.3860  0.4174  0.9185
10005TIP3    H251431   3.073   2.585  13.583  0.9945 -0.7226  1.8592
10006TIP3   OH251432   5.210   6.222  14.535  0.1539  0.1322 -0.4353
10006TIP3    H151433   5.281   6.285  14.522 -1.2632  1.4384 -2.3243
10006TIP3    H251434   5.206   6.173  14.453  0.4961 -1.7130  0.5974
10007TIP3   OH251435   2.096   5.095   5.389 -0.4032 -0.1815 -0.6813
10007TIP3    H151436   2.020   5.096   5.448 -0.2946 -0.3353 -0.5372
10007TIP3    H251437   2.126   5.004   5.391 -0.4080 -0.1899 -0.9878
10008TIP3   OH251438   5.477   4.995  11.506 -1.0009 -0.0914  0.3797
10008TIP3    H151439   5.463   4.968  11.415  0.3960  0.9533 -0.1732
10008TIP3    H251440   5.539   4.931  11.541 -0.9885 -0.0781  0.3815
10009TIP3   OH251441   2.503   0.111   5.188  0.1083 -0.3493  0.2638
10009TIP3    H151442   2.505   0.205   5.201 -0.6361 -0.0987 -1.2691
10009TIP3    H251443   2.472   0.099   5.098  1.7547 -2.0080 -0.1634
10010TIP3   OH251444   6.681   2.519   0.505 -0.3545 -0.1566 -0.1790
10010TIP3    H151445   6.589   2.495   0.495  0.0102 -1.4646 -0.6624
10010TIP3    H251446   6.715   2.523   0.415 -0.0115  0.6782 -0.0250
10011TIP3   OH251447   4.835   5.906  15.694  0.1715 -0.4225  0.1247
10011TIP3    H151448   4.812   5.857  15.773 -0.9362 -0.1721 -0.0297
10011TIP3    H251449   4.871   5.988  15.726  0.6147 -0.7083  0.3694
10012TIP3   OH251450   3.021   4.813   4.162 -0.5296 -0.2881  0.0773
10012TIP3    H151451   3.091   4.865   4.200 -1.2899  1.4830 -0.8376
10012TIP3    H251452   3.042   4.807   4.069 -0.6400 -1.3438  0.1025
10013TIP3   OH251453   2.679   2.345  11.104 -0.5120  0.6136 -0.2299
10013TIP3    H151454   2.759   2.343  11.053  0.2939 -1.9717  1.0076
10013TIP3    H251455   2.708   2.367  11.193 -0.8596 -1.9597  0.5905
10014TIP3   OH251456   6.600   6.361  15.922  0.3996  0.2009 -0.4882
10014TIP3    H151457   6.508   6.371  15.947  0.5813  0.4607  0.1136
10014TIP3    H251458   6.610   6.417  15.845 -0.3936 -1.3264 -1.7627
10015TIP3   OH251459   6.581   3.241   0.211 -0.1320  0.0201 -0.4778
10015TIP3    H151460   6.596   3.300   0.137  2.7848  3.4421  2.4559
10015TIP3    H251461   6.651   3.176   0.206 -0.3321 -0.1604 -1.0099
10016TIP3   OH251462   5.884   5.430   1.782 -0.0752  0.0615 -0.5033
10016TIP3    H151463   5.804   5.421   1.730 -1.1858  1.1787  0.9401
10016TIP3    H251464   5.857   5.410   1.871  1.6859 -1.3185 -0.2268
10017TIP3   OH251465   4.368   4.684   1.929 -0.5552 -0.2416 -0.4015
10017TIP3    H151466   4.316   4.606   1.949 -0.5745 -0.0054  0.5099
10017TIP3    H251467   4.456   4.650   1.912 -1.0237 -0.6624 -2.1454
10018TIP3   OH251468   6.038   0.628  13.373  0.3610  0.2447 -0.0908
10018TIP3    H151469   6.014   0.658  13.285  1.3011  0.6251 -0.2283
10018TIP3    H251470   6.068   0.538  13.360 -0.4791 -0.0650  0.0118
10019TIP3   OH251471   5.588   6.758   1.932 -0.4759 -0.0194 -0.2125
10019TIP3    H151472   5.672   6.713   1.927  0.0392  0.9111 -0.3345
10019TIP3    H251473   5.610   6.850   1.914 -1.5603  0.1913 -0.5009
10020TIP3   OH251474   2.060   1.367   6.833 -0.4778  0.0783 -0.3957
10020TIP3    H151475   2.069   1.325   6.748  0.3878 -0.3233 -0.1194
10020TIP3    H251476   2.145   1.407   6.849 -0.2007 -0.9199  0.8248
10021TIP3   OH251477   5.883   4.187  11.768  0.3468 -0.0030  0.1340
10021TIP3    H151478   5.935   4.108  11.752 -1.2239 -1.8292  3.1136
10021TIP3    H251479   5.792   4.158  11.760 -0.3486  0.7844  3.5309
10022TIP3   OH251480   1.503   0.744   6.726 -0.3543 -0.0251 -0.1130
10022TIP3    H151481   1.502   0.661   6.773  0.7291  0.7510  1.3453
10022TIP3    H251482   1.540   0.807   6.788  0.0694  1.2831 -1.6198
10023TIP3   OH251483   4.156   2.479  14.408 -0.0518 -0.0421  0.0804
10023TIP3    H151484   4.158   2.552  14.345  1.8061 -1.1981 -1.3280
10023TIP3    H251485   4.209   2.510  14.481  0.7095  0.0806 -0.4980
10024TIP3   OH251486   3.350   4.415   1.071  0.6512 -0.0583  0.0503
10024TIP3    H151487   3.337   4.342   1.132  1.4932 -0.0387  0.2751
10024TIP3    H251488   3.413   4.472   1.115 -1.0098  1.5175  0.4642
10025TIP3   OH251489   3.313   0.581  16.694  0.0541  0.1721  0.2345
10025TIP3    H151490   3.401   0.615  16.684  0.7127 -1.6705 -0.7594
10025TIP3    H251491   3.319   0.520  16.768 -0.6332  0.7521  0.7839
10026TIP3   OH251492   3.443   5.369  11.219  0.4324 -0.1228 -0.0219
10026TIP3    H151493   3.411   5.400  11.134 -0.2796 -0.4005  0.1327
10026TIP3    H251494   3.446   5.447  11.273 -1.4906 -0.2884  0.4086
10027TIP3   OH251495   4.130   0.526  12.936  0.0831  0.2762  0.1988
10027TIP3    H151496   4.181   0.590  12.886  3.1242 -0.8973  1.5902
10027TIP3    H251497   4.106   0.571  13.017 -1.8107  1.0360 -0.7178
10028TIP3   OH251498   1.753   0.939   6.548  0.8095  0.5071  0.3688
10028TIP3    H151499   1.848   0.945   6.534  0.7023 -0.5037 -0.9557
10028TIP3    H251500   1.742   0.863   6.604  0.6171 -1.4128 -2.1205
10029TIP3   OH251501   0.673   6.098  11.879  0.7660  0.4929  0.1934
10029TIP3    H151502   0.731   6.089  11.955 -0.7103  1.5284  1.5147
10029TIP3    H251503   0.716   6.161  11.822  0.5742  1.9544  1.5852
10030TIP3   OH251504   3.558   5.346  16.354 -0.7100  0.0286  0.3256
10030TIP3    H151505   3.530   5.358  16.263  0.0294  1.6150  0.2755
10030TIP3    H251506   3.509   5.411  16.404 -0.8931 -0.6334  1.0283
10031TIP3   OH251507   2.111   5.138  11.335 -0.0154  0.3561 -0.2317
10031TIP3    H151508   2.066   5.055  11.353  1.3278 -0.6586 -1.2960
10031TIP3    H251509   2.107   5.186  11.418 -1.2190 -0.5632  0.2778
10032TIP3   OH251510   2.871   1.903  16.537  0.0246 -0.3353 -0.1129
10032TIP3    H151511   2.785   1.861  16.525  0.1850 -1.3034  1.7947
10032TIP3    H251512   2.851   1.997  16.537 -0.7843 -0.4805 -1.3205
10033TIP3   OH251513   3.080   5.983   2.711 -0.2390  0.3202  0.1285
10033TIP3    H151514   3.122   6.059   2.753 -0.3192  0.2420  0.3524
10033TIP3    H251515   3.133   5.908   2.738  0.0755  0.3393 -0.4169
10034TIP3   OH251516   2.686   0.985  14.111  0.4843  0.0872  0.1353
10034TIP3    H151517   2.600   1.026  14.099  0.0178 -0.1402  2.3332
10034TIP3    H251518   2.745   1.037  14.057 -0.4114  2.5248  1.3600
10035TIP3   OH251519   0.811   0.335   5.176  0.4286  0.2246  0.4311
10035TIP3    H151520   0.845   0.424   5.173  0.6628  0.1969  1.5035
10035TIP3    H251521   0.822   0.301   5.087  0.0466  1.3602 -0.0630
10036TIP3   OH251522   5.030   6.550   4.807 -0.4359 -0.5465  0.7769
10036TIP3    H151523   5.095   6.532   4.876 -1.1585 -1.1155  1.3243
10036TIP3    H251524   4.975   6.472   4.805 -1.3108  0.0594  0.5536
10037TIP3   OH251525   3.142   0.125   6.029 -0.0834  0.1534  0.2109
10037TIP3    H151526   3.047   0.111   6.024 -0.6564  3.2917 -0.4040
10037TIP3    H251527   3.161   0.184   5.956  2.5425 -1.0214 -0.1735
10038TIP3   OH251528   4.953   5.445  16.212 -0.1516 -0.1194  0.3933
10038TIP3    H151529   4.964   5.477  16.301 -0.5920 -2.1099  1.1997
10038TIP3    H251530   4.859   5.450  16.195  0.0768  1.8549 -0.6449
10039TIP3   OH251531   5.601   4.978   0.438 -0.2171 -0.3325  0.0262
10039TIP3    H151532   5.541   4.972   0.364  0.2525 -0.9423 -0.3243
10039TIP3    H251533   5.687   4.992   0.397 -0.0030 -0.3342  0.4729
10040TIP3   OH251534   5.044   0.733   1.653  0.0990  0.1146 -0.2975
10040TIP3    H151535   5.119   0.771   1.609  0.2743 -0.0476 -0.1386
10040TIP3    H251536   4.999   0.682   1.585  1.3518 -1.6095  0.1129
10041TIP3   OH251537   5.092   4.967  11.449  0.5303 -0.3385 -0.0160
10041TIP3    H151538   5.120   4.906  11.380  1.3128 -0.9606  0.8374
10041TIP3    H251539   5.173   5.004  11.483  0.0616  1.5951 -0.8359
10042TIP3   OH251540   6.536   0.634  12.132  0.6254  0.7170  0.0120
10042TIP3    H151541   6.486   0.561  12.096  0.8291  0.3123  0.5471
10042TIP3    H251542   6.531   0.702  12.064 -1.4660  1.0583  0.4355
10043TIP3   OH251543   0.467   2.917  17.308  0.4636 -0.0745 -0.1588
10043TIP3    H151544   0.552   2.876  17.291 -0.5296 -1.6299 -1.7856
10043TIP3    H251545   0.410   2.881  17.240 -1.3576  1.4090  0.5069
10044TIP3   OH251546   2.883   6.316   3.615  0.5132  0.0509  0.0535
10044TIP3    H151547   2.973   6.288   3.635  0.7153  1.2053  0.8221
10044TIP3    H251548   2.833   6.292   3.692  0.6575  1.6289  0.6575
10045TIP3   OH251549   2.948   5.103   2.066 -0.1521 -0.0078 -0.1062
10045TIP3    H151550   2.991   5.103   1.980 -0.4431 -1.1774 -0.2658
10045TIP3    H251551   3.005   5.156   2.121 -1.0893  2.6831 -1.5428
10046TIP3   OH251552   1.853   2.443   2.023  0.1173  0.6922  0.4618
10046TIP3    H151553   1.765   2.457   1.989  0.7535  2.7590 -0.4531
10046TIP3    H251554   1.882   2.530   2.050  1.5686 -0.1015  1.5570
10047TIP3   OH251555   6.266   2.159   0.217 -0.0285 -0.3730  0.6091
10047TIP3    H151556   6.321   2.102   0.271 -0.6332 -0.5372  1.0641
10047TIP3    H251557   6.272   2.245   0.258  1.2397  0.0244 -0.3345
10048TIP3   OH251558   2.587   1.907   0.945  0.0558 -0.1535 -0.5609
10048TIP3    H151559   2.554   1.959   0.872 -1.0155  0.3791  0.2790
10048TIP3    H251560   2.603   1.821   0.907  0.3050  0.3414 -1.6065
10049TIP3   OH251561   2.146   3.005   1.448  0.1302 -0.9824 -0.2255
10049TIP3    H151562   2.056   2.981   1.428  0.1704 -0.3298 -1.2552
10049TIP3    H251563   2.176   3.053   1.371  0.6547  0.7378  0.9707
10050TIP3   OH251564   1.909   5.239   6.257 -0.1874  0.5775  0.3251
10050TIP3    H151565   1.981   5.295   6.228  0.5476 -0.4494  0.1095
10050TIP3    H251566   1.853   5.296   6.308 -0.6276  2.0580 -1.6971
10051TIP3   OH251567   3.748   3.981   3.358  0.4569  0.2147  0.0205
10051TIP3    H151568   3.684   3.951   3.292  1.0211 -0.4618 -0.2349
10051TIP3    H251569   3.706   4.055   3.400 -0.0277  0.5007 -0.9373
10052TIP3   OH251570   0.714   5.121   2.776 -0.1999 -0.3242  0.1604
10052TIP3    H151571   0.635   5.068   2.769 -1.0176  0.8279  0.3346
10052TIP3    H251572   0.780   5.072   2.728 -0.9341 -1.4693  0.2823
10053TIP3   OH251573   6.285   1.844  13.808  0.3907  0.0702 -0.0771
10053TIP3    H151574   6.309   1.752  13.819 -0.0494 -0.0294  0.0912
10053TIP3    H251575   6.267   1.854  13.715  2.7462  0.5677 -0.5264
10054TIP3   OH251576   6.562   3.283   3.188  0.5683  0.1648  0.0238
10054TIP3    H151577   6.537   3.370   3.159 -3.7909 -0.3476  1.4165
10054TIP3    H251578   6.609   3.245   3.114  0.2717  2.7666 -1.6194
10055TIP3   OH251579   0.152   1.979   3.623  0.3320 -0.5432 -0.1830
10055TIP3    H151580   0.152   2.073   3.645  1.4585 -0.3944 -0.7250
10055TIP3    H251581   0.075   1.944   3.668 -1.0138  0.9274 -1.2139
10056TIP3   OH251582   5.160   2.272   4.194  0.2233 -0.0829 -0.0717
10056TIP3    H151583   5.123   2.226   4.269  1.0111 -0.9208 -0.1803
10056TIP3    H251584   5.229   2.214   4.161 -0.4755  0.0093 -1.7993
10057TIP3   OH251585   2.171   0.465   5.058 -0.5379  0.5200  0.1762
10057TIP3    H151586   2.159   0.398   4.990 -1.3196 -1.3865  2.0928
10057TIP3    H251587   2.256   0.504   5.038  0.3267 -1.6281 -0.5586
10058TIP3   OH251588   4.564   4.827   0.909 -0.4324 -0.0545 -0.1916
10058TIP3    H151589   4.597   4.913   0.932 -0.8745 -0.0247  0.3569
10058TIP3    H251590   4.475   4.825   0.944 -0.6088 -0.5406 -0.6564
10059TIP3   OH251591   2.899   2.433  16.917 -0.5818 -0.3901  0.2910
10059TIP3    H151592   2.930   2.345  16.939 -1.7715 -0.8294  0.2774
10059TIP3    H251593   2.825   2.448  16.976  0.2549  1.0458  1.0220
10060TIP3   OH251594   3.420   5.954  10.745  0.6133 -0.0985 -0.6462
10060TIP3    H151595   3.474   5.994  10.677  1.2837  1.1310  0.5524
10060TIP3    H251596   3.339   6.005  10.745 -0.0722 -1.1428 -1.5951
10061TIP3   OH251597   1.821   6.159   1.894 -0.7394 -0.5955  0.2607
10061TIP3    H151598   1.834   6.114   1.811  0.7918 -0.1240  0.2082
10061TIP3    H251599   1.847   6.250   1.876  0.4420 -0.6720  1.4468
10062TIP3   OH251600   0.386   2.000   4.034 -0.2763 -0.3688  0.1930
10062TIP3    H151601   0.340   2.049   3.966  2.4065  1.5085 -0.4381
10062TIP3    H251602   0.452   1.949   3.987  0.6917 -0.1387  1.2506
10063TIP3   OH251603   6.503   1.392  10.954 -0.1168 -0.1011 -0.0737
10063TIP3    H151604   6.531   1.483  10.964  0.4710 -0.1140 -1.3531
10063TIP3    H251605   6.410   1.397  10.932 -0.1356  0.1786  0.0667
10064TIP3   OH251606   0.970   0.939   1.730  0.1551 -0.4726  1.1469
10064TIP3    H151607   0.898   0.885   1.765  0.6528 -2.7045 -0.9901
10064TIP3    H251608   0.953   0.944   1.636  2.4080 -0.4766  0.6846
10065TIP3   OH251609   0.944   5.970  13.453 -0.5045  0.5382 -0.1729
10065TIP3    H151610   1.030   6.013  13.450 -0.2688  0.2275  1.2043
10065TIP3    H251611   0.964   5.876  13.449 -0.8968  0.4830 -1.3092
10066TIP3   OH251612   1.414   5.585  14.390  0.1794  0.6362 -0.9697
10066TIP3    H151613   1.385   5.618  14.475  0.2710 -0.7313 -0.3884
10066TIP3    H251614   1.360   5.508  14.374  1.1702  0.0295 -1.4576
10067TIP3   OH251615   5.562   3.885   1.206 -0.5553  0.0464  0.6756
10067TIP3    H151616   5.491   3.866   1.267 -0.1217  0.1854  1.2239
10067TIP3    H251617   5.632   3.824   1.230 -0.5247 -0.1724  0.0611
10068TIP3   OH251618   3.713   3.871   2.772 -0.1547 -0.4155  0.0932
10068TIP3    H151619   3.663   3.906   2.698 -1.3232 -0.4144  0.8610
10068TIP3    H251620   3.785   3.933   2.784 -0.0765 -0.3025 -0.8942
10069TIP3   OH251621   0.618   2.922   1.434  0.0547 -0.4473  0.0221
10069TIP3    H151622   0.676   2.911   1.509  2.8367  0.8659 -1.7860
10069TIP3    H251623   0.538   2.959   1.471  1.0689 -0.4451  2.3832
10070TIP3   OH251624   6.334   2.330   2.507  0.4687  0.0106  0.3178
10070TIP3    H151625   6.294   2.256   2.553  0.6017 -0.5810 -0.4874
10070TIP3    H251626   6.277   2.404   2.527 -0.2687 -0.5317  0.2972
10071TIP3   OH251627   0.659   5.559  16.862 -0.3010 -0.4344 -0.5754
10071TIP3    H151628   0.702   5.511  16.932 -2.0150 -0.3717  0.5828
10071TIP3    H251629   0.720   5.629  16.839  1.2012 -1.7171 -0.6505
10072TIP3   OH251630   0.774   2.388   0.972 -0.2247 -0.1425  0.0541
10072TIP3    H151631   0.849   2.334   0.948 -0.0760 -0.0520  0.3069
10072TIP3    H251632   0.708   2.370   0.905 -0.3258 -0.9441  0.3607
10073TIP3   OH251633   6.107   2.402   4.276  0.0660 -0.1380 -0.0999
10073TIP3    H151634   6.065   2.376   4.194 -0.6555 -0.6189  0.4052
10073TIP3    H251635   6.088   2.495   4.285  0.8075  0.0916 -0.8544
10074TIP3   OH251636   3.269   2.105  16.852 -0.1186  0.0721  0.3502
10074TIP3    H151637   3.307   2.020  16.874 -0.6210 -0.4041 -0.5408
10074TIP3    H251638   3.195   2.116  16.912  0.6860  0.4525  1.2868
10075TIP3   OH251639   2.732   6.727   1.914  0.0132 -0.1111  0.1215
10075TIP3    H151640   2.808   6.765   1.958 -0.9495  0.0468  1.7544
10075TIP3    H251641   2.658   6.781   1.943 -0.9094 -1.0788 -0.3459
10076TIP3   OH251642   1.269   5.684   3.850 -0.2350 -0.2045 -0.1451
10076TIP3    H151643   1.175   5.667   3.854 -0.8815  1.7001 -3.2726
10076TIP3    H251644   1.310   5.599   3.864 -2.4907 -1.3525 -0.0711
10077TIP3   OH251645   5.258   3.730  13.776  0.1011  0.4554  0.0799
10077TIP3    H151646   5.322   3.719  13.847 -0.7586 -0.7666  0.6967
10077TIP3    H251647   5.173   3.718  13.818 -0.4310 -0.3842 -1.1707
10078TIP3   OH251648   0.651   5.490  15.517 -0.2939 -0.2795  0.0164
10078TIP3    H151649   0.605   5.574  15.525  1.8336  1.0336 -0.7193
10078TIP3    H251650   0.650   5.471  15.424 -0.1873 -0.7421  0.1089
10079TIP3   OH251651   0.290   3.964   0.408 -0.2720 -0.1774 -0.5403
10079TIP3    H151652   0.287   3.879   0.453 -1.0052 -0.6260 -1.3974
10079TIP3    H251653   0.206   4.005   0.428  0.5289  0.8673  0.8062
10080TIP3   OH251654   6.768   3.825   0.185 -0.6674  0.8129 -0.2251
10080TIP3    H151655   6.746   3.788   0.099  0.6525 -0.1962 -0.1474
10080TIP3    H251656   6.834   3.766   0.220  0.7830  2.7065  0.3399
10081TIP3   OH251657   6.482   0.060   0.667 -0.2115 -0.2710 -0.1395
10081TIP3    H151658   6.499   0.040   0.575  2.8698  0.3579  0.1696
10081TIP3    H251659   6.534  -0.004   0.716 -0.5798  0.3478  1.1112
10082TIP3   OH251660   6.714   3.732  13.990  0.2219 -0.0027  0.7238
10082TIP3    H151661   6.758   3.678  14.056  0.7484  1.6866  1.8073
10082TIP3    H251662   6.715   3.821  14.026 -3.0711  0.3412  0.2869
10083TIP3   OH251663   2.790   3.939  13.674  0.1414  0.1141  0.5761
10083TIP3    H151664   2.873   3.918  13.715  0.1510 -1.6413 -0.2365
10083TIP3    H251665   2.814   3.983  13.592  0.4161 -2.2705 -0.6981
10084TIP3   OH251666   1.990   0.013  15.153  0.5394  0.2336  0.0401
10084TIP3    H151667   1.966   0.013  15.060 -2.1703  0.6388  0.6436
10084TIP3    H251668   2.075   0.056  15.156  1.3990 -1.1395 -2.3825
10085TIP3   OH251669   4.252   2.442   1.317  0.3236  0.2460 -0.0701
10085TIP3    H151670   4.171   2.405   1.283  1.3938 -1.7065 -0.6844
10085TIP3    H251671   4.279   2.380   1.385  1.2906  0.8672  0.1275
10086TIP3   OH251672   0.107   4.405   0.142  0.2646  0.4116  0.4108
10086TIP3    H151673   0.056   4.323   0.140 -0.9958  0.9535  3.5368
10086TIP3    H251674   0.042   4.473   0.124  1.2785  0.8425 -2.0106
10087TIP3   OH251675   2.314   6.735   2.435 -0.2268 -0.2023 -0.0256
10087TIP3    H151676   2.234   6.737   2.487  0.0885 -0.2232  0.4731
10087TIP3    H251677   2.380   6.775   2.492  0.3293 -1.0492 -0.0596
10088TIP3   OH251678   2.675   5.627   5.020 -0.0392  0.2012 -0.1146
10088TIP3    H151679   2.662   5.685   4.945  1.1026  1.1883  0.4186
10088TIP3    H251680   2.697   5.686   5.092  1.1011 -0.8812  0.4530
10089TIP3   OH251681   1.957   5.546  16.816  0.0196 -0.4558 -0.0113
10089TIP3    H151682   1.956   5.462  16.771 -0.4387 -0.0640 -0.7411
10089TIP3    H251683   2.035   5.590  16.783  1.8129 -1.6225  2.3479
10090TIP3   OH251684   5.905   5.938  11.778 -0.2943 -0.1131  0.4222
10090TIP3    H151685   5.991   5.958  11.817 -0.2482 -0.3330  0.4337
10090TIP3    H251686   5.917   5.951  11.684 -0.4346  0.5233  0.4883
10091TIP3   OH251687   4.723   3.884  13.177 -0.3015 -0.2298 -0.2419
10091TIP3    H151688   4.661   3.939  13.129  2.4729  2.9916 -0.4543
10091TIP3    H251689   4.676   3.859  13.257 -2.0729  1.6076 -0.6238
10092TIP3   OH251690   1.940   3.262   0.135 -0.1317  0.4632  0.6249
10092TIP3    H151691   1.976   3.288   0.220 -0.1758 -0.4606  0.9337
10092TIP3    H251692   1.853   3.228   0.154 -0.0986  0.1397  0.2332
10093TIP3   OH251693   2.545   3.242   4.875 -0.5201 -0.1633  0.7204
10093TIP3    H151694   2.458   3.207   4.853 -0.1408 -1.2973  0.9293
10093TIP3    H251695   2.578   3.182   4.942  0.1756  0.6200  1.0988
10094TIP3   OH251696   6.640   6.548  16.756 -0.5414  1.0370 -0.4668
10094TIP3    H151697   6.578   6.481  16.726  0.1594 -1.1771  2.4822
10094TIP3    H251698   6.715   6.540  16.698 -0.6894 -0.4341 -0.4851
10095TIP3   OH251699   3.491   2.370  15.693  1.0666  0.1641 -0.1530
10095TIP3    H151700   3.530   2.290  15.729 -0.1882 -0.8684 -0.9458
10095TIP3    H251701   3.446   2.339  15.614 -0.1180  1.5315 -0.0345
10096TIP3   OH251702   2.824   3.896  14.064  0.2888 -0.0814  0.0025
10096TIP3    H151703   2.805   3.980  14.107  1.0952  0.1498 -0.0782
10096TIP3    H251704   2.900   3.861  14.111  0.3961 -0.4285 -0.4225
10097TIP3   OH251705   2.467   4.908  14.080  0.2161 -0.1371 -0.1269
10097TIP3    H151706   2.448   4.978  14.017 -0.1900 -2.3067 -2.6296
10097TIP3    H251707   2.551   4.932  14.118 -0.0375  1.8283 -0.6984
10098TIP3   OH251708   2.311   4.439   5.700 -0.1333  0.4037 -0.1451
10098TIP3    H151709   2.391   4.487   5.719 -0.2095  0.4369  0.0911
10098TIP3    H251710   2.255   4.502   5.655  0.1245  0.2672 -0.6666
10099TIP3   OH251711   5.999   4.887   3.150  0.1540  0.1181 -0.4642
10099TIP3    H151712   5.919   4.901   3.201  0.6428  0.3635  0.2489
10099TIP3    H251713   5.970   4.890   3.058 -0.6069  0.4564 -0.2203
10100TIP3   OH251714   0.413   3.606   2.289 -0.9047  0.4048  0.4699
10100TIP3    H151715   0.331   3.563   2.265 -0.5191 -0.3028  0.4186
10100TIP3    H251716   0.407   3.693   2.248 -1.1517 -0.0372 -0.4556
10101TIP3   OH251717   0.574   0.812  12.163 -0.2133  0.2691 -0.0262
10101TIP3    H151718   0.536   0.808  12.251 -1.0689  0.9960 -0.3555
10101TIP3    H251719   0.520   0.753  12.110 -0.1372  0.3814 -0.2331
10102TIP3   OH251720   4.380   2.334   0.080  0.1716 -0.2190  0.1469
10102TIP3    H151721   4.386   2.262   0.143 -0.4984 -0.8173 -0.4651
10102TIP3    H251722   4.465   2.379   0.088  0.7255 -1.2534  0.3076
10103TIP3   OH251723   5.234   5.026  12.037 -0.6734 -0.4676  0.2348
10103TIP3    H151724   5.151   5.074  12.035 -0.6241 -0.3879 -1.9631
10103TIP3    H251725   5.293   5.082  12.087 -1.9779 -0.6684  2.1197
10104TIP3   OH251726   3.887   0.292   4.282  0.6428  0.0856  0.1154
10104TIP3    H151727   3.909   0.385   4.276  2.9274 -0.4611 -4.7495
10104TIP3    H251728   3.970   0.249   4.304  0.3061 -0.9359 -0.5299
10105TIP3   OH251729   0.131   5.230  11.701  1.2481  0.2336 -0.6673
10105TIP3    H151730   0.126   5.294  11.772 -1.1897 -1.1198  0.4777
10105TIP3    H251731   0.209   5.179  11.722 -0.4028 -1.3582  2.2505
10106TIP3   OH251732   6.490   1.691   4.586 -0.0509  0.6269 -0.1237
10106TIP3    H151733   6.477   1.616   4.645  0.9587  1.6617  1.4930
10106TIP3    H251734   6.403   1.726   4.571 -0.3468  0.2125  0.5835
10107TIP3   OH251735   2.324   3.071  12.329 -0.6074  0.3462  0.4162
10107TIP3    H151736   2.340   3.161  12.301  0.4085 -0.2073 -0.9022
10107TIP3    H251737   2.297   3.078  12.420 -2.1921  2.1031 -0.1412
10108TIP3   OH251738   4.682   0.103   0.523  0.8890 -0.1553  0.1323
10108TIP3    H151739   4.723   0.129   0.606 -1.5684 -2.0604  2.1368
10108TIP3    H251740   4.614   0.169   0.508  1.4449  0.2831 -0.4848
10109TIP3   OH251741   5.696   4.577  13.683 -0.5235 -0.0043  0.2746
10109TIP3    H151742   5.635   4.646  13.707 -0.0603  1.2135 -1.8502
10109TIP3    H251743   5.776   4.597  13.732 -0.7798  0.2409  0.5986
10110TIP3   OH251744   1.251   4.430  11.669  0.2893  0.0181  0.0521
10110TIP3    H151745   1.327   4.375  11.688  0.9685  0.7799 -0.4004
10110TIP3    H251746   1.191   4.373  11.621 -0.4939 -1.3008  2.4368
10111TIP3   OH251747   4.388   6.597   3.432  0.1310 -0.2343  0.1622
10111TIP3    H151748   4.479   6.623   3.441 -0.0593  1.2460 -1.5859
10111TIP3    H251749   4.391   6.502   3.417  1.5227  0.0432 -1.5493
10112TIP3   OH251750   2.284   6.175   1.871  0.2418  0.1464  0.3098
10112TIP3    H151751   2.233   6.226   1.933  1.6315  0.7262  1.0244
10112TIP3    H251752   2.270   6.084   1.897  0.5405  0.3636  1.2731
10113TIP3   OH251753   6.692   2.816   2.591  0.1470  0.3482 -0.0144
10113TIP3    H151754   6.711   2.851   2.678  0.3091 -0.9122  0.4907
10113TIP3    H251755   6.601   2.788   2.595  0.1320  0.3558 -0.2641
10114TIP3   OH251756   2.168   2.564  10.882  0.3131 -0.0208 -0.3192
10114TIP3    H151757   2.223   2.634  10.846 -0.4609  1.0849  0.5439
10114TIP3    H251758   2.084   2.574  10.838  0.2246 -0.4701 -0.2566
10115TIP3   OH251759   2.130   3.919  14.449  0.2658 -0.2663 -0.1088
10115TIP3    H151760   2.143   3.892  14.540  0.2716  2.3843  0.7696
10115TIP3    H251761   2.035   3.922  14.438  0.2567 -1.4270 -0.5134
10116TIP3   OH251762   3.846   5.039   4.514 -0.5369 -0.4513 -0.0982
10116TIP3    H151763   3.802   5.022   4.597 -2.1105 -0.0353 -0.8142
10116TIP3    H251764   3.853   4.953   4.473 -0.3973 -0.5572  0.1410
10117TIP3   OH251765   3.469   4.502  11.057 -0.5385  0.0866 -0.0074
10117TIP3    H151766   3.421   4.580  11.086 -0.0449  0.1665  0.6047
10117TIP3    H251767   3.482   4.450  11.136 -0.9073 -0.6541 -0.4141
10118TIP3   OH251768   2.892   5.328  14.190  0.0078 -0.7005  0.5508
10118TIP3    H151769   2.915   5.290  14.275  0.7283 -0.4666  0.4675
10118TIP3    H251770   2.831   5.399  14.211 -1.8054 -2.1920  0.6693
10119TIP3   OH251771   3.429   3.303   5.300 -0.4909  0.4270 -0.3730
10119TIP3    H151772   3.376   3.341   5.230 -0.0174 -0.0769 -1.0187
10119TIP3    H251773   3.506   3.360   5.305  1.1789 -1.4469 -2.6796
10120TIP3   OH251774   3.882   6.115  15.088 -0.2995 -0.5821  0.4571
10120TIP3    H151775   3.917   6.193  15.044 -1.0412  0.0186  0.9170
10120TIP3    H251776   3.923   6.115  15.174  0.0946 -0.9951  0.2739
10121TIP3   OH251777   0.690   1.222   5.612  0.0557  0.2749 -0.2444
10121TIP3    H151778   0.641   1.164   5.670 -0.7012  0.4407 -0.6997
10121TIP3    H251779   0.778   1.227   5.650  0.0175 -0.8558  0.0073
10122TIP3   OH251780   5.331   0.851  15.562 -0.6782  0.3191  0.4100
10122TIP3    H151781   5.278   0.771  15.563 -0.7355  0.3595  0.6435
10122TIP3    H251782   5.395   0.838  15.632 -1.2500  0.8546  1.0408
10123TIP3   OH251783   1.068   3.091   5.338  0.1059  0.3676 -0.3843
10123TIP3    H151784   1.035   3.113   5.251 -1.4567  1.4740  0.4425
10123TIP3    H251785   0.992   3.099   5.396  1.2137  0.1880  1.1790
10124TIP3   OH251786   6.671   4.814  11.877 -0.1690 -0.1776 -0.1590
10124TIP3    H151787   6.717   4.834  11.796 -2.5338  0.7593 -1.3931
10124TIP3    H251788   6.644   4.723  11.867 -0.8968  0.0859 -0.6990
10125TIP3   OH251789   0.840   3.699  13.332 -0.4911 -0.2860 -0.1681
10125TIP3    H151790   0.920   3.658  13.364  0.5363  0.7381 -1.3728
10125TIP3    H251791   0.770   3.649  13.374  0.7574 -1.2723  0.8178
10126TIP3   OH251792   3.952   5.660   6.391  0.1546 -0.0901  0.2766
10126TIP3    H151793   4.025   5.626   6.339  1.6862  1.1577  1.4916
10126TIP3    H251794   3.941   5.750   6.362 -1.5155 -0.4982 -0.4682
10127TIP3   OH251795   5.774   5.289   0.862  0.6509  0.5288  0.4342
10127TIP3    H151796   5.752   5.372   0.904 -1.6549  0.2890 -0.1651
10127TIP3    H251797   5.835   5.247   0.922  0.4123  1.8558  1.6561
10128TIP3   OH251798   4.490   0.741  12.548  0.0765 -0.1816 -0.1454
10128TIP3    H151799   4.489   0.837  12.547 -0.9247 -0.1801 -0.0980
10128TIP3    H251800   4.421   0.716  12.487  0.5376 -0.8821 -0.3885
10129TIP3   OH251801   4.470   6.306   1.054 -0.0114 -0.1544 -0.1140
10129TIP3    H151802   4.517   6.356   0.987  0.2209  1.7399  1.3652
10129TIP3    H251803   4.429   6.373   1.109 -1.9922 -1.6995  0.3910
10130TIP3   OH251804   0.242   3.629   6.590 -0.8059  0.0022 -0.2454
10130TIP3    H151805   0.205   3.541   6.588 -0.9850  0.0663  0.2023
10130TIP3    H251806   0.325   3.621   6.542 -1.7450  0.0285 -1.9669
10131TIP3   OH251807   4.310   5.682   4.850 -0.0209  0.5849  0.4451
10131TIP3    H151808   4.300   5.663   4.757  1.2298 -0.6393  0.5336
10131TIP3    H251809   4.387   5.739   4.855 -0.7863  1.6340  0.6493
10132TIP3   OH251810   3.325   3.116   5.472  0.4078  0.4002 -0.4634
10132TIP3    H151811   3.332   3.198   5.423 -1.0203  2.2007  2.1406
10132TIP3    H251812   3.240   3.081   5.447  0.0332  0.9060  0.0635
10133TIP3   OH251813   0.148   1.920   5.398 -0.0955 -0.4552  0.3021
10133TIP3    H151814   0.222   1.931   5.338 -1.3022  1.3551 -0.9323
10133TIP3    H251815   0.177   1.962   5.480  0.0345  0.8351 -0.3790
10134TIP3   OH251816   6.660   6.622  10.811 -0.1027 -0.0475 -0.4259
10134TIP3    H151817   6.596   6.693  10.801 -1.5685 -0.8449  2.1647
10134TIP3    H251818   6.619   6.547  10.767 -0.0337 -0.0720 -0.4473
10135TIP3   OH251819   0.724   0.712  16.926  0.1385 -0.2028 -0.2199
10135TIP3    H151820   0.736   0.802  16.895 -1.3156  0.7457  1.7059
10135TIP3    H251821   0.812   0.676  16.931  0.7870  1.2456 -0.6928
10136TIP3   OH251822   0.616   0.024   1.333 -0.4672 -0.2790 -0.3289
10136TIP3    H151823   0.554   0.046   1.263 -0.0283  1.2484 -0.2640
10136TIP3    H251824   0.647  -0.064   1.310 -2.5180 -1.0161 -0.4379
10137TIP3   OH251825   1.925   5.940  14.796 -0.0913  0.1007  0.2300
10137TIP3    H151826   1.893   5.907  14.880  0.9763  0.2335  0.7096
10137TIP3    H251827   1.945   5.861  14.746  0.0220  0.0134  0.4091
10138TIP3   OH251828   0.824   4.267   4.340 -0.1850 -0.0301 -0.2675
10138TIP3    H151829   0.749   4.244   4.284  0.6818  0.4499 -1.6655
10138TIP3    H251830   0.819   4.204   4.412 -2.4762  0.5911  0.1959
10139TIP3   OH251831   4.765   5.081   0.926  0.0034  0.6114 -0.1500
10139TIP3    H151832   4.808   5.084   0.840 -1.2460 -0.2290 -0.8311
10139TIP3    H251833   4.672   5.087   0.907 -0.3750 -0.8248  1.0495
10140TIP3   OH251834   5.857   4.056   1.563 -0.5715  0.1124 -0.3449
10140TIP3    H151835   5.779   4.075   1.616 -0.5671  0.4396 -0.4504
10140TIP3    H251836   5.897   4.142   1.549  0.4887 -0.1732  0.7373
10141TIP3   OH251837   2.461   3.081   5.659  0.0980 -0.3597  0.2865
10141TIP3    H151838   2.519   3.142   5.705  0.6803 -0.7145  0.0408
10141TIP3    H251839   2.448   3.009   5.721  2.3561 -1.7301 -0.6796
10142TIP3   OH251840   5.421   2.651   0.224 -0.4702 -0.0079 -0.0794
10142TIP3    H151841   5.331   2.641   0.192  0.0445  0.5713 -1.7760
10142TIP3    H251842   5.413   2.641   0.319 -2.0015 -2.1226 -0.3558
10143TIP3   OH251843   6.345   3.523   1.541  0.2075 -0.2683  0.4299
10143TIP3    H151844   6.295   3.544   1.620 -0.0785  0.7895 -0.0067
10143TIP3    H251845   6.385   3.438   1.559 -0.8335 -0.6075  1.2306
10144TIP3   OH251846   5.141   2.682   1.010  0.0131 -0.2072 -0.3196
10144TIP3    H151847   5.118   2.589   1.018 -2.4804  0.0548 -2.7326
10144TIP3    H251848   5.091   2.725   1.080  1.4871 -0.6665  1.0598
10145TIP3   OH251849   3.684   4.924   4.713  0.2254 -0.0610  0.1977
10145TIP3    H151850   3.693   4.939   4.807  2.6135 -2.0044  0.4166
10145TIP3    H251851   3.682   4.828   4.705  0.7894  0.0467 -1.7361
10146TIP3   OH251852   1.452   4.360  16.124  0.1683  0.4677 -0.0537
10146TIP3    H151853   1.468   4.268  16.142  1.2187  0.5862 -0.3147
10146TIP3    H251854   1.515   4.383  16.056 -0.7945  1.1199 -0.7725
10147TIP3   OH251855   1.899   4.071  12.844 -0.1825  0.4343  0.0700
10147TIP3    H151856   1.900   4.165  12.832 -1.7020  0.4070 -0.4416
10147TIP3    H251857   1.849   4.058  12.925  1.5271  0.1280  1.1249
10148TIP3   OH251858   1.153   3.969   4.517 -0.2911 -0.0511 -0.2762
10148TIP3    H151859   1.204   4.045   4.489  0.1672 -0.0148  0.6251
10148TIP3    H251860   1.196   3.894   4.475 -1.1028  0.2193 -1.6531
10149TIP3   OH251861   2.360   0.338  15.510 -0.3231 -0.1842  0.2518
10149TIP3    H151862   2.438   0.283  15.512  0.1058  0.2878 -1.6740
10149TIP3    H251863   2.319   0.325  15.595  0.4604 -2.4432  0.3329
10150TIP3   OH251864   2.831   5.841   5.672 -0.0334  0.3155  0.6527
10150TIP3    H151865   2.896   5.772   5.656  0.1603  0.6076  0.1797
10150TIP3    H251866   2.842   5.902   5.600 -3.3128 -1.4586 -1.6390
10151TIP3   OH251867   3.130   1.234   3.398  0.6792  0.0972 -0.1559
10151TIP3    H151868   3.074   1.163   3.428 -0.1590  0.7678 -0.1280
10151TIP3    H251869   3.101   1.311   3.446  1.0088  0.6465 -0.8137
10152TIP3   OH251870   2.318   5.843  14.498 -0.0247  0.2717 -0.2429
10152TIP3    H151871   2.259   5.777  14.536 -0.3490  0.9383  0.4270
10152TIP3    H251872   2.318   5.915  14.561  0.1972  0.9849 -1.0398
10153TIP3   OH251873   0.969   4.220  15.961 -0.3593 -0.0998  0.4673
10153TIP3    H151874   1.057   4.250  15.984  0.1818  0.0289 -1.5660
10153TIP3    H251875   0.917   4.300  15.956 -0.2096 -0.0198  0.1768
10154TIP3   OH251876   0.769   0.653   0.755 -0.1444 -0.2506  0.1338
10154TIP3    H151877   0.731   0.624   0.837  1.4866  0.4993  1.2188
10154TIP3    H251878   0.834   0.719   0.781 -0.5350  0.9977 -1.8620
10155TIP3   OH251879   2.824   3.350  16.602  0.5268  0.0910  0.3821
10155TIP3    H151880   2.892   3.359  16.534 -0.0241  0.7619 -0.0962
10155TIP3    H251881   2.743   3.375  16.558  0.0027 -0.4512  1.0223
10156TIP3   OH251882   2.365   2.964  10.604  0.2240  0.3776  0.4417
10156TIP3    H151883   2.442   2.995  10.652  0.8798  1.3176 -1.1116
10156TIP3    H251884   2.379   2.995  10.514 -2.0905  0.7711  0.1543
10157TIP3   OH251885   2.139   6.016   1.213  0.0888 -0.5022 -0.2595
10157TIP3    H151886   2.171   6.079   1.149  1.9967 -1.1567 -0.0179
10157TIP3    H251887   2.213   6.002   1.272 -0.4935 -2.4345  0.0900
10158TIP3   OH251888   5.841   4.000  13.678  0.2215 -0.1250  0.3687
10158TIP3    H151889   5.869   4.008  13.586  0.5026 -2.1098  0.2460
10158TIP3    H251890   5.923   3.997  13.728  0.0665  1.5059  0.7858
10159TIP3   OH251891   6.551   4.772   3.340 -0.1252  0.7571 -0.2328
10159TIP3    H151892   6.528   4.701   3.400  0.5740  0.9806  0.3135
10159TIP3    H251893   6.480   4.773   3.276 -0.0552 -0.5363 -0.3554
10160TIP3   OH251894   0.867   0.527   3.859 -0.1519  0.2148  0.0241
10160TIP3    H151895   0.926   0.536   3.784  1.5216  0.3460  1.2854
10160TIP3    H251896   0.836   0.437   3.856 -1.1104  0.5599 -1.4925
10161TIP3   OH251897   5.088   6.310   3.571 -0.4459 -0.0832  0.0074
10161TIP3    H151898   5.148   6.245   3.608 -0.1755  0.0275 -0.2399
10161TIP3    H251899   5.069   6.278   3.483  0.0847  0.4304 -0.3019
10162TIP3   OH251900   2.419   1.800  13.474 -0.7598 -0.3597  0.1588
10162TIP3    H151901   2.511   1.823  13.482 -0.7231 -0.4642  0.0423
10162TIP3    H251902   2.396   1.819  13.383 -0.5924 -1.2610 -0.0813
10163TIP3   OH251903   2.150   1.414  13.280  0.0389  0.3185 -0.3786
10163TIP3    H151904   2.126   1.497  13.240  1.2720  0.5815 -0.6394
10163TIP3    H251905   2.227   1.434  13.334  0.5663 -0.6912 -0.7108
10164TIP3   OH251906   4.735   4.216  12.708  0.5111  0.4323 -0.3664
10164TIP3    H151907   4.651   4.260  12.715  0.1127 -0.1946 -1.0681
10164TIP3    H251908   4.735   4.152  12.779  1.1423  1.6046  0.7339
10165TIP3   OH251909   2.220   1.851   3.824 -0.1152 -0.0026  0.5064
10165TIP3    H151910   2.268   1.933   3.812  0.6488 -0.7071 -1.8446
10165TIP3    H251911   2.201   1.821   3.735 -0.3818 -2.3832  1.2890
10166TIP3   OH251912   0.191   1.097  13.533 -0.3212  0.2832  0.1028
10166TIP3    H151913   0.248   1.161  13.574  0.7728  0.2803 -1.3373
10166TIP3    H251914   0.212   1.102  13.440 -0.8620 -1.5173 -0.1537
10167TIP3   OH251915   1.600   1.340  16.351  0.6028  0.0322 -0.2737
10167TIP3    H151916   1.555   1.344  16.267 -3.3476 -0.9113  1.5702
10167TIP3    H251917   1.583   1.425  16.392 -0.1628 -0.5756  0.7194
10168TIP3   OH251918   5.070   5.813   0.837  0.2818  0.1859 -0.1962
10168TIP3    H151919   5.051   5.724   0.808 -1.2322  0.3736  0.1385
10168TIP3    H251920   5.050   5.812   0.931  0.7124  0.7640 -0.0932
10169TIP3   OH251921   0.842   0.841   6.693 -0.6325  0.2539  0.4945
10169TIP3    H151922   0.927   0.811   6.724 -0.6206  0.4034  0.6101
10169TIP3    H251923   0.833   0.803   6.606  0.3217  1.6327 -0.2542
10170TIP3   OH251924   4.398   6.517   1.950 -0.1908  0.0778  0.0612
10170TIP3    H151925   4.361   6.584   2.007  0.3817  0.2769  0.2067
10170TIP3    H251926   4.328   6.496   1.888  0.5196  3.0714 -2.0045
10171TIP3   OH251927   2.497   5.039  16.191  0.4234 -0.2875  0.1307
10171TIP3    H151928   2.425   4.993  16.233 -1.1549  3.1125  1.4602
10171TIP3    H251929   2.458   5.078  16.113  2.0053 -1.9512 -1.6128
10172TIP3   OH251930   5.849   3.840  11.123  0.3123  0.1247 -0.1680
10172TIP3    H151931   5.893   3.922  11.143  1.1900  0.1437 -1.9675
10172TIP3    H251932   5.756   3.863  11.115  0.4140  0.7313  0.3275
10173TIP3   OH251933   6.268   2.766   1.513  0.1458  0.4969  0.2460
10173TIP3    H151934   6.188   2.728   1.548  0.9325 -0.5463  0.9826
10173TIP3    H251935   6.248   2.784   1.421 -0.6470 -0.6525  0.1664
10174TIP3   OH251936   4.487   0.713   1.800 -0.0713  0.5842 -0.0905
10174TIP3    H151937   4.442   0.689   1.719  0.0528  0.4233 -0.1112
10174TIP3    H251938   4.574   0.673   1.792 -0.2387  0.1220  0.3524
10175TIP3   OH251939   3.448   3.885  14.261  0.2656 -0.1497  0.3050
10175TIP3    H151940   3.388   3.821  14.221 -0.5619  0.4604  0.5467
10175TIP3    H251941   3.397   3.925  14.331  1.5077 -0.7740  1.6060
10176TIP3   OH251942   6.491   5.311  16.361 -0.1980 -0.4012  0.2818
10176TIP3    H151943   6.583   5.284  16.362 -0.6760 -2.2697 -0.7770
10176TIP3    H251944   6.491   5.394  16.314  0.9260 -0.4675  0.1250
10177TIP3   OH251945   1.580   5.592  11.231 -0.0770 -0.0011 -0.3132
10177TIP3    H151946   1.536   5.626  11.309 -2.1533  1.6436 -2.0970
10177TIP3    H251947   1.599   5.669  11.179  1.9790 -1.0005 -1.1612
10178TIP3   OH251948   1.124   2.945  12.788  0.0228  0.5812  0.8770
10178TIP3    H151949   1.059   3.002  12.830 -0.2069  0.9323  0.0840
10178TIP3    H251950   1.073   2.870  12.756 -0.0115  0.8645  0.2407
10179TIP3   OH251951   3.632   1.545   0.542  0.0411  0.1052  0.3378
10179TIP3    H151952   3.609   1.583   0.457  1.6120  1.1799  0.3634
10179TIP3    H251953   3.693   1.475   0.522 -1.8583 -1.6753  0.3991
10180TIP3   OH251954   2.846   4.386   4.905  0.2721 -0.0797 -0.0401
10180TIP3    H151955   2.933   4.348   4.893  0.4478 -0.6484  2.4017
10180TIP3    H251956   2.791   4.344   4.838  1.6777 -0.3630 -1.0464
10181TIP3   OH251957   0.636   2.774   2.846 -0.9643  0.2975  0.4403
10181TIP3    H151958   0.584   2.849   2.817  0.6643  0.2762 -3.0751
10181TIP3    H251959   0.706   2.811   2.899 -0.3860  1.3027 -0.9649
10182TIP3   OH251960   1.431   1.077  15.309 -0.2886 -0.1615 -0.8328
10182TIP3    H151961   1.405   1.168  15.291 -0.5094 -0.3121 -1.2848
10182TIP3    H251962   1.429   1.070  15.404  0.2148  0.4515 -0.7683
10183TIP3   OH251963   1.744   5.301   3.038 -0.6534  0.3625 -0.0115
10183TIP3    H151964   1.659   5.281   3.076 -1.1848 -1.3376 -1.9478
10183TIP3    H251965   1.804   5.237   3.077 -0.7819 -0.0900 -0.5645
10184TIP3   OH251966   4.014   1.034  16.231  0.4732  0.0663 -0.0268
10184TIP3    H151967   4.038   1.020  16.140 -0.4694 -1.1496 -0.1274
10184TIP3    H251968   4.042   0.954  16.276 -1.8123 -0.7136  0.1363
10185TIP3   OH251969   6.444   0.722  11.335 -0.5999 -0.4127 -0.1284
10185TIP3    H151970   6.405   0.705  11.421  1.3192  0.4405  0.9637
10185TIP3    H251971   6.404   0.656  11.277 -0.9675 -1.8645  1.6932
10186TIP3   OH251972   5.620   6.573   2.208  0.2089  0.5820 -0.4248
10186TIP3    H151973   5.608   6.510   2.137  0.1530  0.6963 -0.5182
10186TIP3    H251974   5.593   6.657   2.170 -1.7032  0.3408  0.3124
10187TIP3   OH251975   3.363   0.693   1.172 -0.3236 -0.6667 -0.5434
10187TIP3    H151976   3.300   0.643   1.223 -0.3951 -0.5020 -0.4709
10187TIP3    H251977   3.438   0.703   1.230 -0.0819 -1.1826 -0.7606
10188TIP3   OH251978   4.340   6.697  11.749  0.2646  0.5490  0.0716
10188TIP3    H151979   4.406   6.766  11.759  0.1697  0.8301 -1.1559
10188TIP3    H251980   4.265   6.741  11.710  0.1989 -0.2484 -0.7181
10189TIP3   OH251981   2.424   4.181  12.627 -0.6452  0.7823  0.0337
10189TIP3    H151982   2.496   4.244  12.618  0.8026 -0.7131  0.7116
10189TIP3    H251983   2.348   4.235  12.652  0.7693  2.1863  1.5595
10190TIP3   OH251984   3.545   6.609   2.209  0.5415 -0.9601  0.1263
10190TIP3    H151985   3.579   6.521   2.194  1.1285 -0.5571 -1.0418
10190TIP3    H251986   3.616   6.667   2.184 -0.2999 -0.1323 -0.4111
10191TIP3   OH251987   5.611   2.292  14.476  0.0048  0.5669 -0.2392
10191TIP3    H151988   5.594   2.387  14.475 -1.6810  0.3304 -2.6470
10191TIP3    H251989   5.669   2.278  14.401 -0.5860 -0.4074 -0.5302
10192TIP3   OH251990   0.489   0.286   2.568 -0.4190  1.0198 -0.8805
10192TIP3    H151991   0.488   0.220   2.498  0.1482  0.1099 -0.0548
10192TIP3    H251992   0.429   0.354   2.537 -1.9661 -0.4329 -1.2259
10193TIP3   OH251993   2.060   5.930  15.330 -0.4497 -0.0260  0.0780
10193TIP3    H151994   2.152   5.905  15.315 -0.3582  0.2730  0.1282
10193TIP3    H251995   2.052   5.930  15.426 -0.4380  0.1745  0.0788
10194TIP3   OH251996   2.363   5.034  12.962  0.2623  0.3381 -1.0792
10194TIP3    H151997   2.358   5.033  13.057  0.6153 -0.6696 -1.0644
10194TIP3    H251998   2.289   4.981  12.933  0.6391 -0.0636 -1.3320
10195TIP3   OH251999   4.086   6.245  14.051 -0.1330 -0.4511  0.2347
10195TIP3    H152000   4.012   6.298  14.020  0.2886 -0.9554 -1.8079
10195TIP3    H252001   4.093   6.265  14.144 -0.0746  3.0092 -0.3700
10196TIP3   OH252002   2.750   4.144  12.080  0.2322  0.7587  0.1968
10196TIP3    H152003   2.762   4.068  12.138  0.9841  0.9795  0.3423
10196TIP3    H252004   2.753   4.107  11.992 -0.3358  0.4976  0.2791
10197TIP3   OH252005   1.350   5.347  15.925 -0.6599  0.0064 -0.5495
10197TIP3    H152006   1.421   5.299  15.882 -0.7485 -0.2456 -0.4196
10197TIP3    H252007   1.353   5.434  15.887 -1.0011 -0.3250 -1.3670
10198TIP3   OH252008   0.344   6.716  14.608 -0.1200  0.1711  0.3526
10198TIP3    H152009   0.323   6.774  14.534  2.7381 -1.6542 -2.1618
10198TIP3    H252010   0.265   6.663  14.620 -0.7266  0.6239 -1.3374
10199TIP3   OH252011   4.053   4.779  15.611  0.1299  0.3227 -0.3090
10199TIP3    H152012   4.140   4.820  15.603  0.0697  0.2157 -1.7709
10199TIP3    H252013   4.053   4.710  15.545 -0.8035 -0.1824  0.2047
10200TIP3   OH252014   1.427   6.572   0.590 -0.2352  0.1008 -0.2677
10200TIP3    H152015   1.469   6.556   0.505 -0.3078  1.3654 -0.5546
10200TIP3    H252016   1.403   6.484   0.622 -0.1105 -0.3959 -1.4967
10201TIP3   OH252017   2.723   5.290   4.418 -0.2384  0.2889 -0.3489
10201TIP3    H152018   2.699   5.337   4.498  0.3929  2.1498 -1.2129
10201TIP3    H252019   2.788   5.226   4.447 -0.6041  0.3900  0.7581
10202TIP3   OH252020   6.056   2.053   3.145 -0.4114  0.3674 -0.7604
10202TIP3    H152021   6.022   1.984   3.088 -0.3442  0.4826 -0.9396
10202TIP3    H252022   5.980   2.084   3.193 -0.5630  0.6419 -1.1785
10203TIP3   OH252023   0.898   4.974   0.102  0.2714 -0.3458  0.5162
10203TIP3    H152024   0.986   4.945   0.127  0.9673  0.7032 -0.6031
10203TIP3    H252025   0.887   4.942   0.013  0.9333  2.3696 -0.6522
10204TIP3   OH252026   2.144   4.245  12.743 -0.0365 -0.0589 -0.5508
10204TIP3    H152027   2.081   4.229  12.673  1.3366 -0.7623 -1.6843
10204TIP3    H252028   2.113   4.191  12.816 -1.4381  0.6148 -0.6165
10205TIP3   OH252029   3.922   6.003   5.522  0.2773 -0.2302 -0.2202
10205TIP3    H152030   3.828   5.989   5.517  0.1749  0.4545 -0.3810
10205TIP3    H252031   3.952   5.994   5.431  0.2577  0.2507 -0.2758
10206TIP3   OH252032   6.561   5.597   0.036 -0.3658  0.2651  0.2289
10206TIP3    H152033   6.593   5.648   0.110 -0.0937 -1.6043  1.4932
10206TIP3    H252034   6.641   5.569  -0.010 -0.4722  0.4160 -0.0481
10207TIP3   OH252035   0.446   2.027   2.711 -0.3113  0.1853  1.0633
10207TIP3    H152036   0.493   2.012   2.628  0.9178  1.1237  1.5722
10207TIP3    H252037   0.397   1.945   2.725 -2.5304  0.8448 -1.8009
10208TIP3   OH252038   4.970   5.691   1.376  0.5030  0.2168  0.1005
10208TIP3    H152039   4.924   5.677   1.293  1.1335  1.0983 -0.4190
10208TIP3    H252040   4.975   5.787   1.384  0.6801  0.1391  1.0322
10209TIP3   OH252041   1.523   6.251  11.202 -0.3321  0.1954  0.3548
10209TIP3    H152042   1.571   6.179  11.161 -2.9942 -1.1532 -0.6070
10209TIP3    H252043   1.566   6.330  11.169  1.3907 -0.9028 -0.1809
10210TIP3   OH252044   0.818   6.722  14.432  0.0526  0.6751  0.1656
10210TIP3    H152045   0.797   6.689  14.519  0.1468  0.7686  0.2250
10210TIP3    H252046   0.900   6.770  14.444  0.3551  0.2259 -0.0774
10211TIP3   OH252047   0.442   1.144   6.610  0.6650  0.1879 -0.3155
10211TIP3    H152048   0.508   1.075   6.600  1.3174  0.6639  0.6033
10211TIP3    H252049   0.447   1.170   6.702  0.4861  1.5173 -0.6532
10212TIP3   OH252050   4.986   4.419   0.859  0.3189 -0.0766 -0.6429
10212TIP3    H152051   4.931   4.495   0.839  1.9368  1.1738 -0.4985
10212TIP3    H252052   4.979   4.409   0.954  0.9401  0.5633 -0.5267
10213TIP3   OH252053   6.068   2.048   0.971  0.5071  0.1944  0.1519
10213TIP3    H152054   6.097   2.043   0.880  1.2291  0.8392  0.3290
10213TIP3    H252055   6.107   2.130   1.003 -0.6419  0.5436  0.7233
10214TIP3   OH252056   0.127   3.353   0.307  0.2969 -0.1039 -0.6055
10214TIP3    H152057   0.127   3.363   0.212  0.0347 -3.1051 -1.0126
10214TIP3    H252058   0.214   3.320   0.328 -0.6284 -2.4951 -0.2715
10215TIP3   OH252059   5.579   6.530  14.798 -0.4411  0.0613  0.1562
10215TIP3    H152060   5.601   6.591  14.729  0.1883  0.6393  0.8543
10215TIP3    H252061   5.486   6.513  14.787 -0.4884  0.6810 -0.4065
10216TIP3   OH252062   1.060   2.973  12.313  0.2940  0.1860 -0.0986
10216TIP3    H152063   1.092   2.909  12.376  0.9750  1.2151  0.6326
10216TIP3    H252064   1.062   3.056  12.360 -0.4520  0.7775 -1.0650
10217TIP3   OH252065   1.756   1.392   2.754  0.1550  0.1045 -1.0731
10217TIP3    H152066   1.757   1.342   2.835 -0.1536  0.0901 -1.0765
10217TIP3    H252067   1.722   1.331   2.688 -1.4752  0.6714 -0.8218
10218TIP3   OH252068   4.020   6.329  12.950  0.2218 -0.0537 -0.1133
10218TIP3    H152069   4.071   6.292  12.878  0.3210  0.7027 -0.4423
10218TIP3    H252070   4.000   6.254  13.007  1.7781 -0.3340  0.0868
10219TIP3   OH252071   0.832   6.380  12.002 -0.1536  0.1976 -0.2256
10219TIP3    H152072   0.808   6.343  11.917 -0.3636  0.3237 -0.2221
10219TIP3    H252073   0.847   6.473  11.984 -0.3969  0.2642 -0.0874
10220TIP3   OH252074   0.955   2.073   5.697 -0.6203  0.1948 -0.6097
10220TIP3    H152075   0.981   1.985   5.669  0.0409 -0.5670  2.0852
10220TIP3    H252076   0.936   2.063   5.790 -0.8446  2.8668 -0.3048
10221TIP3   OH252077   3.756   0.502  12.882  0.0826 -0.9706 -0.4649
10221TIP3    H152078   3.690   0.498  12.813  0.5079 -0.2575 -0.9303
10221TIP3    H252079   3.832   0.457  12.845  0.0404 -1.3108 -0.1400
10222TIP3   OH252080   5.583   1.617  13.401  0.3669 -0.0871  0.1878
10222TIP3    H152081   5.574   1.547  13.337 -0.2148  0.5716 -0.4718
10222TIP3    H252082   5.677   1.625  13.415  0.4131 -1.4929  0.8401
10223TIP3   OH252083   1.288   5.784   5.088  0.0876  0.5840  0.6219
10223TIP3    H152084   1.208   5.834   5.106 -0.1230 -0.1995  2.0140
10223TIP3    H252085   1.259   5.712   5.033  0.4183  1.9929 -1.5255
10224TIP3   OH252086   0.863   0.482   5.926  0.8507 -0.4351 -0.4541
10224TIP3    H152087   0.909   0.420   5.869  0.0380  0.1671 -1.7923
10224TIP3    H252088   0.925   0.553   5.939  1.7099 -1.3721  0.9162
10225TIP3   OH252089   2.790   1.489   4.000  0.4672 -0.1547 -0.5710
10225TIP3    H152090   2.862   1.475   4.060  0.4802  1.1676 -0.2596
10225TIP3    H252091   2.832   1.508   3.916  0.5278  1.5309 -0.1878
10226TIP3   OH252092   2.382   4.101  14.689  0.1819  0.5578 -0.6745
10226TIP3    H152093   2.352   4.185  14.654 -0.5703  0.1404 -1.0533
10226TIP3    H252094   2.465   4.085  14.644  0.9044  1.6207  0.2218
10227TIP3   OH252095   2.566   3.940   3.406  0.7165  0.0030  0.7213
10227TIP3    H152096   2.651   3.984   3.412  0.6233  0.0062  2.4877
10227TIP3    H252097   2.586   3.848   3.418  0.8856 -0.5435 -2.7647
10228TIP3   OH252098   6.038   4.823   1.590  0.2511  0.1551  0.0884
10228TIP3    H152099   6.093   4.890   1.550  0.0817 -0.3652 -1.0438
10228TIP3    H252100   6.099   4.770   1.643  0.4664  0.8761  0.5754
10229TIP3   OH252101   1.553   0.177  16.195  0.0919  0.4700 -0.1375
10229TIP3    H152102   1.626   0.186  16.256  0.5050  0.6430 -0.6536
10229TIP3    H252103   1.530   0.267  16.172  0.3604  0.3903 -0.7316
10230TIP3   OH252104   3.955   4.641  15.167 -0.6914  0.5421 -0.1369
10230TIP3    H152105   3.965   4.639  15.262 -0.7284 -1.5197 -0.1409
10230TIP3    H252106   3.863   4.665  15.153 -1.1174 -0.7188  0.4048
10231TIP3   OH252107   5.347   5.135   1.800 -0.5373 -0.2131 -0.1490
10231TIP3    H152108   5.269   5.089   1.768  0.4970 -1.5591 -0.8053
10231TIP3    H252109   5.352   5.213   1.745 -0.5291 -0.9474 -1.2271
10232TIP3   OH252110   2.027   0.942   3.399 -0.1075  0.2333  0.7651
10232TIP3    H152111   1.948   0.888   3.396  0.7704 -1.1270  1.0640
10232TIP3    H252112   2.014   1.000   3.473 -1.0317  0.3719  0.5035
10233TIP3   OH252113   4.745   6.783  13.978  0.7437  0.2642 -0.4623
10233TIP3    H152114   4.807   6.852  13.954 -1.5152  3.8003  2.6989
10233TIP3    H252115   4.675   6.790  13.913  0.2935  1.3672  0.1206
10234TIP3   OH252116   1.646   5.936  14.367  0.1149 -0.1272  0.1327
10234TIP3    H152117   1.664   5.926  14.273 -0.9133  0.2727 -0.1158
10234TIP3    H252118   1.723   5.981  14.401 -0.0898  0.9621 -0.7782
10235TIP3   OH252119   0.366   5.011   6.470 -0.1286  0.3583 -0.9194
10235TIP3    H152120   0.408   4.929   6.495 -1.2413  0.2228  0.6653
10235TIP3    H252121   0.290   4.984   6.418 -0.3779  0.3978 -0.5746
10236TIP3   OH252122   0.933   1.350  15.162 -0.6288 -0.4114  0.2961
10236TIP3    H152123   0.840   1.362  15.181 -0.8852  1.7228 -1.7888
10236TIP3    H252124   0.949   1.404  15.084  2.2372 -1.1679  0.2320
10237TIP3   OH252125   1.411   3.341  12.254 -0.0083 -0.4407  0.2087
10237TIP3    H152126   1.361   3.385  12.323 -1.0591 -0.9016 -0.2357
10237TIP3    H252127   1.357   3.265  12.231 -0.3933  0.4405 -2.0992
10238TIP3   OH252128   2.126   1.896   5.758  0.3538 -0.1031 -0.1655
10238TIP3    H152129   2.139   1.827   5.693 -0.2497  0.8666 -1.3568
10238TIP3    H252130   2.213   1.910   5.795  0.5909 -1.0945 -0.3006
10239TIP3   OH252131   3.784   4.476   5.707  0.0468 -0.2723 -0.3211
10239TIP3    H152132   3.763   4.415   5.636  1.1070  0.6721 -1.4982
10239TIP3    H252133   3.707   4.533   5.714 -0.5312 -1.0843  0.0932
10240TIP3   OH252134   3.216   0.179  14.131  0.0837 -0.1360 -0.4756
10240TIP3    H152135   3.283   0.129  14.086  0.2573 -0.4192  0.0892
10240TIP3    H252136   3.264   0.240  14.187 -0.1209 -0.1476 -0.2809
10241TIP3   OH252137   1.632   3.706   5.401 -0.4490 -0.4857 -0.1872
10241TIP3    H152138   1.584   3.668   5.327 -1.4617  1.1941 -0.4569
10241TIP3    H252139   1.618   3.645   5.473 -1.4659 -0.9693 -0.7708
10242TIP3   OH252140   2.599   3.976   5.800  0.1253  0.5359 -0.3643
10242TIP3    H152141   2.568   3.954   5.888  1.1146 -1.3390 -0.4186
10242TIP3    H252142   2.624   4.068   5.806 -0.2158  0.5634  1.2086
10243TIP3   OH252143   4.651   1.207  12.148  0.0873  0.3489  0.0215
10243TIP3    H152144   4.576   1.232  12.201  1.2545  1.1607  1.3557
10243TIP3    H252145   4.630   1.239  12.060 -1.5758 -0.4093  0.1162
10244TIP3   OH252146   4.946   2.947  15.510  0.0267  0.4573  0.0395
10244TIP3    H152147   5.036   2.962  15.539 -0.5148  0.0462  2.0700
10244TIP3    H252148   4.936   2.852  15.513 -0.7317  0.5497  0.6960
10245TIP3   OH252149   0.713   1.881   4.949  0.5452  0.1657  0.2350
10245TIP3    H152150   0.651   1.840   5.009  0.8290 -0.0153  0.4018
10245TIP3    H252151   0.799   1.848   4.976  0.6184 -0.3859 -0.6433
10246TIP3   OH252152   5.937   6.489  11.588  0.7396  0.1966  0.0021
10246TIP3    H152153   6.018   6.524  11.625  0.6011  0.7747 -0.2218
10246TIP3    H252154   5.879   6.479  11.664  0.6586  0.8098  0.0272
10247TIP3   OH252155   1.775   1.081  11.772  0.0994 -0.3669  0.1409
10247TIP3    H152156   1.767   1.015  11.703 -1.8605  1.1273 -1.1851
10247TIP3    H252157   1.689   1.123  11.775  0.3526  0.1385  3.0333
10248TIP3   OH252158   6.571   4.849   1.096 -0.3590  0.1321  0.0586
10248TIP3    H152159   6.666   4.856   1.099 -0.1650 -1.7802 -0.4852
10248TIP3    H252160   6.543   4.857   1.187  0.2335  1.3410  0.1579
10249TIP3   OH252161   3.422   2.252   4.287 -0.5175  0.2595 -0.4390
10249TIP3    H152162   3.370   2.319   4.243 -1.1507 -0.1614 -0.3371
10249TIP3    H252163   3.490   2.230   4.223 -0.7923  0.4161 -0.7900
10250TIP3   OH252164   1.482   4.075  12.038 -0.0925  0.4293 -0.4016
10250TIP3    H152165   1.554   4.018  12.063 -0.2682  0.3605 -0.0409
10250TIP3    H252166   1.411   4.015  12.014  0.1536  0.4891 -1.3378
10251TIP3   OH252167   0.840   0.363  16.271  0.0881 -0.1227 -0.4552
10251TIP3    H152168   0.821   0.358  16.365  0.1429 -1.2010 -0.4889
10251TIP3    H252169   0.934   0.380  16.266  0.0436  0.1641 -0.3143
10252TIP3   OH252170   0.999   4.839   3.030  0.9947  0.4317 -0.0506
10252TIP3    H152171   1.071   4.900   3.014  1.7431 -0.2553  0.5969
10252TIP3    H252172   1.006   4.775   2.959  1.8385 -0.3503  0.6976
10253TIP3   OH252173   1.141   3.959  13.426 -0.1511 -0.0685 -0.3347
10253TIP3    H152174   1.138   4.049  13.393  1.5683  0.0291 -0.3356
10253TIP3    H252175   1.061   3.949  13.477 -0.9723  1.0535 -1.3491
10254TIP3   OH252176   4.730   4.044  11.439  0.1306 -0.1079  0.2937
10254TIP3    H152177   4.716   3.950  11.435 -0.6883 -0.1266  2.4875
10254TIP3    H252178   4.822   4.056  11.413  0.7287 -1.6964  1.5438
10255TIP3   OH252179   2.867   0.714   3.721 -0.1359 -0.0118  0.4713
10255TIP3    H152180   2.837   0.624   3.736 -1.4837  0.2322 -0.5139
10255TIP3    H252181   2.805   0.748   3.656  0.1559  1.7404  1.0839
10256TIP3   OH252182   5.958   3.757   4.260  0.3385 -0.2922 -0.3657
10256TIP3    H152183   6.039   3.808   4.252 -0.2513  0.5918 -0.9834
10256TIP3    H252184   5.937   3.733   4.169 -1.6934  2.1293 -0.6530
10257TIP3   OH252185   6.027   4.942  16.819  0.7765  0.0221 -0.0387
10257TIP3    H152186   6.072   4.864  16.788  0.6912  1.1199 -3.3346
10257TIP3    H252187   6.033   5.004  16.746  0.7179  3.0775  2.3444
10258TIP3   OH252188   0.873   0.158   1.396 -0.2509  0.1148 -0.8064
10258TIP3    H152189   0.909   0.212   1.326  1.0487 -0.5840 -0.7243
10258TIP3    H252190   0.782   0.142   1.371  0.3568 -0.6581 -2.6640
10259TIP3   OH252191   4.903   5.668  12.214 -0.3878 -0.2314  0.0691
10259TIP3    H152192   4.901   5.717  12.132 -1.8930  1.3644  0.9918
10259TIP3    H252193   4.886   5.733  12.281  0.1797 -1.6107  1.6154
10260TIP3   OH252194   5.243   6.144   1.774  0.3516 -0.4054  0.6957
10260TIP3    H152195   5.317   6.184   1.728  1.8490 -2.0979  1.4896
10260TIP3    H252196   5.213   6.213   1.834 -0.4528  1.1926 -1.4081
10261TIP3   OH252197   2.125   2.041  13.417  0.5323 -0.8422 -0.0872
10261TIP3    H152198   2.099   1.953  13.445  0.5618 -1.5052 -1.9740
10261TIP3    H252199   2.136   2.033  13.322  3.0418  0.5447 -0.0114
10262TIP3   OH252200   5.982   3.845  14.799 -0.1997 -0.0828 -0.2500
10262TIP3    H152201   5.987   3.765  14.853 -0.9081 -0.3022 -0.4932
10262TIP3    H252202   5.911   3.827  14.737 -0.6969  0.9334  0.0116
10263TIP3   OH252203   6.202   2.138   3.583 -0.4252 -0.0232 -0.4937
10263TIP3    H152204   6.260   2.067   3.553 -2.3446 -1.3921 -1.1818
10263TIP3    H252205   6.187   2.192   3.506 -1.4040 -0.6794 -0.7843
10264TIP3   OH252206   3.318   6.449   3.427  0.2489  0.2653  0.2825
10264TIP3    H152207   3.291   6.357   3.422 -1.3423  0.7505 -1.6489
10264TIP3    H252208   3.310   6.472   3.519 -0.1811 -1.3025  0.6625
10265TIP3   OH252209   3.381   3.195  13.030  0.7680 -0.5132  0.1570
10265TIP3    H152210   3.353   3.206  13.121 -0.0843  0.3357 -0.2064
10265TIP3    H252211   3.474   3.220  13.031  0.6561 -0.1081  0.7069
10266TIP3   OH252212   4.070   6.628   4.371  0.1932  0.5535 -0.2045
10266TIP3    H152213   3.988   6.611   4.325  0.3248 -1.2375  0.1545
10266TIP3    H252214   4.057   6.593   4.459  1.1599  0.7256  0.0287
10267TIP3   OH252215   5.725   1.167   2.529  0.5960  0.1231 -0.1956
10267TIP3    H152216   5.714   1.165   2.624  1.0829 -1.2936 -0.1535
10267TIP3    H252217   5.790   1.236   2.514  2.0333 -0.9790  0.6847
10268TIP3   OH252218   5.939   6.382  14.451 -0.1411  0.1580 -0.2506
10268TIP3    H152219   5.846   6.403  14.461 -0.5108 -1.3096 -0.3151
10268TIP3    H252220   5.952   6.307  14.509  1.3349  1.1549  0.7809
10269TIP3   OH252221   5.353   6.019   4.161  0.3886 -0.0103 -0.6611
10269TIP3    H152222   5.291   5.953   4.132  0.6413 -0.9492  0.8354
10269TIP3    H252223   5.427   5.969   4.195  0.3588  1.0069  1.0044
10270TIP3   OH252224   5.751   1.852   2.050 -0.2415 -1.0330  0.5540
10270TIP3    H152225   5.706   1.882   1.971  0.3186  0.0506  0.6170
10270TIP3    H252226   5.744   1.757   2.048 -1.3041 -0.9525 -0.1521
10271TIP3   OH252227   1.917   4.420  14.050 -0.3183  0.0029 -0.1786
10271TIP3    H152228   1.941   4.331  14.075  0.1496 -0.6208 -2.6381
10271TIP3    H252229   1.827   4.412  14.017 -0.8403  0.7555  0.9968
10272TIP3   OH252230   0.566   5.447   0.603  0.1837 -0.6611  0.0665
10272TIP3    H152231   0.577   5.361   0.645  1.6619 -0.8939 -0.7146
10272TIP3    H252232   0.539   5.505   0.675 -1.6102 -1.9062  0.4521
10273TIP3   OH252233   6.646   1.431  13.835 -0.1223  0.1662 -0.4204
10273TIP3    H152234   6.672   1.490  13.765  1.4003  0.1520  0.0833
10273TIP3    H252235   6.706   1.356  13.826  0.8642  0.6616  1.5281
10274TIP3   OH252236   1.980   5.150  12.089 -0.2560  0.3787 -0.4857
10274TIP3    H152237   1.977   5.191  12.003  1.0694 -0.4663 -0.9517
10274TIP3    H252238   2.024   5.215  12.145  0.4317  0.2317 -0.8529
10275TIP3   OH252239   6.566   4.373  14.500  0.2700  0.3262 -0.2143
10275TIP3    H152240   6.614   4.303  14.456  0.5350  0.7072 -0.5373
10275TIP3    H252241   6.545   4.337  14.586  0.0783 -0.2874 -0.5091
10276TIP3   OH252242   0.520   1.968   2.461  0.5600  0.0458  0.5861
10276TIP3    H152243   0.497   2.061   2.464 -0.9936 -0.3369  1.1253
10276TIP3    H252244   0.492   1.939   2.375  2.6463  0.4336 -0.2832
10277TIP3   OH252245   1.645   2.481   0.943  0.0400 -0.1111  0.5076
10277TIP3    H152246   1.685   2.451   1.025 -0.0174 -1.8881 -0.0812
10277TIP3    H252247   1.551   2.467   0.956 -0.0494  0.4088  0.4439
10278TIP3   OH252248   5.846   0.372   0.840 -0.3099 -0.1121  0.1583
10278TIP3    H152249   5.841   0.306   0.771 -1.9398 -0.0623  0.1948
10278TIP3    H252250   5.933   0.359   0.879 -0.3778 -1.8639 -0.2014
10279TIP3   OH252251   0.202   2.701   5.400 -0.7321  0.1368  0.6033
10279TIP3    H152252   0.110   2.678   5.419 -0.4508 -1.1580  0.5102
10279TIP3    H252253   0.243   2.618   5.377  0.9877  0.3151  2.7104
10280TIP3   OH252254   4.438   4.812  13.456 -0.4212 -0.2996  0.3599
10280TIP3    H152255   4.501   4.884  13.459 -0.5682 -0.1887  1.3632
10280TIP3    H252256   4.479   4.742  13.506 -1.0287 -0.2653  0.9264
10281TIP3   OH252257   2.001   0.568  16.914  0.0178 -0.2624 -0.1040
10281TIP3    H152258   2.003   0.655  16.874  0.4485 -0.5347 -0.6788
10281TIP3    H252259   1.952   0.514  16.852  1.8254 -1.0107 -0.9407
10282TIP3   OH252260   0.507   0.210   0.730 -0.6068 -0.2260 -0.3342
10282TIP3    H152261   0.561   0.220   0.808 -0.0113 -2.1365 -0.4701
10282TIP3    H252262   0.454   0.290   0.728 -0.9610 -0.3096  2.2589
10283TIP3   OH252263   0.020   2.622   2.158 -0.1484  0.6218 -0.0586
10283TIP3    H152264  -0.013   2.535   2.181 -0.7145  0.4529 -1.4210
10283TIP3    H252265   0.002   2.676   2.235  1.0832 -0.6674  1.1776
10284TIP3   OH252266   6.346   5.326   0.292  0.2444 -0.3028 -0.3152
10284TIP3    H152267   6.268   5.361   0.334  0.6311  0.4805 -0.2326
10284TIP3    H252268   6.329   5.335   0.198  0.5017  0.5009 -0.2946
10285TIP3   OH252269   2.641   4.332  15.413 -0.2746  0.0667  0.2610
10285TIP3    H152270   2.657   4.426  15.408 -1.4635  0.2148 -1.7486
10285TIP3    H252271   2.585   4.321  15.490 -1.1767  1.1838 -0.2107
10286TIP3   OH252272   4.550   3.550   0.024 -0.4237 -0.1221  0.1251
10286TIP3    H152273   4.603   3.541   0.104  0.0381  0.7229 -0.0777
10286TIP3    H252274   4.564   3.640  -0.004 -1.2840 -0.1520 -0.4300
10287TIP3   OH252275   2.346   4.156   5.340  0.1950 -0.2339 -0.4035
10287TIP3    H152276   2.357   4.074   5.291 -3.1348 -0.8276 -0.3447
10287TIP3    H252277   2.354   4.225   5.274  1.3763 -0.6594 -0.7346
10288TIP3   OH252278   3.194   5.627  15.086 -0.0726  0.1254  0.0088
10288TIP3    H152279   3.119   5.617  15.144  0.4656 -1.4242  0.4612
10288TIP3    H252280   3.160   5.607  14.999 -0.4003  0.4178  0.0664
10289TIP3   OH252281   1.010   3.627  12.780 -0.3458  0.6029  0.0671
10289TIP3    H152282   0.999   3.610  12.874  1.4157  3.3213  0.8762
10289TIP3    H252283   0.934   3.679  12.756 -0.2377  0.8499  0.2613
10290TIP3   OH252284   2.167   0.709   0.835 -0.3870  0.3960 -0.3036
10290TIP3    H152285   2.185   0.665   0.752  1.2836 -0.8123  0.6406
10290TIP3    H252286   2.130   0.793   0.810  0.4198  0.2122 -2.2809
10291TIP3   OH252287   6.358   1.002  16.409  1.0015  0.0344  0.3185
10291TIP3    H152288   6.402   0.917  16.412 -0.6529 -0.9032 -0.6383
10291TIP3    H252289   6.413   1.055  16.353  0.1734 -1.6222 -2.2305
10292TIP3   OH252290   1.170   0.701   0.047 -1.0983 -0.0533  0.5140
10292TIP3    H152291   1.184   0.608   0.029 -0.6448 -0.0190  0.6719
10292TIP3    H252292   1.124   0.734  -0.030 -2.2933 -0.6470  0.9488
10293TIP3   OH252293   6.551   6.775   5.725 -0.0927  0.1432  0.3486
10293TIP3    H152294   6.492   6.727   5.668 -0.9195  0.5135  0.8809
10293TIP3    H252295   6.499   6.795   5.803  0.7800  0.3277  0.8974
10294TIP3   OH252296   2.342   5.900  15.306  0.6876 -0.2832 -0.3103
10294TIP3    H152297   2.377   5.812  15.290 -1.6494 -0.7761 -4.1112
10294TIP3    H252298   2.369   5.951  15.230 -2.5659  0.5803 -1.0673
10295TIP3   OH252299   1.927   3.728   4.663 -0.1067  0.4905  0.4092
10295TIP3    H152300   1.899   3.782   4.738 -0.2852  0.0890  0.6351
10295TIP3    H252301   1.867   3.653   4.664  0.0675  0.3457  0.0287
10296TIP3   OH252302   5.229   5.660   2.579 -0.3510  0.1330 -0.4862
10296TIP3    H152303   5.174   5.717   2.633  2.4315  1.6336  1.0331
10296TIP3    H252304   5.285   5.720   2.531  0.2804 -1.2981 -1.6051
10297TIP3   OH252305   5.166   0.527   5.500  0.1671  0.2662  0.4207
10297TIP3    H152306   5.218   0.539   5.421 -0.4698 -2.2415 -0.4639
10297TIP3    H252307   5.228   0.492   5.564 -0.0626 -1.2722 -0.1639
10298TIP3   OH252308   4.202   3.990   4.375  0.0335 -0.2873  0.3533
10298TIP3    H152309   4.199   4.006   4.281  0.1129 -1.2693  0.1728
10298TIP3    H252310   4.259   4.059   4.409 -0.1372  0.1775 -0.2936
10299TIP3   OH252311   6.259   3.156   1.220 -0.3009 -0.7404  0.0908
10299TIP3    H152312   6.260   3.187   1.310 -0.1235 -0.1545 -0.1073
10299TIP3    H252313   6.167   3.135   1.203 -0.1486 -2.0510  0.7990
10300TIP3   OH252314   5.602   2.422   4.279 -0.0454  0.2558 -0.3657
10300TIP3    H152315   5.539   2.465   4.336  0.9817  0.2113  0.8605
10300TIP3    H252316   5.550   2.363   4.225 -0.9543 -0.5077  1.2819
10301TIP3   OH252317   1.356   0.160   4.409 -0.2539  0.3048  0.3402
10301TIP3    H152318   1.290   0.217   4.371  0.9835  2.1179  0.7848
10301TIP3    H252319   1.410   0.133   4.335 -2.1181 -2.2273 -0.2396
10302TIP3   OH252320   4.169   4.309  12.182  0.2625 -0.1100  0.0331
10302TIP3    H152321   4.159   4.240  12.248  0.5208  0.1528  0.3479
10302TIP3    H252322   4.235   4.368  12.218  0.0792  0.2789 -0.2572
10303TIP3   OH252323   1.100   0.716   6.689  0.2629 -0.3972 -0.6084
10303TIP3    H152324   1.146   0.636   6.713  1.1598 -0.0444 -1.1108
10303TIP3    H252325   1.166   0.785   6.694 -0.6242  0.4149  0.3427
10304TIP3   OH252326   3.204   4.388  11.303  0.4455  0.1639  0.1437
10304TIP3    H152327   3.208   4.407  11.397 -0.6253 -1.2808  0.5010
10304TIP3    H252328   3.293   4.407  11.272  1.4015 -1.1845  1.8337
10305TIP3   OH252329   2.276   3.534  11.526 -0.5295 -0.4695  0.2877
10305TIP3    H152330   2.237   3.597  11.587  1.3109 -0.9454  2.0794
10305TIP3    H252331   2.274   3.578  11.442  1.7996  2.6545  1.6630
10306TIP3   OH252332   6.459   4.094  15.202  0.0894  0.1641 -0.5621
10306TIP3    H152333   6.552   4.119  15.201 -0.0565  0.7829  0.4508
10306TIP3    H252334   6.461   3.999  15.217  0.5958 -0.2219 -2.7182
10307TIP3   OH252335   2.557   5.055  16.995 -0.6751  0.2217  0.2838
10307TIP3    H152336   2.526   4.994  17.061 -1.0951 -0.4400 -0.5043
10307TIP3    H252337   2.485   5.062  16.932 -0.3338  0.9179 -0.0508
10308TIP3   OH252338   1.996   4.343   5.625  0.1445  0.2601  0.1021
10308TIP3    H152339   2.014   4.253   5.651  1.3053  1.1726  2.8664
10308TIP3    H252340   2.072   4.368   5.572  0.5569  0.0624  0.5968
10309TIP3   OH252341   5.382   5.351   1.033  0.1331 -0.1359  0.0530
10309TIP3    H152342   5.290   5.324   1.033  0.1195 -0.1561 -1.0801
10309TIP3    H252343   5.392   5.401   0.952  1.0663  0.0891  0.2916
10310TIP3   OH252344   5.475   1.510   6.808 -0.0870 -0.2328 -0.2070
10310TIP3    H152345   5.421   1.464   6.872  1.1197 -3.0255 -1.0377
10310TIP3    H252346   5.428   1.500   6.725  0.3885 -0.2704 -0.4733
10311TIP3   OH252347   1.271   0.669  13.161 -0.3671 -0.1217 -0.3904
10311TIP3    H152348   1.225   0.739  13.114 -0.9244 -0.8575 -0.9632
10311TIP3    H252349   1.286   0.705  13.249  0.0373  0.9961 -0.8987
10312TIP3   OH252350   4.680   4.575  15.732  0.1682 -0.2098 -0.2413
10312TIP3    H152351   4.660   4.500  15.789  1.5764 -0.7504 -0.4244
10312TIP3    H252352   4.660   4.544  15.644  3.6798 -1.5526 -0.6952
10313TIP3   OH252353   1.027   6.293   0.575  0.2680  0.5710  0.0526
10313TIP3    H152354   1.054   6.355   0.506 -1.8078  1.0096 -0.4325
10313TIP3    H252355   1.033   6.344   0.656  3.4242 -0.1530  0.4317
10314TIP3   OH252356   4.280   0.261  15.695  0.0861 -0.1502  0.9876
10314TIP3    H152357   4.349   0.258  15.761  0.4541  0.8941  0.6646
10314TIP3    H252358   4.202   0.228  15.741  0.5851 -0.4780  1.6171
10315TIP3   OH252359   2.384   3.926   0.660  0.1500  0.2884 -0.1367
10315TIP3    H152360   2.332   3.974   0.724 -0.3906 -1.1020  0.5008
10315TIP3    H252361   2.371   3.834   0.682 -0.0088 -0.2405 -2.2057
10316TIP3   OH252362   1.962   0.567   2.756 -0.2655 -0.7003  0.0325
10316TIP3    H152363   2.025   0.614   2.701  0.7317 -2.3213 -0.2620
10316TIP3    H252364   1.925   0.635   2.813  2.1636  0.1974  0.6348
10317TIP3   OH252365   0.148   0.506   2.977 -0.0792 -0.0833  0.1117
10317TIP3    H152366   0.206   0.451   3.030  0.3596 -0.8688 -1.1385
10317TIP3    H252367   0.107   0.564   3.040 -0.1965 -1.5165  1.4350
10318TIP3   OH252368   2.787   4.279   0.144  0.6806 -0.3923  0.4312
10318TIP3    H152369   2.728   4.270   0.218  0.6131  0.0541  0.4300
10318TIP3    H252370   2.736   4.325   0.077  1.0007 -0.0733  0.4015
10319TIP3   OH252371   5.036   0.206   0.389 -0.0791  0.1630  0.2957
10319TIP3    H152372   5.057   0.114   0.403 -0.7361 -0.2560 -1.1925
10319TIP3    H252373   5.096   0.254   0.445 -0.0613 -1.1846  1.4765
10320TIP3   OH252374   3.639   5.389   3.008  0.3730  0.0872 -0.9107
10320TIP3    H152375   3.692   5.339   3.071 -0.6918  0.7172  0.5316
10320TIP3    H252376   3.613   5.467   3.056 -0.8809  0.3515 -1.9838
10321TIP3   OH252377   2.896   5.471   0.310  0.1103  0.2688 -0.3258
10321TIP3    H152378   2.987   5.442   0.321 -0.2833 -1.9197 -2.1435
10321TIP3    H252379   2.865   5.426   0.232 -3.2917 -1.0063  1.5339
10322TIP3   OH252380   1.836   0.774   0.753  0.6386 -0.0234  0.0642
10322TIP3    H152381   1.889   0.803   0.828  1.0794  0.3055 -0.3611
10322TIP3    H252382   1.890   0.795   0.676  0.6834 -1.3922 -0.2991
10323TIP3   OH252383   1.872   6.071  15.207 -0.1371  0.3539  0.3204
10323TIP3    H152384   1.884   6.158  15.245  2.6236 -0.0074  0.5115
10323TIP3    H252385   1.935   6.016  15.255 -2.1725 -1.8918  0.5636
10324TIP3   OH252386   6.776   1.019  14.503  0.0242 -0.0916  0.4557
10324TIP3    H152387   6.686   0.990  14.492 -0.1172  1.0294 -2.0142
10324TIP3    H252388   6.827   0.961  14.446  1.0103 -1.1108  2.2775
10325TIP3   OH252389   4.197   3.493  13.076  0.3837  0.1522  0.0545
10325TIP3    H152390   4.118   3.546  13.089  0.9572  1.4596 -1.3752
10325TIP3    H252391   4.166   3.403  13.068 -0.8165  0.4894  0.7618
10326TIP3   OH252392   3.492   5.544   5.894  0.6703 -0.1045  0.0316
10326TIP3    H152393   3.577   5.501   5.902  0.5127 -0.7562 -1.4684
10326TIP3    H252394   3.503   5.607   5.823 -0.1397 -0.3371 -0.3139
10327TIP3   OH252395   0.303   2.487   0.447 -0.0200  0.3590  0.1987
10327TIP3    H152396   0.387   2.481   0.493  0.5070  2.8081 -0.2997
10327TIP3    H252397   0.238   2.498   0.517  0.2598  0.0163  0.5180
10328TIP3   OH252398   3.930   0.173   2.987 -0.0703 -0.1867 -0.4270
10328TIP3    H152399   4.019   0.141   2.999 -0.4750 -1.8057 -1.4880
10328TIP3    H252400   3.904   0.205   3.073  2.0825  1.8538 -0.4518
10329TIP3   OH252401   4.927   2.376  11.051  0.3394  0.1094 -0.1456
10329TIP3    H152402   4.858   2.329  11.005  1.3075 -0.5003 -1.0005
10329TIP3    H252403   4.938   2.458  11.003 -0.0569  0.3878  0.2308
10330TIP3   OH252404   6.157   2.542   2.590  0.2547  0.2869 -0.2694
10330TIP3    H152405   6.192   2.615   2.642 -0.9930  1.4997 -1.0374
10330TIP3    H252406   6.109   2.585   2.519 -1.4910 -1.2656 -0.1020
10331TIP3   OH252407   4.482   1.271  15.862 -0.3261 -0.0791  0.4401
10331TIP3    H152408   4.397   1.309  15.883  0.0022  0.0441  1.5790
10331TIP3    H252409   4.516   1.326  15.791 -2.4454 -1.8635 -2.1708
10332TIP3   OH252410   2.609   1.507  14.693  0.0860  0.0028 -0.4505
10332TIP3    H152411   2.576   1.451  14.764 -2.1494 -0.7071 -1.9648
10332TIP3    H252412   2.659   1.575  14.738 -0.8909 -0.6556  1.7656
10333TIP3   OH252413   6.691   0.684   7.007 -0.4345  0.3125  0.6699
10333TIP3    H152414   6.606   0.727   7.010  0.2554  1.9668 -1.2711
10333TIP3    H252415   6.703   0.660   6.915  1.8739  1.6400  0.5561
10334TIP3   OH252416   2.896   2.101   5.831  0.0969 -0.1654  0.4133
10334TIP3    H152417   2.883   2.196   5.834 -1.4803 -0.3632  0.3960
10334TIP3    H252418   2.821   2.068   5.782  1.8539 -1.2357 -1.7416
10335TIP3   OH252419   1.048   0.355   2.786 -0.3671 -0.7324 -0.6997
10335TIP3    H152420   1.135   0.317   2.774 -0.1802 -0.5200 -0.0469
10335TIP3    H252421   1.044   0.426   2.722  0.6978  0.5277  0.5864
10336TIP3   OH252422   6.634   4.734  11.395  0.0705  0.4034  0.2879
10336TIP3    H152423   6.717   4.771  11.366 -0.5459 -0.3593 -2.9514
10336TIP3    H252424   6.571   4.806  11.386 -0.0061  0.3503  0.4026
10337TIP3   OH252425   6.298   3.392  12.130  0.5855  0.0004 -0.0933
10337TIP3    H152426   6.236   3.322  12.148  0.8937 -0.3167 -0.2447
10337TIP3    H252427   6.310   3.390  12.035 -2.0198  2.4977 -0.5894
10338TIP3   OH252428   2.253   3.431   5.658  0.7126  0.1149 -0.2869
10338TIP3    H152429   2.171   3.418   5.705  0.2178 -1.9596 -1.6211
10338TIP3    H252430   2.315   3.458   5.726 -0.7322  0.3806  0.9799
10339TIP3   OH252431   3.827   2.557  15.121 -0.6063  0.2056  0.0286
10339TIP3    H152432   3.876   2.629  15.161 -0.9540 -0.0900  1.0165
10339TIP3    H252433   3.839   2.569  15.027  2.4273 -0.5976  0.2377
10340TIP3   OH252434   0.660   1.813   1.821  0.3110  0.4378 -0.6063
10340TIP3    H152435   0.583   1.757   1.807 -0.2402  0.5131  1.8008
10340TIP3    H252436   0.706   1.774   1.895  2.2014  0.8640 -1.4916
10341TIP3   OH252437   4.861   5.686   4.233  0.3640 -0.2340 -0.5596
10341TIP3    H152438   4.781   5.740   4.232  1.7218  1.9057 -0.1587
10341TIP3    H252439   4.898   5.696   4.145  2.2715  2.2480  0.3972
10342TIP3   OH252440   6.059   4.112   6.304  0.0057 -0.3371 -0.2061
10342TIP3    H152441   5.998   4.173   6.260  0.2509  0.8441  1.0281
10342TIP3    H252442   6.006   4.070   6.372 -0.4205 -2.3069 -1.6677
10343TIP3   OH252443   0.105   3.475  12.714  0.1518 -0.2088  0.2175
10343TIP3    H152444   0.155   3.449  12.792 -0.7125 -3.4800 -0.1755
10343TIP3    H252445   0.014   3.455  12.736 -0.2526 -0.0827 -1.2479
10344TIP3   OH252446   3.184   4.222   4.301 -0.5000  0.1961  0.8091
10344TIP3    H152447   3.274   4.253   4.293 -0.5004 -0.1691 -1.7112
10344TIP3    H252448   3.131   4.291   4.261 -1.1345 -0.3806  0.6319
10345TIP3   OH252449   3.135   3.088  15.062 -0.3136  0.3271 -0.2936
10345TIP3    H152450   3.137   3.180  15.037 -0.2792  0.4017 -0.0161
10345TIP3    H252451   3.041   3.066  15.062 -0.3574  0.5021  0.1459
10346TIP3   OH252452   0.303   0.330  13.218  0.1139 -0.1663 -0.1724
10346TIP3    H152453   0.244   0.405  13.230  1.2688  1.1330 -1.9687
10346TIP3    H252454   0.355   0.327  13.298  1.1765  2.0825 -0.7030
10347TIP3   OH252455   1.699   5.450  13.345  0.0723  0.3860  0.0330
10347TIP3    H152456   1.782   5.487  13.374 -0.9533  1.0005  2.4000
10347TIP3    H252457   1.717   5.419  13.256  3.0543 -0.2306  0.7145
10348TIP3   OH252458   5.066   6.066   3.425 -0.3125 -0.6439  0.1251
10348TIP3    H152459   5.121   6.065   3.503 -0.0490  0.0816 -0.0420
10348TIP3    H252460   5.083   5.982   3.381 -0.5984 -1.1311  0.9312
10349TIP3   OH252461   6.144   1.988  16.222 -0.4836  0.0292 -0.0448
10349TIP3    H152462   6.054   1.959  16.239 -0.0886 -0.3250  1.5972
10349TIP3    H252463   6.181   2.006  16.308  1.2114 -0.3864 -0.6312
10350TIP3   OH252464   4.893   4.304  16.944 -0.0164  0.2318 -0.2805
10350TIP3    H152465   4.859   4.298  17.033 -0.4470  0.7423 -0.4107
10350TIP3    H252466   4.822   4.341  16.893  0.4603  0.5678 -0.7093
10351TIP3   OH252467   0.068   6.646   2.239 -0.6664  0.2374 -0.1121
10351TIP3    H152468   0.113   6.632   2.323 -0.8713 -1.9488 -0.3111
10351TIP3    H252469   0.018   6.566   2.225  0.8652 -0.3103 -3.2556
10352TIP3   OH252470   4.175   0.906   1.622 -0.0431  0.3426 -0.3176
10352TIP3    H152471   4.196   0.897   1.715 -0.8347  0.3257 -0.1342
10352TIP3    H252472   4.123   0.828   1.601 -0.4268  0.6749 -0.6150
10353TIP3   OH252473   4.068   5.998   6.698 -0.5363  1.0247 -0.0059
10353TIP3    H152474   4.007   5.962   6.762  3.2111 -0.8056  2.9048
10353TIP3    H252475   4.103   5.922   6.652  0.2947  1.9097 -0.8850
10354TIP3   OH252476   4.636   4.469   2.668 -0.4566 -0.0679 -0.0553
10354TIP3    H152477   4.687   4.449   2.590  0.1951  0.4540  0.2334
10354TIP3    H252478   4.630   4.564   2.670 -0.6400 -0.0846  0.4275
10355TIP3   OH252479   6.121   2.827  11.691  0.1962  0.1486  0.5207
10355TIP3    H152480   6.045   2.822  11.632 -0.1930  0.0502  1.0282
10355TIP3    H252481   6.084   2.856  11.774  0.5744 -0.7736  1.0251
10356TIP3   OH252482   3.467   1.091  15.160  0.0461  0.3526  0.0188
10356TIP3    H152483   3.375   1.108  15.179 -0.0909 -1.1081  0.8236
10356TIP3    H252484   3.479   1.120  15.070 -1.1726  0.6554 -0.0608
10357TIP3   OH252485   4.810   1.445   2.027  0.1763 -0.0888 -0.5677
10357TIP3    H152486   4.864   1.374   1.994  0.7186 -0.4941  1.0696
10357TIP3    H252487   4.762   1.407   2.101 -0.0693  1.0408 -0.1134
10358TIP3   OH252488   4.671   1.693  14.606  0.1820  0.6346  0.0927
10358TIP3    H152489   4.715   1.713  14.689  1.4420  0.4666 -0.5012
10358TIP3    H252490   4.652   1.599  14.610  0.1659  0.6438  0.2228
10359TIP3   OH252491   4.358   4.764   1.090  0.2455  0.1056 -0.1353
10359TIP3    H152492   4.313   4.777   1.173  2.9265  0.8821  1.3000
10359TIP3    H252493   4.362   4.669   1.079 -0.9749  0.0146  0.1100
10360TIP3   OH252494   2.235   1.665  16.210  0.2628 -0.1193 -0.0918
10360TIP3    H152495   2.291   1.732  16.249 -0.2998  0.6584 -0.5796
10360TIP3    H252496   2.208   1.610  16.283  0.3235  0.4996  0.4039
10361TIP3   OH252497   2.170   4.649   0.112  0.0291  0.1388 -0.0560
10361TIP3    H152498   2.145   4.642   0.204 -0.9182 -0.8330 -0.3674
10361TIP3    H252499   2.112   4.588   0.066  0.2103  0.8960 -1.3535
10362TIP3   OH252500   5.366   5.544   5.385 -0.5011  0.0985 -0.0732
10362TIP3    H152501   5.342   5.452   5.374 -1.1545  0.1542  0.7636
10362TIP3    H252502   5.294   5.593   5.346 -2.1310  0.2704  2.8146
10363TIP3   OH252503   0.530   5.348  15.892 -0.0454 -0.5265  0.0121
10363TIP3    H152504   0.519   5.443  15.905  0.6870 -0.5860  1.2948
10363TIP3    H252505   0.441   5.314  15.891 -0.2964  0.0732  0.5240
10364TIP3   OH252506   5.732   0.064  13.163  0.1594 -0.5346 -0.2341
10364TIP3    H152507   5.665   0.008  13.124  0.2403 -0.1686 -0.9099
10364TIP3    H252508   5.769   0.011  13.235  0.1797 -1.3129 -0.8010
10365TIP3   OH252509   5.150   0.046  13.388 -0.1127  0.1292 -0.6600
10365TIP3    H152510   5.153  -0.035  13.439 -1.5917  0.0054 -0.7162
10365TIP3    H252511   5.074   0.093  13.423 -0.3894  0.6255 -1.8808
10366TIP3   OH252512   0.509   4.565   4.708 -0.1402 -0.0337  0.1226
10366TIP3    H152513   0.518   4.596   4.618  0.1621 -1.9239 -0.5381
10366TIP3    H252514   0.468   4.638   4.755  0.7503  1.4112 -1.2688
10367TIP3   OH252515   6.247   4.572   2.744 -0.2131  0.3480 -0.3656
10367TIP3    H152516   6.191   4.500   2.712  1.0775  0.3440 -2.7554
10367TIP3    H252517   6.188   4.647   2.750 -1.4203 -0.6447  1.4768
10368TIP3   OH252518   5.569   6.666  11.791 -0.2669 -0.4940 -0.1030
10368TIP3    H152519   5.625   6.589  11.802  0.7037  0.3558  1.1483
10368TIP3    H252520   5.584   6.718  11.870 -0.2894  1.3492 -1.2518
10369TIP3   OH252521   0.448   0.007   5.670 -0.3128 -0.1201  0.0607
10369TIP3    H152522   0.538   0.031   5.693 -0.3341 -0.9323  1.1134
10369TIP3    H252523   0.440  -0.085   5.698 -1.8460  0.3030  1.1976
10370TIP3   OH252524   6.762   0.567  16.928  0.3690 -0.3752  0.4365
10370TIP3    H152525   6.840   0.613  16.895 -0.5615  1.8843  1.2060
10370TIP3    H252526   6.699   0.574  16.857  0.0286  0.0646  0.7780
10371TIP3   OH252527   1.697   5.356   1.101  0.1610  0.2754 -0.2387
10371TIP3    H152528   1.718   5.335   1.011  1.7470 -2.2066  0.6033
10371TIP3    H252529   1.781   5.352   1.147 -0.6066  1.4362  1.3783
10372TIP3   OH252530   2.991   1.285  15.053  0.2198  0.4477 -0.0415
10372TIP3    H152531   3.012   1.377  15.038 -1.9493  0.8223 -1.2445
10372TIP3    H252532   2.897   1.285  15.073 -0.1863 -1.5945 -1.5609
10373TIP3   OH252533   6.751   6.328   5.603 -0.2410 -0.1593  0.4244
10373TIP3    H152534   6.730   6.341   5.510  0.3814  0.7891  0.4001
10373TIP3    H252535   6.820   6.392   5.621  1.9458 -2.4359  0.7313
10374TIP3   OH252536   4.139   1.256   4.419  0.2091 -0.2848 -1.2055
10374TIP3    H152537   4.181   1.180   4.379 -0.0815  0.0240 -2.1077
10374TIP3    H252538   4.182   1.331   4.380  1.6005  0.0574  0.8423
10375TIP3   OH252539   3.428   3.784  15.119 -0.2130  0.2450  0.5449
10375TIP3    H152540   3.451   3.695  15.091  0.9272  0.3931  0.9363
10375TIP3    H252541   3.488   3.802  15.192 -1.4779  0.7722  1.4751
10376TIP3   OH252542   3.104   5.811  16.913  0.0868 -0.6248  0.3311
10376TIP3    H152543   3.136   5.754  16.983 -1.7238 -1.2501  0.7002
10376TIP3    H252544   3.018   5.776  16.890 -0.3979  1.0134 -0.5432
10377TIP3   OH252545   3.581   1.916  14.344  0.2371 -0.5060 -0.3853
10377TIP3    H152546   3.598   1.822  14.330  0.6456 -0.3032 -1.3914
10377TIP3    H252547   3.603   1.956  14.260 -1.3542  0.3090 -0.4522
10378TIP3   OH252548   0.758   6.221  12.703  0.4444 -0.3057  0.1419
10378TIP3    H152549   0.718   6.181  12.780  1.1848  1.0941  1.3095
10378TIP3    H252550   0.685   6.261  12.656  0.0438 -0.7945  0.3305
10379TIP3   OH252551   6.315   2.650  13.399 -0.6106  0.0277  0.4457
10379TIP3    H152552   6.250   2.717  13.418 -0.8271  0.2055 -0.7964
10379TIP3    H252553   6.265   2.569  13.393 -0.7317  0.1579 -0.4680
10380TIP3   OH252554   1.468   5.493   2.968  0.5250 -0.2193 -0.1516
10380TIP3    H152555   1.383   5.535   2.978  0.8805  0.4833  0.0018
10380TIP3    H252556   1.470   5.425   3.035  0.7543  0.8982  1.0139
10381TIP3   OH252557   6.539   3.066   2.480  0.9126  0.2385 -0.2181
10381TIP3    H152558   6.476   3.015   2.430  0.5046 -0.5931  1.0822
10381TIP3    H252559   6.624   3.040   2.446  0.7513 -1.7961  0.7952
10382TIP3   OH252560   2.077   4.977  16.045  0.2032 -0.0551 -0.2128
10382TIP3    H152561   2.118   4.910  15.991 -2.3804 -0.1960 -2.1804
10382TIP3    H252562   2.150   5.028  16.080  2.0749 -1.5368 -1.7678
10383TIP3   OH252563   6.397   4.315   2.483 -0.3072 -0.1752 -0.0759
10383TIP3    H152564   6.335   4.286   2.549  1.6632 -1.6943  1.2111
10383TIP3    H252565   6.467   4.359   2.532 -0.7050  2.3615 -1.5523
10384TIP3   OH252566   5.382   3.484   0.876 -0.2692 -0.1836  1.1434
10384TIP3    H152567   5.463   3.436   0.893 -0.7923 -1.0640  1.2554
10384TIP3    H252568   5.337   3.431   0.810  0.3817  1.6185 -0.8541
10385TIP3   OH252569   0.036   1.024  12.339 -0.2944 -0.2663  0.1817
10385TIP3    H152570  -0.020   1.028  12.416  0.7765  0.4115  0.9454
10385TIP3    H252571   0.076   1.111  12.333  1.5961 -1.0806  0.3607
10386TIP3   OH252572   2.203   5.119   0.729  0.3034  0.4642  0.1601
10386TIP3    H152573   2.112   5.103   0.701  0.6090 -0.8204 -0.1681
10386TIP3    H252574   2.221   5.209   0.700 -0.6892  0.5454 -0.2589
10387TIP3   OH252575   5.181   2.617   1.563 -0.0918  0.0681  0.5951
10387TIP3    H152576   5.169   2.677   1.490 -0.4971 -2.1754 -1.2896
10387TIP3    H252577   5.148   2.533   1.531  1.9683 -1.5834  2.4718
10388TIP3   OH252578   2.634   0.856  10.556  0.6284  0.2549 -0.2081
10388TIP3    H152579   2.647   0.951  10.562  0.7072  0.3068 -1.0454
10388TIP3    H252580   2.721   0.819  10.568  0.4998  0.2509  0.7520
10389TIP3   OH252581   4.370   6.152   0.044  0.9357  0.0425  0.0487
10389TIP3    H152582   4.338   6.140   0.133  0.4168  3.8271  0.5425
10389TIP3    H252583   4.454   6.107   0.043  0.0027 -1.8873  1.7362
10390TIP3   OH252584   5.226   4.421  11.060  0.6955 -0.1949  0.3639
10390TIP3    H152585   5.211   4.407  10.966 -2.5783 -1.9171  0.9989
10390TIP3    H252586   5.201   4.338  11.101  0.0561  1.1458  2.9004
10391TIP3   OH252587   6.292   3.724  14.649 -0.3928 -0.0264 -0.4375
10391TIP3    H152588   6.250   3.705  14.733  0.7142 -0.7744 -0.0246
10391TIP3    H252589   6.223   3.708  14.584 -0.9336 -0.5924  0.2552
10392TIP3   OH252590   3.395   4.343   4.085 -0.1614  0.2975  0.6879
10392TIP3    H152591   3.462   4.401   4.122  0.8823 -0.3614 -0.1064
10392TIP3    H252592   3.412   4.345   3.991  0.0696 -1.4821  0.6668
10393TIP3   OH252593   2.958   4.504   2.284 -0.5610  0.5635 -0.2459
10393TIP3    H152594   3.023   4.566   2.317  0.5793 -0.4624 -0.4745
10393TIP3    H252595   2.916   4.550   2.211  1.0136  0.7137 -1.1179
10394TIP3   OH252596   1.112   4.272  14.211 -0.6167 -0.1107 -0.0296
10394TIP3    H152597   1.191   4.221  14.230  0.0219  1.0231  0.4748
10394TIP3    H252598   1.062   4.217  14.150  2.0136  0.3601 -2.8918
10395TIP3   OH252599   6.540   3.842  12.265 -0.0240  0.1923  0.0653
10395TIP3    H152600   6.460   3.826  12.315 -0.8147  2.4141 -0.3688
10395TIP3    H252601   6.590   3.903  12.319 -0.3357  1.6731 -1.2595
10396TIP3   OH252602   5.344   6.550   5.475  0.4655 -0.2413 -0.0131
10396TIP3    H152603   5.300   6.629   5.444  0.9308  0.3081  0.7042
10396TIP3    H252604   5.389   6.577   5.555  2.1502 -0.7714 -0.7370
10397TIP3   OH252605   2.916   2.966  14.065 -0.3388 -0.0723 -0.2133
10397TIP3    H152606   2.989   2.952  14.005  0.6782 -0.9244  1.1605
10397TIP3    H252607   2.956   2.969  14.152 -1.7552  1.2162  0.4409
10398TIP3   OH252608   3.271   3.386   0.045 -1.1116 -0.2112  0.2361
10398TIP3    H152609   3.191   3.334   0.034 -1.9608  0.8130  1.3386
10398TIP3    H252610   3.240   3.473   0.070  0.2512  1.0172 -1.9982
10399TIP3   OH252611   1.466   3.260  17.319  0.7180 -0.0487 -0.4886
10399TIP3    H152612   1.415   3.220  17.389  1.3404 -2.8432 -1.4579
10399TIP3    H252613   1.553   3.273  17.357  0.2048  1.5578  0.1815
10400TIP3   OH252614   4.509   4.401   5.784 -0.2559 -0.1750  0.2220
10400TIP3    H152615   4.603   4.391   5.770 -0.2366  0.1558  0.1078
10400TIP3    H252616   4.482   4.467   5.721 -0.5566 -0.2314  0.2890
10401TIP3   OH252617   5.049   1.348   6.037 -0.0702  0.0636  0.1056
10401TIP3    H152618   5.041   1.323   6.129 -3.4613  1.2001  0.2782
10401TIP3    H252619   5.078   1.269   5.993 -1.3941 -1.4466  1.7846
10402TIP3   OH252620   3.572   2.351   5.292  0.5256  1.0273  0.2583
10402TIP3    H152621   3.567   2.334   5.386 -0.3089  0.2130  0.0876
10402TIP3    H252622   3.665   2.364   5.275  0.7383  0.7289  1.1247
10403TIP3   OH252623   2.516   5.453   5.629 -0.5122 -0.2806  0.0622
10403TIP3    H152624   2.575   5.446   5.554  1.0445  1.3260  1.0330
10403TIP3    H252625   2.491   5.546   5.631 -1.1590 -0.4616  1.0670
10404TIP3   OH252626   1.075   3.240  14.542 -0.3944  0.1508  0.1450
10404TIP3    H152627   1.170   3.238  14.537 -0.4549 -0.3518 -1.6965
10404TIP3    H252628   1.052   3.173  14.606  0.4777  0.5964  0.9535
10405TIP3   OH252629   6.320   4.078   0.762  0.8014  0.4034  0.0377
10405TIP3    H152630   6.338   4.129   0.841 -0.4828  1.2622 -0.1927
10405TIP3    H252631   6.273   4.138   0.705 -2.4264 -1.4556  0.4725
10406TIP3   OH252632   6.262   0.316  15.824  0.2723  0.2968 -0.4562
10406TIP3    H152633   6.332   0.311  15.890  1.2283 -1.3553 -1.5216
10406TIP3    H252634   6.289   0.387  15.766 -0.3665  1.4857  0.6278
10407TIP3   OH252635   0.808   1.638   5.950 -0.0222 -0.8542 -0.3316
10407TIP3    H152636   0.730   1.693   5.960  0.9180  0.5204 -0.2782
10407TIP3    H252637   0.811   1.586   6.030 -0.9172 -0.9760 -0.3697
10408TIP3   OH252638   3.794   4.662   0.609 -0.3392  0.5152  0.5881
10408TIP3    H152639   3.853   4.736   0.625  0.3664  0.1210 -0.1059
10408TIP3    H252640   3.768   4.672   0.517  1.2969 -1.1277 -0.1246
10409TIP3   OH252641   6.289   4.886  12.312 -0.0607 -0.6419  0.1321
10409TIP3    H152642   6.324   4.811  12.264  1.0438 -0.6257  0.8861
10409TIP3    H252643   6.350   4.957  12.295  1.9283 -1.2887  3.5754
10410TIP3   OH252644   4.118   4.995   0.734 -0.1305  0.0976 -0.3256
10410TIP3    H152645   4.138   4.927   0.670  0.9724  0.1273 -0.0478
10410TIP3    H252646   4.023   4.992   0.744 -0.1498 -1.0816 -0.6683
10411TIP3   OH252647   3.430   0.690  11.738  1.3795  0.1863  0.0115
10411TIP3    H152648   3.341   0.723  11.750  1.2660 -0.3268  0.5844
10411TIP3    H252649   3.458   0.729  11.655 -0.7609 -2.6049 -2.2075
10412TIP3   OH252650   6.084   2.957  17.307  0.0609  0.4678 -0.5212
10412TIP3    H152651   6.044   2.952  17.221 -0.7415  0.8020 -0.1789
10412TIP3    H252652   6.013   2.934  17.368  1.2658 -2.4196 -0.0773
10413TIP3   OH252653   0.663   5.021   6.508  0.0773 -0.1080  0.0916
10413TIP3    H152654   0.605   4.949   6.482 -2.1569  1.2034  1.1692
10413TIP3    H252655   0.610   5.100   6.497  1.9792  1.2619  0.3220
10414TIP3   OH252656   3.293   0.367   5.419 -0.0174 -0.0315 -0.0180
10414TIP3    H152657   3.312   0.456   5.387 -2.2618  0.5971  0.2324
10414TIP3    H252658   3.261   0.320   5.342 -1.9954  0.4160  0.4737
10415TIP3   OH252659   5.638   0.681   6.198 -0.7139  0.3732 -0.0417
10415TIP3    H152660   5.662   0.761   6.245  2.0383 -1.5937  2.2598
10415TIP3    H252661   5.611   0.619   6.267  0.5539 -1.7235 -1.3144
10416TIP3   OH252662   1.846   0.254  17.253 -0.2015  0.0418  0.1768
10416TIP3    H152663   1.864   0.181  17.312 -0.4138  2.0051  2.8812
10416TIP3    H252664   1.812   0.323  17.310  2.3800  3.1796 -1.7321
10417TIP3   OH252665   1.858   2.817   2.363 -0.0432  0.4346  0.2514
10417TIP3    H152666   1.866   2.728   2.329 -0.0811 -0.3778  2.2533
10417TIP3    H252667   1.859   2.873   2.285 -2.0412 -1.4196 -1.2152
10418TIP3   OH252668   6.537   1.058  12.638  0.9256 -0.4444  0.0800
10418TIP3    H152669   6.530   1.152  12.653  3.0954 -0.0567 -0.9701
10418TIP3    H252670   6.449   1.024  12.656 -0.3875  2.0118 -1.2128
10419TIP3   OH252671   6.262   5.655   1.115 -0.4294 -0.0082 -0.3950
10419TIP3    H152672   6.217   5.639   1.198 -0.7443  0.2625 -0.5134
10419TIP3    H252673   6.300   5.742   1.125  0.0494 -0.2267 -0.3042
10420TIP3   OH252674   2.976   5.603  14.137 -0.2308 -0.3683  0.3044
10420TIP3    H152675   2.989   5.583  14.044  0.0831  0.9822  0.0278
10420TIP3    H252676   3.064   5.605  14.174 -0.4473 -2.5267  1.0276
10421TIP3   OH252677   4.352   6.238  15.410  0.2455 -0.5173  0.0739
10421TIP3    H152678   4.436   6.216  15.369 -0.5106 -1.5812 -0.9660
10421TIP3    H252679   4.366   6.222  15.504  1.1839 -0.6966 -0.0890
10422TIP3   OH252680   3.588   6.678   6.584  0.3473  0.7856  0.6283
10422TIP3    H152681   3.494   6.683   6.569  0.3139  0.3037  0.6632
10422TIP3    H252682   3.617   6.602   6.533  0.4680  0.0116  1.8080
10423TIP3   OH252683   3.868   5.596   0.355  0.1159 -0.2281 -0.7239
10423TIP3    H152684   3.895   5.618   0.265 -0.4780 -1.7296 -1.3007
10423TIP3    H252685   3.939   5.542   0.389  0.8043  1.1566  0.0897
10424TIP3   OH252686   5.525   1.737   6.287 -0.2789 -0.4271  0.3000
10424TIP3    H152687   5.545   1.828   6.309  1.1538 -0.5875 -0.1889
10424TIP3    H252688   5.568   1.686   6.356  0.7676 -0.7814 -0.5844
10425TIP3   OH252689   4.805   6.556  13.514 -0.1070  0.2165  0.4952
10425TIP3    H152690   4.869   6.626  13.528  0.8867 -0.6068  0.2073
10425TIP3    H252691   4.766   6.576  13.429  0.0593  0.5022  0.4841
10426TIP3   OH252692   3.854   5.631   6.001  0.0598 -0.2634  0.4379
10426TIP3    H152693   3.912   5.601   6.071  0.4360 -1.5777 -0.4171
10426TIP3    H252694   3.910   5.686   5.946  0.5157 -1.4706 -0.3452
10427TIP3   OH252695   0.161   4.886  13.993  0.1598 -0.4709  0.4215
10427TIP3    H152696   0.169   4.795  14.022 -2.7121 -1.4900 -1.5645
10427TIP3    H252697   0.234   4.898  13.932  0.4501 -1.5071  0.5405
10428TIP3   OH252698   1.682   3.469  14.480 -0.7670  0.4972  0.0388
10428TIP3    H152699   1.776   3.463  14.493 -0.7926  1.6671  0.9466
10428TIP3    H252700   1.670   3.450  14.387  0.1908 -1.0756  0.2097
10429TIP3   OH252701   0.114   5.742   2.383 -0.2695 -0.6144 -0.0492
10429TIP3    H152702   0.177   5.673   2.360  0.6296  0.0867  0.2298
10429TIP3    H252703   0.038   5.695   2.416 -0.2390 -1.5181 -1.1871
10430TIP3   OH252704   1.760   0.444   4.638  0.5282 -0.1236 -0.1221
10430TIP3    H152705   1.774   0.486   4.722  0.3955 -0.6279  0.1578
10430TIP3    H252706   1.666   0.428   4.635  0.8050 -2.2353  0.6869
10431TIP3   OH252707   4.618   5.733   2.738  0.0191 -0.4008  0.7221
10431TIP3    H152708   4.679   5.786   2.789 -0.8550 -0.8567  2.3154
10431TIP3    H252709   4.548   5.793   2.713  1.2358  0.2010 -1.3970
10432TIP3   OH252710   0.017   5.314  15.949  0.3843 -0.0236  0.2879
10432TIP3    H152711  -0.035   5.265  15.885  0.0961  0.4701  0.1426
10432TIP3    H252712   0.059   5.246  16.002 -0.8643 -0.4505  0.7834
10433TIP3   OH252713   1.916   3.792   5.739 -0.2498  0.0203 -0.3041
10433TIP3    H152714   1.831   3.753   5.719 -0.2481 -0.0122 -0.2478
10433TIP3    H252715   1.980   3.734   5.696 -0.1657 -0.7297  0.7733
10434TIP3   OH252716   6.149   4.797  15.841 -0.4544  0.5576 -0.5870
10434TIP3    H152717   6.186   4.868  15.790  1.1110  0.6735  0.6300
10434TIP3    H252718   6.224   4.744  15.868 -1.2483  0.2048  1.1072
10435TIP3   OH252719   3.997   5.592   3.556  0.6632 -0.8269 -0.5541
10435TIP3    H152720   3.950   5.537   3.618 -1.9581  0.8018 -0.9254
10435TIP3    H252721   3.975   5.555   3.470 -2.0820  1.2152 -0.8987
10436TIP3   OH252722   2.870   0.966  16.976 -0.1362  0.0932  0.2483
10436TIP3    H152723   2.837   0.973  16.887  0.7693  3.2225  0.0373
10436TIP3    H252724   2.917   0.883  16.978 -1.4968 -0.7821 -1.6870
10437TIP3   OH252725   5.230   6.227   4.899 -0.1404  0.1692 -0.2051
10437TIP3    H152726   5.188   6.148   4.866  1.5487 -1.4962  1.4338
10437TIP3    H252727   5.284   6.257   4.826  0.5795 -1.2403 -0.2901
10438TIP3   OH252728   2.418   1.946  11.802 -0.3007 -0.5053  0.3649
10438TIP3    H152729   2.353   1.876  11.793  1.0677 -1.5955 -1.8126
10438TIP3    H252730   2.396   2.010  11.735 -0.3075  0.1480  0.9715
10439TIP3   OH252731   1.221   2.879   4.199  0.2070 -0.4518  0.3141
10439TIP3    H152732   1.242   2.898   4.290  0.0048 -1.5570  0.6042
10439TIP3    H252733   1.276   2.803   4.177  1.3691  0.6747 -0.9519
10440TIP3   OH252734   4.175   3.582  15.921 -0.3829 -0.3767  0.0587
10440TIP3    H152735   4.206   3.552  16.006  3.2851  0.1893 -0.8994
10440TIP3    H252736   4.182   3.505  15.864 -1.1023 -0.3043 -0.1372
10441TIP3   OH252737   5.934   1.465  15.992  0.8360  0.4146  0.1310
10441TIP3    H152738   6.012   1.517  15.975  0.6824  1.0927  1.3411
10441TIP3    H252739   5.890   1.511  16.063  0.6397 -1.3091  1.1917
10442TIP3   OH252740   4.664   4.523  11.647 -0.0682 -0.2882  0.5396
10442TIP3    H152741   4.736   4.565  11.695 -1.3622  0.6423  1.7902
10442TIP3    H252742   4.672   4.556  11.558  1.2871 -0.5277  0.5559
10443TIP3   OH252743   0.895   2.767   4.334  0.5529 -0.5379 -0.0085
10443TIP3    H152744   0.837   2.819   4.391  1.0475  0.5129 -0.4467
10443TIP3    H252745   0.940   2.708   4.394  2.2708  1.6503  0.9853
10444TIP3   OH252746   2.287   6.344   3.414  0.2680 -0.2195 -0.0691
10444TIP3    H152747   2.337   6.300   3.345  1.1301  0.3517  0.1755
10444TIP3    H252748   2.351   6.400   3.458 -0.3562 -0.2866  0.9544
10445TIP3   OH252749   2.367   2.351  12.042  0.0309 -0.3161  0.8152
10445TIP3    H152750   2.379   2.388  12.129  0.1851 -0.5605  0.8966
10445TIP3    H252751   2.346   2.259  12.057 -1.0417 -0.1188  0.6401
10446TIP3   OH252752   3.916   5.215   2.805  0.4062 -0.1204 -0.6411
10446TIP3    H152753   4.006   5.213   2.838  0.4261 -0.4632 -0.7141
10446TIP3    H252754   3.862   5.197   2.882  0.2888  1.8240 -0.2208
10447TIP3   OH252755   1.560   5.970   3.404  0.0828 -0.2353 -0.9177
10447TIP3    H152756   1.655   5.955   3.399  0.1925 -0.0648  0.3063
10447TIP3    H252757   1.524   5.888   3.437  0.0068  0.2194  0.1668
10448TIP3   OH252758   6.729   2.921  13.409 -0.4220  0.2775 -0.2231
10448TIP3    H152759   6.701   2.850  13.467 -0.2004  0.5100  0.1699
10448TIP3    H252760   6.661   2.925  13.341 -0.8350  0.1992  0.1855
10449TIP3   OH252761   2.652   2.912   2.292 -0.6238 -0.3296  0.4294
10449TIP3    H152762   2.744   2.886   2.291 -0.4603  0.1978 -1.2910
10449TIP3    H252763   2.651   2.994   2.342  0.1052  0.4431 -0.7664
10450TIP3   OH252764   0.433   0.469  16.310  0.1517 -0.1120  0.1251
10450TIP3    H152765   0.476   0.525  16.375 -0.7224 -0.8862  1.4237
10450TIP3    H252766   0.467   0.381  16.328  3.1535  0.1201 -3.2342
10451TIP3   OH252767   5.680   4.252  14.518  0.0145 -0.3110 -0.1799
10451TIP3    H152768   5.733   4.185  14.475 -0.3057  0.0584 -1.1821
10451TIP3    H252769   5.593   4.241  14.480 -0.0962  0.5135 -0.1717
10452TIP3   OH252770   3.030   2.372  11.718  0.4365 -0.1196 -0.5566
10452TIP3    H152771   3.049   2.289  11.761 -1.2926  0.1503  0.8185
10452TIP3    H252772   2.953   2.406  11.763  0.7715  1.9853 -1.4508
10453TIP3   OH252773   2.518   4.095  13.407 -0.1165 -0.6620 -0.5239
10453TIP3    H152774   2.600   4.145  13.404 -1.1920  1.1641 -1.1250
10453TIP3    H252775   2.482   4.114  13.493 -1.0110  0.5037 -1.1144
10454TIP3   OH252776   6.689   5.732   4.275 -0.2699  0.1237  0.0545
10454TIP3    H152777   6.656   5.808   4.322 -2.6573 -0.4944 -0.4857
10454TIP3    H252778   6.768   5.763   4.230 -0.8801  2.0983  0.2776
10455TIP3   OH252779   5.901   6.493   0.911  0.0925  0.2610  0.0242
10455TIP3    H152780   5.865   6.571   0.954 -0.3030  0.9319 -1.4742
10455TIP3    H252781   5.845   6.422   0.942 -0.6381  0.8368  0.0643
10456TIP3   OH252782   4.146   0.200  11.925  0.3233  0.4366 -0.0838
10456TIP3    H152783   4.103   0.281  11.950 -0.2987 -0.0405  0.4179
10456TIP3    H252784   4.190   0.221  11.843  1.1907  1.6180  0.6543
10457TIP3   OH252785   4.180   6.368   3.582 -0.4212  0.3590 -0.4161
10457TIP3    H152786   4.180   6.354   3.676  0.3435  2.1073 -0.1180
10457TIP3    H252787   4.091   6.398   3.562 -0.8606 -0.9082 -0.4212
10458TIP3   OH252788   0.271   5.467   2.324 -0.0430  0.4039  0.1036
10458TIP3    H152789   0.356   5.438   2.291 -0.6106  0.2638 -1.2808
10458TIP3    H252790   0.225   5.386   2.346 -0.3279  0.4061 -0.4662
10459TIP3   OH252791   4.124   6.102   0.837 -0.0813  1.0961  0.3592
10459TIP3    H152792   4.159   6.120   0.924 -0.7005  1.8248  0.4690
10459TIP3    H252793   4.036   6.139   0.838 -0.7559 -0.4091 -0.0134
10460TIP3   OH252794   6.497   0.578  10.531 -0.1071  0.5851  0.4612
10460TIP3    H152795   6.506   0.674  10.532 -0.8050  0.6542  1.2387
10460TIP3    H252796   6.417   0.561  10.580  0.1782 -0.4241  0.5982
10461TIP3   OH252797   0.141   1.815  15.766  0.2870  0.2256 -0.3798
10461TIP3    H152798   0.191   1.859  15.697 -0.6813  2.0007  0.0042
10461TIP3    H252799   0.050   1.834  15.746 -0.0589 -0.0336  0.8742
10462TIP3   OH252800   0.878   1.648   3.533  0.4912 -0.0696 -0.2343
10462TIP3    H152801   0.831   1.653   3.450  1.6996 -1.1379 -1.0238
10462TIP3    H252802   0.821   1.595   3.589  0.8221 -1.6127 -1.2731
10463TIP3   OH252803   3.727   5.299   5.246 -0.2619  0.7289 -0.5212
10463TIP3    H152804   3.658   5.288   5.312  1.0969  0.4122  0.9313
10463TIP3    H252805   3.723   5.391   5.222 -0.3975  0.9977  0.4836
10464TIP3   OH252806   0.860   3.820  14.067 -0.4395  0.3071  0.1565
10464TIP3    H152807   0.768   3.798  14.084 -0.1808  1.1270  3.3171
10464TIP3    H252808   0.857   3.902  14.017 -1.4266  0.4756  0.4712
10465TIP3   OH252809   4.154   5.164  16.170 -0.4482 -0.5047 -0.2704
10465TIP3    H152810   4.183   5.128  16.086  0.8670  1.6495 -0.8128
10465TIP3    H252811   4.094   5.234  16.147  1.8352  1.8124  0.3500
10466TIP3   OH252812   6.491   4.216  17.056  0.1193  0.4598 -0.0041
10466TIP3    H152813   6.469   4.123  17.057  0.7183  0.3138  1.3491
10466TIP3    H252814   6.410   4.259  17.027 -1.2627 -0.2479  2.4927
10467TIP3   OH252815   6.772   5.087  16.970 -0.3642  0.2968  0.0925
10467TIP3    H152816   6.728   5.002  16.957 -0.2043 -0.1339  2.0627
10467TIP3    H252817   6.857   5.076  16.929 -1.2599  0.4332 -1.9474
10468TIP3   OH252818   3.930   1.940   3.445 -0.3485  0.7622 -0.2263
10468TIP3    H152819   3.879   1.972   3.371  1.8820  0.0119 -2.2421
10468TIP3    H252820   4.002   2.002   3.453  0.5668 -0.2893 -0.0755
10469TIP3   OH252821   1.750   6.039   1.001 -0.0740 -0.7608 -0.1841
10469TIP3    H152822   1.835   6.071   1.031 -0.2709  2.0220 -2.1329
10469TIP3    H252823   1.697   6.034   1.080  1.3320 -0.5772  0.8114
10470TIP3   OH252824   2.398   6.401  14.154 -0.2492  0.6789 -0.3011
10470TIP3    H152825   2.395   6.394  14.058  0.9822  1.2092 -0.3925
10470TIP3    H252826   2.347   6.479  14.174 -2.4347 -0.6769 -0.3241
10471TIP3   OH252827   0.168   1.318   1.655  0.2017 -0.0902 -0.0608
10471TIP3    H152828   0.184   1.372   1.733  0.0539 -0.0507 -0.0568
10471TIP3    H252829   0.143   1.233   1.689 -1.2569  0.3270 -0.0439
10472TIP3   OH252830   3.520   1.309  12.700  0.1264  0.4936 -0.3839
10472TIP3    H152831   3.579   1.381  12.682 -2.7397  2.9446 -0.7691
10472TIP3    H252832   3.439   1.333  12.655 -1.4871 -2.2041  0.8282
10473TIP3   OH252833   3.075   4.882   3.409 -0.1436 -0.1179  0.0141
10473TIP3    H152834   3.152   4.871   3.463 -0.4287  0.4845  0.5558
10473TIP3    H252835   3.032   4.796   3.410 -0.1095 -0.1310  0.6913
10474TIP3   OH252836   0.489   4.546  12.048 -0.2022 -0.4276  0.4312
10474TIP3    H152837   0.537   4.627  12.030  0.5363 -0.6246  1.3857
10474TIP3    H252838   0.553   4.477  12.033 -0.3720 -0.7368  1.1053
10475TIP3   OH252839   4.977   0.878  16.039 -0.0668 -0.3451  0.3088
10475TIP3    H152840   4.885   0.857  16.023  0.0344 -1.2645  0.8924
10475TIP3    H252841   5.019   0.867  15.954 -0.1575 -1.8130  0.4260
10476TIP3   OH252842   1.623   0.903   3.221 -0.4427 -0.2674  0.1080
10476TIP3    H152843   1.666   0.906   3.307 -0.1442 -0.2403 -0.0381
10476TIP3    H252844   1.530   0.894   3.240 -0.4304  0.2810  0.4419
10477TIP3   OH252845   4.042   1.558  17.046  0.0089  0.2827  0.2194
10477TIP3    H152846   4.022   1.530  17.135  4.2723  0.0889  1.3333
10477TIP3    H252847   4.046   1.477  16.996  2.1919 -0.1671  1.0332
10478TIP3   OH252848   1.868   0.947   6.048  0.4668 -1.0344 -0.1168
10478TIP3    H152849   1.836   0.911   5.965 -1.7328 -0.9821  0.6239
10478TIP3    H252850   1.833   0.888   6.114 -0.0883  0.3879  0.9120
10479TIP3   OH252851   5.917   6.084   4.477  0.5222  0.5769  0.2762
10479TIP3    H152852   5.991   6.143   4.496 -0.1770  1.2400  1.0384
10479TIP3    H252853   5.872   6.076   4.561  0.8258 -1.4003  0.2812
10480TIP3   OH252854   3.973   1.300  16.375  0.3063 -0.1456  0.0237
10480TIP3    H152855   3.934   1.363  16.314  1.3033 -0.0767 -0.5682
10480TIP3    H252856   3.976   1.218  16.326  3.0604  0.3820 -0.8849
10481TIP3   OH252857   6.018   0.400   1.911 -0.5422  0.4728 -0.2783
10481TIP3    H152858   6.071   0.473   1.879  0.3603  0.2207  0.5547
10481TIP3    H252859   6.045   0.390   2.002 -3.0980  1.2579  0.6587
10482TIP3   OH252860   5.626   4.962  14.023  0.1447  0.7673  0.8122
10482TIP3    H152861   5.614   5.003  13.937  0.2921  2.5285  1.5871
10482TIP3    H252862   5.538   4.933  14.048  0.0982  0.2545  0.0980
10483TIP3   OH252863   0.014   5.494   3.461 -0.0291 -0.2740  0.3928
10483TIP3    H152864   0.055   5.571   3.501  0.0118 -0.9490  1.6926
10483TIP3    H252865  -0.044   5.460   3.529 -0.5746 -0.9961 -0.4170
10484TIP3   OH252866   0.338   3.163  13.251  0.6403 -0.1514 -0.3821
10484TIP3    H152867   0.353   3.171  13.345 -0.9461  1.0601 -0.1835
10484TIP3    H252868   0.339   3.254  13.219  0.0329 -0.4642 -1.3301
10485TIP3   OH252869   0.469   4.604  12.316  0.1911  0.1170 -0.5550
10485TIP3    H152870   0.424   4.688  12.328 -2.4869 -1.4524  1.5030
10485TIP3    H252871   0.454   4.582  12.224 -0.5518  1.1232 -0.6943
10486TIP3   OH252872   1.869   1.764   4.061 -0.4341  0.7424  0.0874
10486TIP3    H152873   1.945   1.718   4.025 -0.0102  1.3499  0.1896
10486TIP3    H252874   1.807   1.694   4.082 -0.6270  0.3520 -1.6415
10487TIP3   OH252875   2.353   3.217  16.448  0.1929 -0.2682 -0.2244
10487TIP3    H152876   2.322   3.173  16.527  0.0179  0.8494  0.3630
10487TIP3    H252877   2.282   3.277  16.425  0.5306 -0.0913 -0.8223
10488TIP3   OH252878   4.470   2.707  15.518 -0.0068 -0.0600  0.2389
10488TIP3    H152879   4.414   2.630  15.511  1.3401 -1.0523 -0.1106
10488TIP3    H252880   4.497   2.708  15.610 -2.8107  2.1091  1.1847
10489TIP3   OH252881   2.991   4.986   4.828 -0.0872  0.0555  0.3993
10489TIP3    H152882   2.992   4.902   4.874 -0.7211 -1.0875 -1.5772
10489TIP3    H252883   3.001   5.051   4.898  0.7159 -1.6431  1.9557
10490TIP3   OH252884   0.611   5.539  10.824 -0.5583 -0.0908 -0.5134
10490TIP3    H152885   0.595   5.481  10.749 -0.8029  1.1706 -1.4837
10490TIP3    H252886   0.696   5.579  10.805 -0.6243  0.2404 -0.1112
10491TIP3   OH252887   4.143   5.886  15.631 -0.3796  0.0917  0.5535
10491TIP3    H152888   4.204   5.957  15.608 -1.0205  0.6321  0.4857
10491TIP3    H252889   4.099   5.865  15.548 -1.0147  0.4149  0.8055
10492TIP3   OH252890   6.297   1.180   6.453 -0.0315 -0.7386 -0.0740
10492TIP3    H152891   6.371   1.227   6.493  1.5262 -2.4356 -0.8277
10492TIP3    H252892   6.270   1.117   6.519  0.0881 -1.0264 -0.2969
10493TIP3   OH252893   5.486   2.905   4.432  0.2265  0.2934 -0.0213
10493TIP3    H152894   5.470   2.832   4.372  2.6938 -1.2509  1.0218
10493TIP3    H252895   5.571   2.939   4.405  0.5143  0.7760  1.4476
10494TIP3   OH252896   1.422   5.607  13.352 -0.4193 -0.2271  0.0469
10494TIP3    H152897   1.516   5.591  13.344 -0.4865 -0.3908 -0.4454
10494TIP3    H252898   1.391   5.538  13.409 -0.1765  0.0627  0.5340
10495TIP3   OH252899   1.477   6.104  13.712 -0.2745 -0.8175 -0.1861
10495TIP3    H152900   1.488   6.043  13.638  0.2600 -2.6790  1.3428
10495TIP3    H252901   1.384   6.099  13.733 -0.9101  1.4339 -2.0493
10496TIP3   OH252902   6.142   1.420   3.542  0.0943 -0.5761  0.5129
10496TIP3    H152903   6.199   1.382   3.609  1.1507  0.2431  0.1170
10496TIP3    H252904   6.184   1.504   3.521 -0.4987 -0.5945 -0.8005
10497TIP3   OH252905   5.525   3.020  14.122 -0.6259  0.8563 -0.8027
10497TIP3    H152906   5.548   2.935  14.085 -0.4711  0.3784  0.3694
10497TIP3    H252907   5.563   3.084  14.061  0.1183  0.0902 -1.1489
10498TIP3   OH252908   1.251   6.627   2.513 -0.4244  0.5311 -0.4320
10498TIP3    H152909   1.196   6.610   2.590 -1.0501 -0.0822 -0.9999
10498TIP3    H252910   1.198   6.685   2.458  1.2106  3.6123  0.9350
10499TIP3   OH252911   2.043   2.711  16.887  0.0677  0.1258  0.2641
10499TIP3    H152912   2.057   2.629  16.935 -0.8950 -0.1360  0.1227
10499TIP3    H252913   2.116   2.767  16.913 -0.0741 -0.2411  1.5376
10500TIP3   OH252914   2.179   4.512   3.887  0.0114  0.3588  0.0115
10500TIP3    H152915   2.156   4.605   3.900 -0.1256  0.3211  0.0405
10500TIP3    H252916   2.100   4.464   3.914  0.6052  0.1553  1.5071
10501TIP3   OH252917   5.346   2.141   6.075 -0.2414  1.0816  0.4737
10501TIP3    H152918   5.310   2.073   6.132 -1.7063  0.0975 -1.4946
10501TIP3    H252919   5.288   2.216   6.088  0.1830  1.2990  1.1716
10502TIP3   OH252920   0.756   2.257   1.313 -0.0773 -0.0748  0.5014
10502TIP3    H152921   0.802   2.338   1.293 -1.1232  0.5322  0.4481
10502TIP3    H252922   0.783   2.234   1.402  0.0404  0.4620  0.6030
10503TIP3   OH252923   4.758   3.690   5.428 -0.2632  0.7350  0.1946
10503TIP3    H152924   4.756   3.674   5.334  2.3965  0.9546  0.0474
10503TIP3    H252925   4.765   3.603   5.467 -0.0341  0.7279  0.1348
10504TIP3   OH252926   6.240   1.527   5.503 -0.2565  0.7372  0.2275
10504TIP3    H152927   6.311   1.563   5.449  0.6421 -0.5668  0.4922
10504TIP3    H252928   6.271   1.538   5.593 -1.1198  1.6113  0.4309
10505TIP3   OH252929   1.856   3.726   0.134 -0.4082 -0.1527 -0.1336
10505TIP3    H152930   1.817   3.656   0.186 -1.2582 -0.1792 -0.7889
10505TIP3    H252931   1.788   3.750   0.071 -0.1861  1.3714  0.1705
10506TIP3   OH252932   5.394   1.889   0.721  0.1090 -0.5186 -0.2316
10506TIP3    H152933   5.486   1.895   0.694  0.1343 -0.9243 -0.2560
10506TIP3    H252934   5.349   1.856   0.644  0.1210 -1.3336  0.0913
10507TIP3   OH252935   6.684   4.275  11.239  0.1221 -0.1708 -0.1568
10507TIP3    H152936   6.622   4.347  11.231  0.3418  0.2000  1.1625
10507TIP3    H252937   6.770   4.317  11.236  0.2995 -0.5671 -0.9236
10508TIP3   OH252938   1.143   4.914  14.076  0.1792  0.2346  0.0111
10508TIP3    H152939   1.165   4.941  13.987 -1.4478  0.8982 -0.2286
10508TIP3    H252940   1.099   4.830  14.065  0.4318  0.0723  0.2415
10509TIP3   OH252941   3.820   2.850  13.635  0.0089  0.1880  0.9810
10509TIP3    H152942   3.893   2.846  13.697  1.1086  1.2186 -0.1934
10509TIP3    H252943   3.838   2.928  13.582 -0.6649 -0.8750 -0.8978
10510TIP3   OH252944   4.724   1.132  14.591 -0.7785  0.2588 -0.2298
10510TIP3    H152945   4.670   1.150  14.514 -2.8776 -1.3337  0.7632
10510TIP3    H252946   4.690   1.049  14.625  1.3300 -0.0326  1.3515
10511TIP3   OH252947   4.178   2.332   4.045 -0.4564  0.2479  0.1568
10511TIP3    H152948   4.234   2.319   3.969 -2.1467 -0.5431 -1.0353
10511TIP3    H252949   4.179   2.248   4.091 -2.5941 -0.6779 -1.3148
10512TIP3   OH252950   5.019   0.239   0.125  0.9653  0.1964  0.2401
10512TIP3    H152951   5.027   0.246   0.220 -0.6819  1.5077  0.3272
10512TIP3    H252952   5.051   0.151   0.104  2.1697  0.2035  1.8807
10513TIP3   OH252953   0.623   6.115  15.061  0.2194  0.3354  0.3796
10513TIP3    H152954   0.702   6.087  15.014 -1.3409  0.1287 -2.3642
10513TIP3    H252955   0.632   6.210  15.068  1.8408  0.0984  2.4794
10514TIP3   OH252956   6.550   5.059  12.716  0.2231  0.3923  0.1926
10514TIP3    H152957   6.534   5.011  12.634 -0.3904 -0.0025  0.5318
10514TIP3    H252958   6.585   5.143  12.688 -2.2583  1.2465 -0.6317
10515TIP3   OH252959   0.150   2.941   1.978  0.0791  0.0512  0.0385
10515TIP3    H152960   0.198   2.873   1.932 -0.4918 -0.6114  0.4060
10515TIP3    H252961   0.069   2.952   1.928 -0.3244 -0.3284  0.5891
10516TIP3   OH252962   4.161   3.101   1.989 -0.2175  0.4881  0.3649
10516TIP3    H152963   4.199   3.074   1.905  0.6618  1.9830  0.2391
10516TIP3    H252964   4.067   3.089   1.977 -0.1289  0.8672 -0.9221
10517TIP3   OH252965   1.088   0.607   2.259  0.6274  0.5034  0.2244
10517TIP3    H152966   0.996   0.589   2.241  1.0017  0.1679 -1.4804
10517TIP3    H252967   1.136   0.541   2.209  1.8433  1.8448 -0.4535
10518TIP3   OH252968   4.266   2.018  16.966  0.0823 -0.8901 -0.2301
10518TIP3    H152969   4.240   2.102  17.004 -0.3216 -0.9223 -0.4204
10518TIP3    H252970   4.339   2.039  16.908  0.2822 -0.7431  0.0731
10519TIP3   OH252971   3.813   2.376  17.308 -0.0821 -0.5946  0.1836
10519TIP3    H152972   3.726   2.337  17.303 -0.2837 -0.0061 -1.4603
10519TIP3    H252973   3.844   2.355  17.396 -2.3685  0.2329  1.2600
10520TIP3   OH252974   5.180   0.767   3.300 -0.2194 -0.4003  0.3340
10520TIP3    H152975   5.213   0.824   3.369 -0.9354  0.1659  0.2189
10520TIP3    H252976   5.087   0.758   3.319 -0.8306  1.2721 -1.5707
10521TIP3   OH252977   2.646   0.856  16.100 -0.1508 -0.1436 -0.0648
10521TIP3    H152978   2.596   0.781  16.067  0.1971 -0.0229 -0.8747
10521TIP3    H252979   2.580   0.911  16.143 -0.7167 -0.0235 -1.0517
10522TIP3   OH252980   6.248   5.746  15.093  0.1563 -0.3069  0.0120
10522TIP3    H152981   6.260   5.727  15.186  2.8785 -0.7500 -0.3686
10522TIP3    H252982   6.153   5.741  15.080 -0.1452 -2.3023  2.3175
10523TIP3   OH252983   1.629   6.064   3.801  0.1313  0.1761  0.0635
10523TIP3    H152984   1.569   6.081   3.730  0.8996  1.7185 -0.2618
10523TIP3    H252985   1.643   6.149   3.843 -0.5128 -0.7118  2.2584
10524TIP3   OH252986   5.395   4.836   5.379  0.4895  0.2662  0.2638
10524TIP3    H152987   5.318   4.888   5.356 -0.8578 -0.8323  1.9925
10524TIP3    H252988   5.443   4.890   5.442  0.3762  0.3756  0.2565
10525TIP3   OH252989   1.625   0.487  14.008  0.6933  0.0087  0.3132
10525TIP3    H152990   1.544   0.537  13.994  1.4791  1.4934  0.8329
10525TIP3    H252991   1.667   0.485  13.922  0.4351 -0.1557  0.1908
10526TIP3   OH252992   5.739   3.682   2.026  0.6723 -0.3345 -0.0640
10526TIP3    H152993   5.664   3.649   1.976  1.1535 -0.1592 -0.9257
10526TIP3    H252994   5.759   3.612   2.088 -0.1685 -0.4040  0.1547
10527TIP3   OH252995   4.491   4.356  14.584 -0.0116 -0.0163  0.1837
10527TIP3    H152996   4.587   4.352  14.578 -0.0695 -0.3383 -0.7852
10527TIP3    H252997   4.471   4.449  14.572  0.1310 -0.1026 -0.8449
10528TIP3   OH252998   2.163   6.073   4.697 -0.1942 -0.0075  1.0311
10528TIP3    H152999   2.085   6.073   4.753  0.8489 -1.6838  2.5905
10528TIP3    H253000   2.237   6.078   4.758  0.9612 -0.2503 -0.3028
10529TIP3   OH253001   2.012   4.722  13.374 -0.4247  0.3292 -0.1761
10529TIP3    H153002   1.922   4.751  13.357 -0.4588 -0.1174 -0.7865
10529TIP3    H253003   2.014   4.704  13.468 -0.3619  2.4055  0.2772
10530TIP3   OH253004   3.221   4.280  13.182  0.0594 -0.2002 -0.5207
10530TIP3    H153005   3.185   4.208  13.131 -1.1175  1.3198 -1.9363
10530TIP3    H253006   3.288   4.319  13.126  0.9577 -0.4028  0.3876
10531TIP3   OH253007   4.071   6.048   5.236  0.5225 -0.4541  0.8207
10531TIP3    H153008   4.015   6.125   5.228  2.0880  1.1027  3.4376
10531TIP3    H253009   4.091   6.023   5.146 -1.0499  1.4249 -0.1098
10532TIP3   OH253010   2.825   4.870  16.931 -0.4750 -0.5065 -0.8275
10532TIP3    H153011   2.742   4.916  16.937 -0.3593 -0.0164 -2.3780
10532TIP3    H253012   2.887   4.923  16.981 -1.4324 -1.8981  2.0382
10533TIP3   OH253013   1.668   4.499  13.787  0.2546 -0.9367  0.0754
10533TIP3    H153014   1.665   4.416  13.833  0.1323 -1.1970 -0.3974
10533TIP3    H253015   1.577   4.520  13.768  0.2863 -0.7066  0.1678
10534TIP3   OH253016   1.003   1.097  15.787 -0.4176  0.0387 -0.0336
10534TIP3    H153017   0.936   1.030  15.778 -0.2044 -0.2389  0.4073
10534TIP3    H253018   0.959   1.169  15.833 -0.4076 -0.1535  0.2780
10535TIP3   OH253019   5.250   2.067  12.114 -0.1753 -0.0342 -0.0190
10535TIP3    H153020   5.221   2.125  12.043 -1.6094  0.9528  1.2931
10535TIP3    H253021   5.184   2.079  12.182  1.3020 -0.7323  1.5929
10536TIP3   OH253022   6.561   4.380   5.677  0.4175 -0.0991 -0.0651
10536TIP3    H153023   6.570   4.475   5.673 -0.4315  0.1424  2.1602
10536TIP3    H253024   6.572   4.359   5.770  2.6058 -2.4364 -0.7235
10537TIP3   OH253025   4.553   5.831  11.998 -0.4269  0.1610 -0.7411
10537TIP3    H153026   4.620   5.847  11.931 -0.4898  0.0197 -0.8375
10537TIP3    H253027   4.600   5.840  12.081 -0.8947  3.1333 -0.6840
10538TIP3   OH253028   1.625   4.120   0.359  0.3338  0.4227 -0.5829
10538TIP3    H153029   1.551   4.149   0.412 -0.9652 -3.4076 -0.0173
10538TIP3    H253030   1.588   4.106   0.271  1.0270  0.8862 -0.9615
10539TIP3   OH253031   4.621   3.344  15.349  0.0275  1.0045 -0.2524
10539TIP3    H153032   4.528   3.329  15.336 -0.6077  1.9563  2.4494
10539TIP3    H253033   4.646   3.285  15.420  1.9144 -0.3277 -1.8944
10540TIP3   OH253034   0.835   4.026   4.454 -0.5466 -0.1791  0.5602
10540TIP3    H153035   0.924   4.061   4.454 -0.5714 -0.1160  0.5706
10540TIP3    H253036   0.847   3.931   4.465 -0.4677 -0.2041  0.2602
10541TIP3   OH253037   0.636   1.479   5.156 -0.0000 -0.5616 -0.1534
10541TIP3    H153038   0.723   1.505   5.185  0.2386 -0.7066 -0.7298
10541TIP3    H253039   0.649   1.393   5.116 -0.3397 -0.4137 -0.5845
10542TIP3   OH253040   6.676   1.682  13.960 -0.0177 -0.7821 -0.4154
10542TIP3    H153041   6.716   1.649  14.040 -1.3667 -0.3468  0.4811
10542TIP3    H253042   6.590   1.640  13.957 -1.8283  2.4542  0.8018
10543TIP3   OH253043   3.120   1.588  17.044  0.4515  0.0088 -0.3736
10543TIP3    H153044   3.182   1.610  16.975  1.6257  1.1255  0.9726
10543TIP3    H253045   3.055   1.532  17.001  1.7453 -0.2556 -2.0970
10544TIP3   OH253046   5.855   4.044  13.049  0.2436 -0.3735  0.5021
10544TIP3    H153047   5.827   3.968  12.998 -1.3390  0.6631 -0.2522
10544TIP3    H253048   5.788   4.053  13.117 -1.0159  1.7226 -0.8929
10545TIP3   OH253049   6.597   4.573  13.305 -0.2582 -0.2780  0.3028
10545TIP3    H153050   6.641   4.545  13.224 -2.1796 -2.0987 -0.2228
10545TIP3    H253051   6.609   4.500  13.365 -2.9990 -1.2131 -0.1128
10546TIP3   OH253052   5.056   1.251   6.311 -0.2356  0.1609 -0.3212
10546TIP3    H153053   5.088   1.278   6.397 -1.2074  1.5368 -0.3525
10546TIP3    H253054   5.067   1.156   6.310 -1.2856 -0.0567  1.8103
10547TIP3   OH253055   1.778   0.788   6.265  0.1549 -0.7811  0.3550
10547TIP3    H153056   1.829   0.818   6.340  1.3991  0.8078 -1.0519
10547TIP3    H253057   1.750   0.700   6.289  0.0427 -0.1351  2.8818
10548TIP3   OH253058   6.177   0.966  17.132 -0.1312  0.4565  0.0993
10548TIP3    H153059   6.165   1.030  17.202  0.9309  2.2357 -1.2570
10548TIP3    H253060   6.161   1.015  17.052  1.0499 -0.8923 -1.0144
10549TIP3   OH253061   1.872   3.787  16.634  0.6852 -0.4851  0.1506
10549TIP3    H153062   1.834   3.775  16.721  0.6171 -0.3727  0.1367
10549TIP3    H253063   1.803   3.758  16.574  0.5063 -0.0006  0.1157
10550TIP3   OH253064   5.969   5.054  11.431  0.3278 -0.2992  0.0179
10550TIP3    H153065   5.898   5.112  11.457  2.3891  2.7384 -0.7063
10550TIP3    H253066   5.947   5.029  11.341 -0.7578 -1.0793  0.4649
10551TIP3   OH253067   1.951   3.136  16.518 -0.4808 -0.6300 -0.3386
10551TIP3    H153068   1.882   3.093  16.569 -2.3284  0.9527 -1.3207
10551TIP3    H253069   1.919   3.132  16.427  1.7458 -1.6151 -1.1425
10552TIP3   OH253070   5.937   2.835   0.854  0.4304 -0.8427 -0.0496
10552TIP3    H153071   5.859   2.780   0.860  1.0949 -1.8850 -0.7262
10552TIP3    H253072   5.953   2.864   0.944  0.5711 -2.4719  0.4737
10553TIP3   OH253073   2.487   0.385   5.213 -0.0565  0.3974  0.0718
10553TIP3    H153074   2.443   0.447   5.271  2.8107  1.9443  0.7223
10553TIP3    H253075   2.471   0.418   5.125 -2.6221 -0.7840 -0.0162
10554TIP3   OH253076   6.254   2.415  17.226  0.1798  0.0522 -0.3047
10554TIP3    H153077   6.327   2.464  17.189  0.4051  0.8713  1.1259
10554TIP3    H253078   6.292   2.333  17.256  0.3183  0.0542 -0.4782
10555TIP3   OH253079   5.151   2.010  12.467 -0.6706  0.0661 -0.3203
10555TIP3    H153080   5.137   1.966  12.384  0.0877 -0.0359 -0.4010
10555TIP3    H253081   5.231   1.971  12.502 -0.7088  0.4558  0.2218
10556TIP3   OH253082   3.656   5.502  11.906 -0.0001  0.5701 -0.2111
10556TIP3    H153083   3.671   5.408  11.915 -0.8678  0.5649  1.7933
10556TIP3    H253084   3.588   5.509  11.839 -0.2727 -0.2946 -0.0450
10557TIP3   OH253085   1.642   6.387  14.783  0.6617  0.3498  0.3650
10557TIP3    H153086   1.611   6.400  14.693  0.4283  0.1814  0.4187
10557TIP3    H253087   1.621   6.468  14.828 -0.5544 -0.0964  0.6374
10558TIP3   OH253088   1.127   0.015   3.151  0.3875 -0.7725  0.2833
10558TIP3    H153089   1.130  -0.058   3.213 -3.9371 -1.8132 -0.3838
10558TIP3    H253090   1.097   0.090   3.203 -0.9797 -1.0717 -0.0174
10559TIP3   OH253091   1.420   0.980  12.287 -0.5407 -0.6173 -0.1344
10559TIP3    H153092   1.463   1.014  12.209  0.7052  1.9029  1.4872
10559TIP3    H253093   1.327   0.989  12.269 -0.3071 -0.8659 -1.6067
10560TIP3   OH253094   2.778   1.168  13.940  0.1012  0.3600  0.3379
10560TIP3    H153095   2.803   1.219  14.017  1.8343 -0.1685  0.1616
10560TIP3    H253096   2.810   1.219  13.866 -0.1678  0.1074  0.0423
10561TIP3   OH253097   3.671   5.663   6.219  0.2541  0.1647 -0.4127
10561TIP3    H153098   3.690   5.754   6.240  1.2961 -0.0799 -0.2521
10561TIP3    H253099   3.726   5.644   6.143  2.1394 -1.0979  1.1799
10562TIP3   OH253100   0.368   3.034  11.856  0.0845 -0.3901 -0.7426
10562TIP3    H153101   0.414   3.103  11.808  0.7786 -1.7763 -2.1762
10562TIP3    H253102   0.287   3.021  11.806 -0.4953  0.0283  0.0757
10563TIP3   OH253103   1.018   5.491  14.245 -0.1565 -0.5602  0.2431
10563TIP3    H153104   1.041   5.398  14.236  0.0587 -0.4351 -0.5198
10563TIP3    H253105   1.034   5.529  14.159  2.1470  0.7164  1.1458
10564TIP3   OH253106   4.403   1.024   4.928 -0.1593  0.5372  0.3495
10564TIP3    H153107   4.461   1.019   4.852 -0.9861 -0.6310 -0.2316
10564TIP3    H253108   4.409   1.115   4.956  0.8697  0.7740 -0.5507
10565TIP3   OH253109   3.496   3.893   0.329 -0.0561  0.3022 -0.1079
10565TIP3    H153110   3.572   3.925   0.281  1.0574 -0.3486  1.1488
10565TIP3    H253111   3.494   3.946   0.409 -0.1998 -0.4955  0.4289
10566TIP3   OH253112   3.820   5.210   2.062 -0.4789  0.0381 -0.5217
10566TIP3    H153113   3.905   5.232   2.023 -0.1095 -0.3973  0.0121
10566TIP3    H253114   3.780   5.150   2.000 -0.4608  0.3585 -0.8478
10567TIP3   OH253115   4.141   2.275  14.015  0.0762  0.5258  0.0956
10567TIP3    H153116   4.103   2.273  13.928  2.0533 -0.8301 -0.8053
10567TIP3    H253117   4.225   2.319  14.004  0.4188  0.2070  1.2601
10568TIP3   OH253118   0.770   6.307  11.748 -0.0677 -0.0930 -0.3039
10568TIP3    H153119   0.830   6.276  11.680 -0.2925 -1.0225 -0.0963
10568TIP3    H253120   0.737   6.390  11.715  0.5256 -0.0885 -0.9091
10569TIP3   OH253121   5.646   5.332  16.757 -0.2266  0.0661  0.2249
10569TIP3    H153122   5.655   5.418  16.797  0.4420  0.7023 -1.1921
10569TIP3    H253123   5.630   5.351  16.664  2.0541 -1.3080 -0.5311
10570TIP3   OH253124   2.813   3.573   5.334  0.3780  0.6203 -0.8574
10570TIP3    H153125   2.737   3.532   5.291  0.2451 -0.5842  0.4487
10570TIP3    H253126   2.785   3.585   5.425  1.4518  0.9818 -0.5679
10571TIP3   OH253127   1.769   0.271   1.172 -0.0066 -0.0970  0.7039
10571TIP3    H153128   1.777   0.365   1.153  2.2501 -0.4945 -0.6280
10571TIP3    H253129   1.806   0.261   1.259 -0.0457  0.2014  0.7581
10572TIP3   OH253130   1.820   4.892  12.124  0.8860 -0.5113 -0.0991
10572TIP3    H153131   1.875   4.854  12.056  1.9340 -0.6011  0.7698
10572TIP3    H253132   1.858   4.979  12.139 -0.4195  0.2177 -0.8532
10573TIP3   OH253133   0.288   5.498  14.882 -0.0277 -0.3248 -0.1881
10573TIP3    H153134   0.329   5.480  14.967  0.9024  1.5028 -0.2050
10573TIP3    H253135   0.196   5.515  14.903  0.3182  0.7275  0.5728
10574TIP3   OH253136   4.676   3.500   1.651  0.2189 -0.1151  0.5050
10574TIP3    H153137   4.719   3.416   1.634  0.2068 -0.2012  0.8923
10574TIP3    H253138   4.623   3.516   1.573  0.6391 -0.2053  0.1989
10575TIP3   OH253139   4.750   0.480  14.152  0.4101 -0.6286  0.4774
10575TIP3    H153140   4.658   0.462  14.129  0.5552 -0.7250 -0.0430
10575TIP3    H253141   4.784   0.395  14.180  1.0441 -1.2025 -1.8064
10576TIP3   OH253142   0.626   0.897   6.304 -0.2137  0.1409 -0.7803
10576TIP3    H153143   0.559   0.833   6.327  1.7359 -1.3067  1.4702
10576TIP3    H253144   0.584   0.982   6.316 -1.7091 -0.7179  0.3805
10577TIP3   OH253145   0.912   0.242  11.748 -0.3068 -0.4477  0.0102
10577TIP3    H153146   0.962   0.303  11.694 -0.9057 -0.8893 -1.0507
10577TIP3    H253147   0.977   0.178  11.778  0.2272  0.4030  0.7218
10578TIP3   OH253148   0.122   4.181   2.043 -0.0267 -0.0709  0.1035
10578TIP3    H153149   0.070   4.207   2.119 -0.6118 -1.6566  0.2892
10578TIP3    H253150   0.124   4.259   1.988  0.4721  1.1382  1.7598
10579TIP3   OH253151   3.056   1.594   1.289  0.0642  0.2731 -0.1351
10579TIP3    H153152   3.036   1.564   1.200 -0.7143  0.7010 -0.1122
10579TIP3    H253153   2.975   1.635   1.319  0.1291 -0.3985  0.9963
10580TIP3   OH253154   0.682   1.651  14.752 -0.7204  0.2795  0.0379
10580TIP3    H153155   0.712   1.683  14.667  0.0778 -0.4351  0.0436
10580TIP3    H253156   0.730   1.703  14.816  0.2858 -0.6288  0.0460
10581TIP3   OH253157   5.080   3.604  11.755  0.0070 -0.4449  0.3870
10581TIP3    H153158   5.106   3.514  11.732 -0.9998 -0.6422 -0.0578
10581TIP3    H253159   5.054   3.599  11.847  1.8156 -0.1607  0.9633
10582TIP3   OH253160   4.683   4.052   5.624  0.2729  0.1333 -0.1346
10582TIP3    H153161   4.653   4.063   5.534  0.7083  1.6630 -0.1163
10582TIP3    H253162   4.775   4.079   5.622  0.9576 -1.9074  0.3537
10583TIP3   OH253163   4.974   3.377   4.723  0.2352  0.0381  0.3296
10583TIP3    H153164   5.040   3.324   4.767  0.4650  0.6553  0.7431
10583TIP3    H253165   4.946   3.440   4.789 -0.6360 -0.0972  0.0946
10584TIP3   OH253166   0.650   5.348   2.065 -0.5412 -0.3690  0.3415
10584TIP3    H153167   0.727   5.401   2.086  1.1308 -2.5614  0.1140
10584TIP3    H253168   0.666   5.317   1.976 -2.0390 -0.3322  0.0366
10585TIP3   OH253169   2.170   0.171  11.316 -0.4425 -0.0419  0.2085
10585TIP3    H153170   2.197   0.219  11.238  1.5310 -1.2227  0.0930
10585TIP3    H253171   2.102   0.111  11.286  0.1373 -0.3226 -0.5608
10586TIP3   OH253172   3.608   6.134  16.879 -0.7655 -0.4972 -0.0809
10586TIP3    H153173   3.537   6.177  16.927  0.5233  0.8590  0.6583
10586TIP3    H253174   3.666   6.100  16.947 -0.0054 -0.4129 -0.6781
10587TIP3   OH253175   2.802   0.996   6.844 -0.2187  0.3049  0.1583
10587TIP3    H153176   2.793   0.978   6.750 -1.5149 -3.5899  0.8289
10587TIP3    H253177   2.889   0.963   6.866 -0.2862  0.3571  0.4980
10588TIP3   OH253178   1.273   2.358   3.987  0.0753  0.6693 -0.3125
10588TIP3    H153179   1.247   2.307   4.063  4.3540 -0.9012  0.4174
10588TIP3    H253180   1.295   2.293   3.921 -1.9240  1.9654 -2.4035
10589TIP3   OH253181   5.226   3.788   0.366 -0.1251  0.1683  0.2840
10589TIP3    H153182   5.144   3.744   0.344  0.2939 -0.6252  0.2448
10589TIP3    H253183   5.250   3.835   0.287  1.0461 -2.1450 -0.8450
10590TIP3   OH253184   6.134   2.517  15.061 -0.6251 -0.3048 -0.2510
10590TIP3    H153185   6.178   2.510  15.145 -1.2481  0.0797  0.1077
10590TIP3    H253186   6.204   2.542  15.000 -0.2497 -0.2006  0.2157
10591TIP3   OH253187   4.059   0.015  11.647 -0.3543 -0.0963  0.1254
10591TIP3    H153188   4.028  -0.033  11.724 -1.5531  0.1110 -0.2143
10591TIP3    H253189   3.985   0.069  11.621  0.5491  0.9930 -0.2611
10592TIP3   OH253190   1.394   4.783  11.303  0.1493  0.2090 -0.2793
10592TIP3    H153191   1.444   4.841  11.245  1.1899 -1.0434 -0.6935
10592TIP3    H253192   1.358   4.716  11.244 -0.7223  0.2155  0.2325
10593TIP3   OH253193   2.196   0.156   2.784 -0.4357  0.3208 -0.0555
10593TIP3    H153194   2.231   0.076   2.822  1.9121 -0.2579 -3.0501
10593TIP3    H253195   2.178   0.133   2.693 -2.2040  2.5723 -0.3662
10594TIP3   OH253196   1.752   3.973   1.576 -0.1436 -0.1117 -0.0697
10594TIP3    H153197   1.674   3.978   1.520  0.2702 -0.7645 -0.7061
10594TIP3    H253198   1.751   3.884   1.611  0.2328 -0.0664  0.0532
10595TIP3   OH253199   5.112   4.256   0.025  0.5067  0.3721  0.1519
10595TIP3    H153200   5.033   4.205   0.044  0.8143  0.2953  1.3025
10595TIP3    H253201   5.154   4.208  -0.047  0.6824 -0.9228  1.0706
10596TIP3   OH253202   5.263   0.227  12.337 -0.1886 -0.0072 -0.0264
10596TIP3    H153203   5.248   0.209  12.430 -0.2536  3.1037  0.6897
10596TIP3    H253204   5.179   0.210  12.295  0.1683 -2.6909  0.1544
10597TIP3   OH253205   5.723   4.047  12.656  0.4661  0.4508  0.3027
10597TIP3    H153206   5.654   3.996  12.699  0.2747  0.5348  0.1023
10597TIP3    H253207   5.712   4.136  12.690  1.2868  0.2064  1.2276
10598TIP3   OH253208   6.432   0.021  16.373 -0.1150 -0.1804 -0.1110
10598TIP3    H153209   6.378   0.025  16.294 -1.8176  0.6530  1.0204
10598TIP3    H253210   6.418  -0.068  16.407  0.3477 -0.4263 -0.5545
10599TIP3   OH253211   5.743   0.604  15.546 -0.0028  0.0227  0.2328
10599TIP3    H153212   5.648   0.602  15.559 -0.7691 -0.0821 -4.0942
10599TIP3    H253213   5.772   0.517  15.574 -1.4760 -0.5543  0.1061
10600TIP3   OH253214   2.858   6.008  14.194 -0.4126  0.0280 -0.3347
10600TIP3    H153215   2.913   5.931  14.181 -0.1440  0.4027 -1.5867
10600TIP3    H253216   2.907   6.063  14.255  1.1464  0.8228 -2.1900
10601TIP3   OH253217   5.826   3.716  12.317 -0.4139  0.6506  0.2287
10601TIP3    H153218   5.761   3.766  12.366  0.6953  1.2339  1.1309
10601TIP3    H253219   5.877   3.670  12.384 -0.3935 -0.4541 -0.5069
10602TIP3   OH253220   6.122   4.042  10.517  0.6592 -0.1167  0.2747
10602TIP3    H153221   6.048   4.103  10.514  0.1650 -0.7450 -1.0261
10602TIP3    H253222   6.097   3.979  10.584  0.5657  0.3456  0.6824
10603TIP3   OH253223   4.413   1.379   6.252 -0.5798 -0.4847 -0.2685
10603TIP3    H153224   4.463   1.426   6.318 -2.0805 -0.8045  1.1706
10603TIP3    H253225   4.448   1.410   6.168  1.9601 -0.6949  0.6340
10604TIP3   OH253226   5.783   3.735   5.533  0.6382 -0.4035  0.4314
10604TIP3    H153227   5.876   3.755   5.536  0.7602 -1.0514  1.3308
10604TIP3    H253228   5.739   3.820   5.541  1.1508 -0.2323  1.6212
10605TIP3   OH253229   2.108   0.638  14.278  0.4095  0.6919  0.1094
10605TIP3    H153230   2.138   0.582  14.207  1.4848  0.6440  0.5809
10605TIP3    H253231   2.075   0.717  14.235  1.3202  0.7859 -0.4304
10606TIP3   OH253232   6.225   1.347  15.744  0.2460 -0.4249  0.0743
10606TIP3    H153233   6.249   1.336  15.652 -0.2344 -0.4719 -0.0506
10606TIP3    H253234   6.143   1.298  15.753 -1.0452  1.5938 -0.0891
10607TIP3   OH253235   6.488   3.599   0.504 -0.2346 -0.2941 -0.0849
10607TIP3    H153236   6.536   3.518   0.485 -0.1875 -0.3184  0.1424
10607TIP3    H253237   6.478   3.640   0.418 -1.9981 -1.4900 -0.5015
10608TIP3   OH253238   5.780   1.308  13.432 -0.0446 -0.2065 -0.4519
10608TIP3    H153239   5.852   1.294  13.371 -0.8894  0.5912 -1.6792
10608TIP3    H253240   5.703   1.316  13.377 -0.4610  3.5132  0.4078
10609TIP3   OH253241   0.336   0.006  12.460  0.4215 -0.2633  0.0802
10609TIP3    H153242   0.383  -0.047  12.396  0.1205 -1.0071  0.4630
10609TIP3    H253243   0.247  -0.028  12.459 -0.1494  1.1849 -0.6950
10610TIP3   OH253244   2.892   2.515  14.857  0.0308  0.0994  0.4950
10610TIP3    H153245   2.912   2.425  14.882  0.4496  0.1139  0.2316
10610TIP3    H253246   2.939   2.569  14.921  1.2438  0.1386 -0.3723
10611TIP3   OH253247   4.048   6.499  13.163 -0.3208 -0.6212  0.0992
10611TIP3    H153248   4.030   6.425  13.104 -0.0457 -0.2842 -0.4137
10611TIP3    H253249   4.114   6.551  13.117 -0.3060 -0.2037  0.5828
10612TIP3   OH253250   2.530   6.766  15.323 -0.1565  0.3695 -0.0317
10612TIP3    H153251   2.599   6.790  15.384  0.8247  0.1323 -1.0244
10612TIP3    H253252   2.555   6.807  15.241 -0.5300 -0.7667 -0.7372
10613TIP3   OH253253   4.531   4.352  12.938  0.3673 -0.2287  0.4191
10613TIP3    H153254   4.466   4.397  12.992  1.6859  0.4868  1.4960
10613TIP3    H253255   4.586   4.422  12.904  0.2205 -0.7689 -1.0032
10614TIP3   OH253256   1.486   2.110   1.719 -0.0569  0.2400  0.4240
10614TIP3    H153257   1.524   2.190   1.754  1.6426  0.7355 -2.2201
10614TIP3    H253258   1.437   2.139   1.642 -1.0251 -1.0654  0.5125
10615TIP3   OH253259   2.994   6.555   4.513  0.3893  0.0047  0.3864
10615TIP3    H153260   3.036   6.592   4.435  1.6078  0.4833  1.2327
10615TIP3    H253261   3.023   6.464   4.514  0.9229  0.1721  0.6296
10616TIP3   OH253262   5.595   2.345  14.042 -0.1702  0.3399  0.6216
10616TIP3    H153263   5.629   2.349  14.131  1.1893 -0.3012  0.1551
10616TIP3    H253264   5.664   2.301  13.991 -2.1006 -2.0677 -0.1536
10617TIP3   OH253265   4.969   4.746   2.094 -0.1541 -0.0614  0.2738
10617TIP3    H153266   4.975   4.651   2.104 -2.3078 -0.2145  0.6444
10617TIP3    H253267   4.875   4.765   2.100  0.3004  2.2229  1.3871
10618TIP3   OH253268   2.771   1.573   5.334 -0.2115 -0.0597 -0.6986
10618TIP3    H153269   2.724   1.582   5.417  0.7477  1.8378 -0.2985
10618TIP3    H253270   2.857   1.540   5.359  0.1907  0.8206 -0.8849
10619TIP3   OH253271   1.873   4.861  15.798  0.3327  0.2572  0.2576
10619TIP3    H153272   1.908   4.784  15.844 -0.0390  0.0878  0.2560
10619TIP3    H253273   1.918   4.860  15.714 -1.8805 -1.7403 -1.0384
10620TIP3   OH253274   1.309   5.014  12.748  0.8695  0.3319  0.0662
10620TIP3    H153275   1.219   5.041  12.728  0.6104  1.3301  2.3336
10620TIP3    H253276   1.300   4.938  12.806  1.3983  1.4134  1.6329
10621TIP3   OH253277   6.296   3.863   3.128 -0.5415 -0.0806 -0.2891
10621TIP3    H153278   6.224   3.914   3.165 -0.6560  0.7803 -1.5939
10621TIP3    H253279   6.360   3.855   3.198 -2.3524 -1.8540  1.2776
10622TIP3   OH253280   0.142   3.897   2.582  0.2029  0.3411  1.1192
10622TIP3    H153281   0.118   3.820   2.635  0.6747 -0.8475 -0.3303
10622TIP3    H253282   0.114   3.874   2.494 -0.2717  2.1575  0.7737
10623TIP3   OH253283   2.115   0.222  12.835  0.4747 -0.4854 -0.0410
10623TIP3    H153284   2.179   0.266  12.891  1.5749 -1.6623 -0.3172
10623TIP3    H253285   2.125   0.129  12.855 -1.5547 -0.6762  0.2859
10624TIP3   OH253286   4.790   1.623  11.761  0.1731 -0.4410 -0.4658
10624TIP3    H153287   4.862   1.570  11.797  0.6997  0.7313  0.2557
10624TIP3    H253288   4.818   1.642  11.671  0.9994  0.3913 -0.0457
10625TIP3   OH253289   0.249   0.224  11.031  0.5454  0.1848  0.0391
10625TIP3    H153290   0.273   0.190  10.944  0.5498 -0.7888  0.4061
10625TIP3    H253291   0.328   0.213  11.083  0.2961  0.0028  0.3821
10626TIP3   OH253292   6.124   5.506   1.473 -0.6124  0.2742  0.1656
10626TIP3    H153293   6.102   5.455   1.395  1.2283  0.9953 -0.9073
10626TIP3    H253294   6.119   5.598   1.444 -0.4957  0.5753  1.0676
10627TIP3   OH253295   2.875   6.114  11.960  0.2336 -0.1259 -0.0764
10627TIP3    H153296   2.892   6.092  11.868 -0.7037 -2.2479  0.1933
10627TIP3    H253297   2.799   6.060  11.983  0.6693  0.1030  2.0375
10628TIP3   OH253298   0.966   4.899  16.044  0.1893  0.2026  0.1011
10628TIP3    H153299   1.048   4.914  15.998  1.7106  0.1241  2.5970
10628TIP3    H253300   0.944   4.984  16.082  0.2286 -0.2359  1.1242
10629TIP3   OH253301   5.014   4.312  15.750 -0.2178  0.4464  0.4463
10629TIP3    H153302   5.012   4.222  15.783 -0.4725  0.6594  1.0349
10629TIP3    H253303   4.967   4.309  15.667 -1.7630  0.3628  1.2970
10630TIP3   OH253304   1.025   4.974  10.537 -0.2232  0.2694 -0.3163
10630TIP3    H153305   1.077   4.903  10.499 -0.7606 -0.8728  1.0057
10630TIP3    H253306   1.080   5.051  10.527 -0.4845  0.1509 -3.7261
10631TIP3   OH253307   3.854   2.388  15.866  0.7753 -0.3730  0.4177
10631TIP3    H153308   3.796   2.313  15.852  3.3704 -2.6225  1.0160
10631TIP3    H253309   3.851   2.403  15.961 -0.4321  0.9689  0.2084
10632TIP3   OH253310   6.741   3.941  14.981  0.0077  0.0612 -0.1366
10632TIP3    H153311   6.783   3.924  14.896 -0.2037 -1.9892  0.1243
10632TIP3    H253312   6.648   3.947  14.961 -0.0055 -0.0467 -0.1094
10633TIP3   OH253313   1.803   2.254   5.988  0.3463  0.3028 -0.0634
10633TIP3    H153314   1.852   2.332   6.013 -0.8377  0.5946  1.5172
10633TIP3    H253315   1.770   2.218   6.071 -1.9352  0.0510 -1.0048
10634TIP3   OH253316   2.631   5.274  17.189  0.8060 -0.1803  0.2461
10634TIP3    H153317   2.646   5.199  17.131 -2.0470  0.9344 -2.1838
10634TIP3    H253318   2.571   5.241  17.256  2.1070 -0.8068  1.1593
10635TIP3   OH253319   6.019   3.290  13.668 -0.4114  0.5900  0.3098
10635TIP3    H153320   6.082   3.359  13.651  0.9613 -0.6475  0.1536
10635TIP3    H253321   5.997   3.300  13.761 -1.2278  1.9955 -0.0111
10636TIP3   OH253322   1.839   0.445  11.586 -0.0003  0.2583 -0.2668
10636TIP3    H153323   1.782   0.491  11.647 -1.1263 -1.7207  0.2573
10636TIP3    H253324   1.795   0.453  11.501 -0.4874 -0.2611 -0.0755
10637TIP3   OH253325   6.726   6.006   2.460 -0.7293 -0.2927  0.1177
10637TIP3    H153326   6.690   5.944   2.524 -1.1074 -0.8892 -0.6531
10637TIP3    H253327   6.819   5.985   2.454 -0.7416 -0.3946  0.2958
10638TIP3   OH253328   1.260   3.175  11.921 -0.4503  0.1666  0.5452
10638TIP3    H153329   1.294   3.113  11.985  0.8710 -1.7659 -1.8578
10638TIP3    H253330   1.174   3.140  11.897 -0.0061 -0.3805 -0.2952
10639TIP3   OH253331   1.071   1.811  12.572  0.7028  0.5307  0.2842
10639TIP3    H153332   1.140   1.873  12.551  0.9908  0.4019  0.8297
10639TIP3    H253333   1.104   1.726  12.541  0.7529  0.4867  0.4523
10640TIP3   OH253334   2.104   0.276   0.410 -0.2511 -0.0117  0.2950
10640TIP3    H153335   2.049   0.330   0.466 -0.8406  0.5948 -0.8212
10640TIP3    H253336   2.078   0.300   0.321  1.9705  0.4880 -0.2968
10641TIP3   OH253337   4.563   2.624  10.735  0.2533  0.0264 -0.3445
10641TIP3    H153338   4.591   2.715  10.740 -0.6042  0.2412  1.1339
10641TIP3    H253339   4.562   2.594  10.825  0.8817 -1.5839 -0.8327
10642TIP3   OH253340   0.038   5.513  16.143 -0.1216  0.4611 -0.4058
10642TIP3    H153341   0.031   5.454  16.068  0.6362  0.6550 -0.6366
10642TIP3    H253342   0.117   5.565  16.126  0.5609 -0.0836  0.9304
10643TIP3   OH253343   0.990   3.085   3.546  0.6359 -0.1565  0.5721
10643TIP3    H153344   0.908   3.132   3.526  0.8875 -0.2577 -0.8394
10643TIP3    H253345   1.053   3.155   3.563  0.1864 -0.0847  2.0375
10644TIP3   OH253346   5.783   4.087   5.134 -0.3801 -0.6650 -0.1256
10644TIP3    H153347   5.757   4.001   5.101 -2.5617  0.0880 -0.5893
10644TIP3    H253348   5.877   4.081   5.147 -0.3105 -2.7597 -1.2019
10645TIP3   OH253349   6.363   0.603  17.301 -0.2923  0.2185  0.1465
10645TIP3    H153350   6.377   0.508  17.303 -2.0886 -0.0988 -0.4128
10645TIP3    H253351   6.279   0.614  17.256 -0.2750  2.0692  0.4809
10646TIP3   OH253352   3.031   3.648   1.254 -0.7833 -0.7432 -0.4151
10646TIP3    H153353   3.073   3.653   1.169 -1.0696  1.4369 -0.4702
10646TIP3    H253354   2.977   3.727   1.260  2.0935  1.2454  3.2655
10647TIP3   OH253355   4.525   6.070  13.634 -0.3223  0.1969 -0.0060
10647TIP3    H153356   4.483   6.030  13.558  0.3231  1.3239 -0.9989
10647TIP3    H253357   4.617   6.044  13.626  0.1544  1.9503 -0.7944
10648TIP3   OH253358   0.230   3.605  15.442 -0.0901  0.3971  0.1080
10648TIP3    H153359   0.219   3.579  15.350  0.9111 -1.5414  0.4870
10648TIP3    H253360   0.271   3.691  15.437  0.5505  0.0428 -1.2718
10649TIP3   OH253361   5.104   6.037  12.016  0.0887  0.1355  0.3238
10649TIP3    H153362   5.049   6.073  12.086  0.7909 -0.6508  1.3232
10649TIP3    H253363   5.176   5.994  12.062  1.9013  1.6467 -0.9521
10650TIP3   OH253364   6.379   5.724   1.512  0.4084  1.0662 -0.2740
10650TIP3    H153365   6.339   5.810   1.526  0.4647  1.0843 -0.2228
10650TIP3    H253366   6.468   5.733   1.548 -0.2049  0.4070  1.5107
10651TIP3   OH253367   5.348   1.428   5.873 -0.1434  0.7072  0.4037
10651TIP3    H153368   5.418   1.492   5.863 -0.0888  0.5211 -0.4385
10651TIP3    H253369   5.268   1.477   5.857  0.0083  0.0200 -3.4238
10652TIP3   OH253370   4.782   5.679   0.582  0.3373 -0.0718  0.6888
10652TIP3    H153371   4.807   5.765   0.617  0.1920 -0.0525  0.7469
10652TIP3    H253372   4.754   5.698   0.493  2.4210 -0.3681 -0.0883
10653TIP3   OH253373   0.376   3.922  16.594 -0.1561 -0.1989  0.3047
10653TIP3    H153374   0.454   3.967  16.626 -1.7922  2.0679  1.3378
10653TIP3    H253375   0.318   3.992  16.564 -2.0033 -1.7735 -0.0196
10654TIP3   OH253376   1.570   5.150   6.193 -0.2342  0.0084  0.4726
10654TIP3    H153377   1.603   5.238   6.207  1.8881 -0.1814 -2.5212
10654TIP3    H253378   1.503   5.159   6.126  1.6741 -0.7723 -1.6850
10655TIP3   OH253379   1.070   5.012   2.664 -0.8370 -0.6547  0.2458
10655TIP3    H153380   1.100   5.045   2.748  2.1516 -3.4225  0.4497
10655TIP3    H253381   1.106   4.924   2.658 -0.9993 -0.6423 -3.8764
10656TIP3   OH253382   2.462   0.865  12.125  0.2894 -0.0540 -0.0300
10656TIP3    H153383   2.441   0.803  12.195  1.7078 -0.6296 -0.0747
10656TIP3    H253384   2.417   0.831  12.048 -0.2934 -0.0895  0.3178
10657TIP3   OH253385   0.473   5.424   3.526  0.0354 -0.7586  0.0069
10657TIP3    H153386   0.529   5.414   3.603 -1.1622  3.0422  1.6172
10657TIP3    H253387   0.435   5.338   3.512  0.7738 -1.7462  3.2986
10658TIP3   OH253388   2.174   3.089  11.471  0.0431 -0.0427 -0.7666
10658TIP3    H153389   2.248   3.112  11.527 -0.2353 -0.8110 -0.0656
10658TIP3    H253390   2.213   3.072  11.385  0.9393 -2.1232 -0.0077
10659TIP3   OH253391   5.628   3.245  15.778  0.2326 -0.0964 -0.1925
10659TIP3    H153392   5.557   3.185  15.799 -0.2742  0.1943 -1.0555
10659TIP3    H253393   5.586   3.319  15.734  1.0781  0.0191 -0.8331
10660TIP3   OH253394   1.526   6.235  16.232 -0.0572  0.3114 -0.1003
10660TIP3    H153395   1.609   6.188  16.218  1.1131  1.4484  2.3479
10660TIP3    H253396   1.461   6.165  16.244  1.0791 -0.6788  0.5359
10661TIP3   OH253397   4.422   5.362  11.781  0.2879  0.1491 -0.5187
10661TIP3    H153398   4.346   5.414  11.754 -0.5951 -0.1034  1.3311
10661TIP3    H253399   4.480   5.426  11.823  0.4683  0.1035 -0.6985
10662TIP3   OH253400   6.591   4.344  15.034 -0.2328 -0.3189  0.1371
10662TIP3    H153401   6.565   4.355  14.942  1.2687 -0.7240 -0.3620
10662TIP3    H253402   6.517   4.379  15.084 -0.5508  1.0636 -1.2258
10663TIP3   OH253403   6.748   6.200  12.286  0.3795  0.2699  0.0561
10663TIP3    H153404   6.685   6.176  12.217  0.3872 -1.1562  0.5177
10663TIP3    H253405   6.699   6.190  12.367  0.8258  0.4420  0.3478
10664TIP3   OH253406   0.069   5.593   5.660  0.4465  0.1667  0.5107
10664TIP3    H153407   0.070   5.499   5.643  0.4517  0.2217  0.2129
10664TIP3    H253408  -0.009   5.626   5.616  0.2565  0.2502  0.9016
10665TIP3   OH253409   1.884   0.833  11.689  0.6269 -0.0927  0.0800
10665TIP3    H153410   1.939   0.877  11.624  0.5737  1.4962  1.0496
10665TIP3    H253411   1.834   0.769  11.639 -0.0735  1.6728 -1.6429
10666TIP3   OH253412   2.001   3.627   5.973  0.1193  0.9341  0.5492
10666TIP3    H153413   2.011   3.697   5.908 -1.2364  0.3328 -0.3700
10666TIP3    H253414   1.908   3.630   5.997  0.0041 -0.5901  0.4133
10667TIP3   OH253415   1.552   6.304   6.489  0.2811 -0.3215  0.8324
10667TIP3    H153416   1.534   6.255   6.569 -0.5922 -1.1791  0.1405
10667TIP3    H253417   1.557   6.237   6.421  2.2444  0.2684  0.3337
10668TIP3   OH253418   2.819   1.664   6.562  0.3239 -0.2494  0.5751
10668TIP3    H153419   2.793   1.615   6.640  0.1568  2.0905  2.1140
10668TIP3    H253420   2.913   1.679   6.573  1.4314 -3.8918 -2.1634
10669TIP3   OH253421   0.549   2.298   3.943 -0.0023  0.1303 -0.3641
10669TIP3    H153422   0.632   2.260   3.914 -0.3358 -0.1129 -1.0506
10669TIP3    H253423   0.572   2.381   3.982  0.5930 -0.0583 -0.3055
10670TIP3   OH253424   0.468   3.796  11.500 -0.4627 -0.7684  0.1037
10670TIP3    H153425   0.448   3.714  11.545 -0.5993 -0.5345  0.4751
10670TIP3    H253426   0.564   3.802  11.502 -0.4842 -0.5058  0.8356
10671TIP3   OH253427   5.448   2.851  11.363 -0.1664 -0.0522  0.0161
10671TIP3    H153428   5.390   2.834  11.437  0.1490 -1.8512 -0.1210
10671TIP3    H253429   5.400   2.818  11.287  0.2027  0.2897 -0.3703
10672TIP3   OH253430   5.266   1.677  13.227 -0.4811  0.3470 -0.2057
10672TIP3    H153431   5.297   1.675  13.318  0.1636  0.4612 -0.4144
10672TIP3    H253432   5.187   1.623  13.227 -1.3679  1.5754  0.7303
10673TIP3   OH253433   5.837   2.002  13.558 -0.5784  0.5366  0.0874
10673TIP3    H153434   5.794   1.955  13.629  0.5900  1.5851  1.5743
10673TIP3    H253435   5.772   2.065  13.527 -0.5277  1.3651  1.5611
10674TIP3   OH253436   6.482   5.489  12.268 -0.1472 -0.4533  0.5545
10674TIP3    H153437   6.479   5.576  12.228 -0.3098 -0.2175  1.0758
10674TIP3    H253438   6.404   5.444  12.235  0.5566 -0.8309 -0.6660
10675TIP3   OH253439   2.077   1.903   4.874 -0.1356  0.4734  0.0391
10675TIP3    H153440   2.162   1.859   4.880  0.5557  1.5390 -1.3359
10675TIP3    H253441   2.013   1.832   4.879  0.8710 -0.4658 -0.0251
10676TIP3   OH253442   3.695   1.445  15.402  0.3103  0.5175  0.1200
10676TIP3    H153443   3.734   1.460  15.317 -1.2913 -0.1101 -0.7740
10676TIP3    H253444   3.645   1.364  15.391 -0.2620  0.6515  1.5277
10677TIP3   OH253445   3.216   1.184   3.054 -0.2493  0.2521 -0.4219
10677TIP3    H153446   3.287   1.220   3.108  0.5036 -1.6931 -0.0491
10677TIP3    H253447   3.237   1.213   2.965  1.2281 -0.5708 -0.3698
10678TIP3   OH253448   0.318   0.707   2.754 -0.3293  0.1154  0.3333
10678TIP3    H153449   0.289   0.618   2.736 -0.9064  0.5162 -0.8086
10678TIP3    H253450   0.242   0.761   2.734  0.2849  0.9371  0.1717
10679TIP3   OH253451   0.294   5.975   0.091 -0.2460  0.1249  0.1964
10679TIP3    H153452   0.215   6.022   0.117 -1.9259 -2.4078  0.0471
10679TIP3    H253453   0.350   5.977   0.168 -0.9547  0.9873  0.7008
10680TIP3   OH253454   3.303   3.314   1.144  0.2505  0.3005 -0.0620
10680TIP3    H153455   3.290   3.309   1.049  1.1934 -0.1276 -0.1812
10680TIP3    H253456   3.262   3.235   1.178  3.6741 -1.9620 -0.6095
10681TIP3   OH253457   1.698   1.979  14.484  0.1639 -0.2538 -0.2042
10681TIP3    H153458   1.750   1.961  14.405 -0.5911 -0.1009 -0.7505
10681TIP3    H253459   1.695   1.896  14.531  0.3237 -0.4377 -0.5192
10682TIP3   OH253460   3.359   6.640   4.203  0.3655 -0.1119 -0.2200
10682TIP3    H153461   3.318   6.575   4.147  1.2984 -0.3590 -0.6202
10682TIP3    H253462   3.411   6.590   4.266  0.9924  0.2322 -0.4534
10683TIP3   OH253463   2.272   5.301  16.901 -0.8262  0.3492 -0.1600
10683TIP3    H153464   2.214   5.246  16.848 -3.5031  2.2413  0.6203
10683TIP3    H253465   2.239   5.292  16.991  1.7141 -0.4227  0.7839
10684TIP3   OH253466   5.825   4.221   3.766  0.4057  0.0287 -0.3227
10684TIP3    H153467   5.734   4.193   3.753  0.0353  0.7499  0.6495
10684TIP3    H253468   5.833   4.303   3.718  1.0387 -0.8664 -1.8165
10685TIP3   OH253469   2.252   3.050  14.921 -0.0194  0.4801 -0.4539
10685TIP3    H153470   2.295   2.997  14.855 -0.2181 -0.0982 -0.1270
10685TIP3    H253471   2.205   3.117  14.871  0.0107  0.1854 -0.8844
10686TIP3   OH253472   6.591   2.239   0.500 -0.5372  0.3898  0.3474
10686TIP3    H153473   6.636   2.289   0.569 -2.6600  0.5042  1.7322
10686TIP3    H253474   6.536   2.303   0.456 -1.1893 -0.1935  0.2991
10687TIP3   OH253475   5.652   3.841   2.234 -0.2111 -0.3378 -0.1628
10687TIP3    H153476   5.728   3.814   2.287 -0.1483 -2.2948 -1.1295
10687TIP3    H253477   5.665   3.796   2.151 -1.6875  0.5042 -0.8774
10688TIP3   OH253478   3.205   0.813   1.609  0.5935 -0.2343  0.1064
10688TIP3    H153479   3.224   0.860   1.527 -1.5815 -0.7363 -0.7631
10688TIP3    H253480   3.290   0.779   1.637  1.4846  0.3569 -1.6850
10689TIP3   OH253481   5.292   1.214   5.322  0.1329 -0.2838 -0.2286
10689TIP3    H153482   5.279   1.125   5.354  0.0058 -0.8100 -1.6415
10689TIP3    H253483   5.356   1.253   5.382  0.8035 -1.5979 -0.0557
10690TIP3   OH253484   5.475   6.336   3.518  0.5091  0.1953  0.6622
10690TIP3    H153485   5.496   6.429   3.522 -1.7519  0.8597 -0.6478
10690TIP3    H253486   5.537   6.300   3.455 -0.7646  1.6521 -1.6148
10691TIP3   OH253487   1.922   0.398   2.518  0.2342  0.6435  0.8613
10691TIP3    H153488   1.931   0.436   2.605  0.6254  1.5973  0.4074
10691TIP3    H253489   1.899   0.471   2.461 -0.2604 -0.0099  0.1943
10692TIP3   OH253490   2.616   4.982  12.830  0.0830  0.0322 -0.7600
10692TIP3    H153491   2.543   5.024  12.877  0.6577 -0.6704  0.8225
10692TIP3    H253492   2.589   4.891  12.821  0.1068  0.0997 -1.5663
10693TIP3   OH253493   1.827   0.577   6.560  0.8576 -0.2685 -0.0219
10693TIP3    H153494   1.848   0.494   6.519  0.5168 -0.3253 -0.0887
10693TIP3    H253495   1.890   0.639   6.524  2.0118 -0.7586  1.0604
10694TIP3   OH253496   3.148   5.726   0.855  0.5108 -0.3111  0.3608
10694TIP3    H153497   3.053   5.721   0.848  0.6184 -0.4387 -2.2219
10694TIP3    H253498   3.165   5.808   0.901 -0.8773  0.6770 -0.7838
10695TIP3   OH253499   3.220   1.896   6.575  0.3455  0.2041 -0.2044
10695TIP3    H153500   3.243   1.989   6.572 -1.1365  0.7175  1.7219
10695TIP3    H253501   3.147   1.887   6.513 -0.7758  0.8042  0.9695
10696TIP3   OH253502   1.981   1.473   5.010 -0.2522  0.5232  0.0973
10696TIP3    H153503   2.036   1.550   5.022 -0.1563  0.2747  1.4170
10696TIP3    H253504   2.026   1.421   4.942 -1.5007  2.6323 -2.5389
10697TIP3   OH253505   4.824   4.343   2.975  0.2560  0.4495 -0.1658
10697TIP3    H153506   4.896   4.287   2.945  0.9630  0.5862  1.2078
10697TIP3    H253507   4.809   4.403   2.902  3.0198  1.8579  0.2804
10698TIP3   OH253508   4.191   0.675  14.171 -0.0030 -0.3743 -0.2315
10698TIP3    H153509   4.167   0.623  14.247 -0.4605  0.4746  0.2198
10698TIP3    H253510   4.177   0.616  14.096 -1.2518 -0.6594  0.2022
10699TIP3   OH253511   1.326   2.986   5.077 -0.8289 -0.9009 -0.2765
10699TIP3    H153512   1.234   2.994   5.054 -0.6242 -0.8134 -1.0933
10699TIP3    H253513   1.372   2.982   4.993  0.0458  0.5011  0.0893
10700TIP3   OH253514   0.387   0.888   0.111  0.1769 -0.0086  0.5143
10700TIP3    H153515   0.299   0.851   0.121 -0.2668  1.1109  0.8735
10700TIP3    H253516   0.413   0.911   0.200  0.1034  1.2828  0.2239
10701TIP3   OH253517   6.048   4.732  11.168  0.0352  0.4653  0.6732
10701TIP3    H153518   6.044   4.649  11.120 -0.2497  0.6241  0.4273
10701TIP3    H253519   5.973   4.729  11.227 -0.0807  0.6354  0.5316
10702TIP3   OH253520   1.443   1.690   3.412  0.3808  0.7437  0.0260
10702TIP3    H153521   1.517   1.639   3.444 -1.1682 -0.0396  2.7798
10702TIP3    H253522   1.416   1.645   3.332  2.3335  0.5716 -0.5868
10703TIP3   OH253523   4.798   6.409   1.261  0.1927 -0.2385 -0.5823
10703TIP3    H153524   4.806   6.370   1.175 -1.7092 -1.1698 -0.4001
10703TIP3    H253525   4.877   6.462   1.272  1.1082 -1.1878 -2.3121
10704TIP3   OH253526   5.943   1.902   2.761 -0.1556 -0.2437  0.0989
10704TIP3    H153527   5.968   1.874   2.849 -2.6780 -0.1532  0.9355
10704TIP3    H253528   5.984   1.988   2.751  1.0362 -0.7193  0.7450
10705TIP3   OH253529   0.485   3.013   2.944  0.1782 -0.3425  0.3725
10705TIP3    H153530   0.450   3.093   2.905 -0.2635 -1.1733 -0.9798
10705TIP3    H253531   0.412   2.978   2.997  0.4175  0.2056  1.0771
10706TIP3   OH253532   4.173   5.777   5.272 -1.0457 -0.6615  0.2404
10706TIP3    H153533   4.129   5.862   5.263 -2.6629 -1.1864  2.3590
10706TIP3    H253534   4.237   5.791   5.341  0.8749 -0.4360 -1.4896
10707TIP3   OH253535   1.451   6.748   0.821 -0.2718  0.4395 -0.0543
10707TIP3    H153536   1.397   6.817   0.782 -1.1612  0.4050  1.0604
10707TIP3    H253537   1.449   6.676   0.758  0.9049  1.4969 -1.3734
10708TIP3   OH253538   0.025   3.329  11.649 -0.3055  0.7562 -0.6757
10708TIP3    H153539  -0.016   3.243  11.650 -1.5753  1.3360 -0.4168
10708TIP3    H253540   0.108   3.317  11.696 -0.8785 -0.1236  0.1478
10709TIP3   OH253541   6.204   2.787   6.574  0.0360 -0.1669  0.1957
10709TIP3    H153542   6.111   2.808   6.589 -0.1761  0.0544 -1.2704
10709TIP3    H253543   6.244   2.870   6.550  0.5881 -0.2965  0.6453
10710TIP3   OH253544   0.554   2.171   4.203 -0.5158 -0.3155 -0.3667
10710TIP3    H153545   0.639   2.152   4.163 -0.1701 -1.9561  1.0376
10710TIP3    H253546   0.500   2.202   4.130  0.6781 -1.2026 -1.7009
10711TIP3   OH253547   4.826   5.186  14.335  0.3273  0.3447 -0.1880
10711TIP3    H153548   4.909   5.231  14.351  0.5970 -0.4882  0.8981
10711TIP3    H253549   4.797   5.157  14.421 -0.5937 -0.2434 -0.6768
10712TIP3   OH253550   3.946   3.142   1.173 -0.2449  0.1675  0.2319
10712TIP3    H153551   3.861   3.181   1.191 -1.1496 -1.4536 -0.3698
10712TIP3    H253552   4.005   3.217   1.164 -1.5949  1.3220  0.6222
10713TIP3   OH253553   2.930   4.937   5.179 -0.1719  0.0354 -0.5594
10713TIP3    H153554   2.864   4.871   5.197 -0.4154  0.9760  2.6463
10713TIP3    H253555   3.012   4.889   5.172 -0.7313 -0.8403 -1.2185
10714TIP3   OH253556   5.796   1.462  14.455  0.0028 -0.2696 -0.0773
10714TIP3    H153557   5.820   1.488  14.545 -0.1728  0.0328 -0.1154
10714TIP3    H253558   5.879   1.434  14.416  0.3635  0.9924 -0.2826
10715TIP3   OH253559   1.798   2.931  15.648  0.3367  0.4464 -0.3256
10715TIP3    H153560   1.749   2.852  15.626 -0.1457  0.7656 -0.4149
10715TIP3    H253561   1.819   2.921  15.741 -0.9229  0.8306  0.0281
10716TIP3   OH253562   3.648   3.053   3.596  0.3833 -0.2815  0.1133
10716TIP3    H153563   3.634   2.967   3.557 -0.8632  0.7187 -1.8250
10716TIP3    H253564   3.572   3.067   3.652  0.8510 -0.6459  0.8455
10717TIP3   OH253565   4.630   2.858   0.579 -0.8419  0.2031 -0.0015
10717TIP3    H153566   4.635   2.918   0.653  2.2410  1.9908 -1.4789
10717TIP3    H253567   4.711   2.806   0.585  0.7166  1.9594 -3.2114
10718TIP3   OH253568   6.107   6.465   3.250  0.1161 -0.2016 -0.2087
10718TIP3    H153569   6.186   6.517   3.241 -0.0543  0.5906  2.1886
10718TIP3    H253570   6.048   6.499   3.182  2.2572 -1.8516 -3.0630
10719TIP3   OH253571   3.902   4.458   2.921 -0.2130 -0.0870  0.3161
10719TIP3    H153572   3.887   4.547   2.890 -1.1327 -0.3157  0.0744
10719TIP3    H253573   3.994   4.441   2.901 -0.3698  0.3305 -0.8951
10720TIP3   OH253574   1.609   6.167   0.519 -0.5670  0.1134 -0.9830
10720TIP3    H153575   1.531   6.190   0.569 -0.1125 -1.6364  0.7004
10720TIP3    H253576   1.667   6.127   0.584  1.2702  0.3383 -2.4033
10721TIP3   OH253577   0.810   1.438   0.035  0.3155  0.2107 -0.1228
10721TIP3    H153578   0.807   1.344   0.022  1.8616  0.2112 -0.5859
10721TIP3    H253579   0.825   1.449   0.129 -0.5600  0.0346  0.0522
10722TIP3   OH253580   6.366   6.556  13.564 -0.2816  0.1265 -0.8378
10722TIP3    H153581   6.356   6.651  13.576 -1.4371 -0.2850  2.5099
10722TIP3    H253582   6.437   6.532  13.625  0.2714 -1.1415 -1.9337
10723TIP3   OH253583   3.258   2.773   3.219  0.3447  0.2801  0.4019
10723TIP3    H153584   3.228   2.734   3.137 -0.3460  1.1376  0.2352
10723TIP3    H253585   3.180   2.773   3.275  1.0362 -1.1783  1.4236
10724TIP3   OH253586   5.808   4.083  11.464  0.3785  0.5458  0.4956
10724TIP3    H153587   5.830   4.078  11.371 -1.1694 -1.6202  0.1669
10724TIP3    H253588   5.798   3.992  11.491  1.2655  1.1065  2.9341
10725TIP3   OH253589   3.064   0.976  11.098 -0.3594 -0.1855 -0.5889
10725TIP3    H153590   3.071   0.919  11.021 -0.6598 -0.5265 -0.3700
10725TIP3    H253591   3.110   1.056  11.074 -1.2715  0.0871 -1.4844
10726TIP3   OH253592   6.441   6.192   2.108  0.6016 -0.2450  0.3036
10726TIP3    H153593   6.373   6.214   2.172 -0.4866 -1.0589 -0.5288
10726TIP3    H253594   6.523   6.196   2.158  0.0315  1.3176  1.2031
10727TIP3   OH253595   5.695   0.236   1.860 -0.5840 -0.0469 -0.5029
10727TIP3    H153596   5.655   0.322   1.876  0.1892 -0.0660  1.9774
10727TIP3    H253597   5.723   0.239   1.769 -1.4304  1.9688 -0.7533
10728TIP3   OH253598   2.664   2.646  16.039 -0.0004  0.2185  0.1332
10728TIP3    H153599   2.729   2.704  15.999 -0.2200 -0.9883 -2.1344
10728TIP3    H253600   2.593   2.642  15.975 -1.4172 -0.1050  1.6540
10729TIP3   OH253601   3.103   0.717  12.383  0.7010 -0.0979 -0.2589
10729TIP3    H153602   3.133   0.706  12.293  2.9635 -0.4559  0.4748
10729TIP3    H253603   3.133   0.804  12.408 -1.0793  0.5453 -0.2336
10730TIP3   OH253604   6.757   1.589  10.648 -0.3993  0.0436 -0.4996
10730TIP3    H153605   6.819   1.645  10.602  1.8148 -2.9492 -1.4913
10730TIP3    H253606   6.673   1.636  10.641  1.3587  3.4872 -0.5154
10731TIP3   OH253607   1.789   2.904  13.925 -0.1194  0.7793 -0.3947
10731TIP3    H153608   1.883   2.906  13.908  0.1108 -1.0064  0.4646
10731TIP3    H253609   1.777   2.833  13.988 -1.9830  1.3438 -0.0412
10732TIP3   OH253610   3.547   6.191   4.211  0.0471 -0.6117  0.0270
10732TIP3    H153611   3.473   6.211   4.268  0.0435  3.2639 -1.0758
10732TIP3    H253612   3.614   6.255   4.235 -0.0938  1.5209 -4.3198
10733TIP3   OH253613   3.185   0.716   3.613 -0.3477  0.2182 -0.1880
10733TIP3    H153614   3.255   0.660   3.646  2.7256  2.2962 -2.5467
10733TIP3    H253615   3.126   0.728   3.688  1.5420 -2.0242  1.8307
10734TIP3   OH253616   0.886   6.414   0.012  0.2046  0.1170  0.3154
10734TIP3    H153617   0.926   6.492   0.048 -0.3326  0.7700 -0.4778
10734TIP3    H253618   0.793   6.424   0.029  0.2230 -0.8360  1.1026
10735TIP3   OH253619   1.636   0.427   3.208 -0.1313  0.4424 -0.3258
10735TIP3    H153620   1.611   0.491   3.274 -0.4380 -0.9099  0.9188
10735TIP3    H253621   1.558   0.373   3.195  0.4231 -0.3183 -0.5927
10736TIP3   OH253622   5.459   0.649  16.287  0.5310 -0.1572  0.2132
10736TIP3    H153623   5.455   0.742  16.263 -0.2308 -0.5633 -1.3474
10736TIP3    H253624   5.542   0.641  16.335  0.8407  1.2331 -0.0365
10737TIP3   OH253625   3.038   2.337  17.208 -0.2685  0.1946 -0.2235
10737TIP3    H153626   3.054   2.408  17.270 -0.3029 -0.3718  0.4557
10737TIP3    H253627   2.953   2.357  17.169 -0.7412  0.0224  0.6898
10738TIP3   OH253628   3.253   5.438   2.409  0.3173  0.0102  0.2660
10738TIP3    H153629   3.245   5.493   2.486 -0.3365 -0.9601  0.9225
10738TIP3    H253630   3.339   5.458   2.374  0.7158  0.3164  1.3740
10739TIP3   OH253631   2.635   5.452   2.185 -0.1200 -0.3535  0.0061
10739TIP3    H153632   2.641   5.405   2.102 -1.9416 -0.1024 -0.3115
10739TIP3    H253633   2.714   5.505   2.189  0.1419 -0.6036 -1.4152
10740TIP3   OH253634   2.847   6.700   5.760 -0.5105 -0.0045 -0.4280
10740TIP3    H153635   2.862   6.755   5.837 -1.1699 -0.2249 -0.1335
10740TIP3    H253636   2.793   6.628   5.792  1.5454 -1.6378 -0.4785
10741TIP3   OH253637   0.829   5.997  14.316  0.6556  0.5688  0.0393
10741TIP3    H153638   0.867   5.909  14.313 -0.7535 -0.1109  0.7318
10741TIP3    H253639   0.900   6.054  14.345  0.8783 -0.8256  2.4993
10742TIP3   OH253640   0.651   2.693  16.354  0.4941 -0.1105  0.2729
10742TIP3    H153641   0.596   2.755  16.306 -1.7766 -0.8829  1.7199
10742TIP3    H253642   0.725   2.746  16.385 -0.5271  1.5054  0.0829
10743TIP3   OH253643   0.174   5.433  17.206  0.3487 -0.2647  0.0443
10743TIP3    H153644   0.127   5.451  17.288  0.6449  1.7506 -0.1760
10743TIP3    H253645   0.267   5.441  17.230  0.4694 -0.7466 -0.2573
10744TIP3   OH253646   5.640   0.938   0.996  0.1269 -0.1869 -0.3884
10744TIP3    H153647   5.632   0.894   1.081  1.3094 -1.5412 -0.9291
10744TIP3    H253648   5.555   0.979   0.981  0.1495  0.8201  1.8236
10745TIP3   OH253649   1.563   1.950  15.678  0.1617  0.1938 -0.1760
10745TIP3    H153650   1.578   2.008  15.752 -0.4421 -1.3580  1.2284
10745TIP3    H253651   1.651   1.931  15.644  0.4410  0.9082  0.1312
10746TIP3   OH253652   2.226   5.291  13.003  0.1932 -0.6056 -0.0252
10746TIP3    H153653   2.275   5.211  12.980 -1.0842 -2.0567  1.9935
10746TIP3    H253654   2.181   5.269  13.085 -0.4001  2.1397  0.4792
10747TIP3   OH253655   2.952   3.029   4.032  0.4600  0.2722 -0.5237
10747TIP3    H153656   2.910   2.945   4.048 -0.2140  0.5292 -0.9049
10747TIP3    H253657   2.961   3.068   4.119  2.3902 -0.9271 -0.1369
10748TIP3   OH253658   2.462   6.650  16.037  0.1301 -0.0127 -0.6619
10748TIP3    H153659   2.385   6.631  15.984 -1.2566 -0.7288  1.4885
10748TIP3    H253660   2.500   6.564  16.057  1.8586  0.3515 -2.1291
10749TIP3   OH253661   0.089   4.522   4.686  0.1764  0.0648  0.2303
10749TIP3    H153662   0.127   4.600   4.728 -0.3687 -0.6176  2.0667
10749TIP3    H253663   0.157   4.455   4.695  1.2043  0.5951 -2.5522
10750TIP3   OH253664   5.419   3.168  13.532  0.2559 -0.0822 -0.2472
10750TIP3    H153665   5.413   3.085  13.579  0.5643 -0.3791 -0.7232
10750TIP3    H253666   5.504   3.204  13.557 -0.7278  1.1233  1.6093
10751TIP3   OH253667   2.816   6.068   6.208 -0.1262 -0.7579 -0.0322
10751TIP3    H153668   2.727   6.091   6.235 -0.4560 -0.8537 -0.9669
10751TIP3    H253669   2.869   6.143   6.233 -0.1079 -1.4728  2.2403
10752TIP3   OH253670   3.896   2.963   5.333 -0.1254  0.1934 -0.3111
10752TIP3    H153671   3.884   2.936   5.424  1.3074 -0.8364 -0.3969
10752TIP3    H253672   3.854   3.048   5.328 -2.3837 -0.7709  0.6872
10753TIP3   OH253673   1.079   1.589   0.799 -0.0915  0.5238  0.5217
10753TIP3    H153674   1.058   1.551   0.714 -0.3134 -2.2626  1.7377
10753TIP3    H253675   1.175   1.598   0.797  0.1410 -1.5234  0.7006
10754TIP3   OH253676   1.842   4.580   3.352  0.0220 -0.3272 -0.4796
10754TIP3    H153677   1.889   4.662   3.348 -1.5634  0.6132 -0.8471
10754TIP3    H253678   1.861   4.546   3.440 -0.3122  1.0797  0.1710
10755TIP3   OH253679   3.211   5.302  14.913 -0.4649  0.0220  0.6085
10755TIP3    H153680   3.249   5.340  14.992  0.4761 -0.8803  0.6209
10755TIP3    H253681   3.179   5.377  14.863 -0.5741  0.6441  1.5868
10756TIP3   OH253682   4.097   1.517  11.561 -0.4748 -0.6560 -0.2563
10756TIP3    H153683   4.044   1.447  11.522 -1.3337 -0.0127 -0.2944
10756TIP3    H253684   4.084   1.591  11.501  0.7890 -0.5894 -0.4682
10757TIP3   OH253685   2.138   3.172   2.065  0.3931  0.0567  0.1600
10757TIP3    H153686   2.134   3.245   2.003 -0.2437  0.5327  0.7457
10757TIP3    H253687   2.179   3.210   2.143 -1.5294  0.2799  1.1082
10758TIP3   OH253688   4.303   6.095   1.936  0.2280 -0.1405 -0.3583
10758TIP3    H153689   4.239   6.026   1.957  0.1290  0.0907  0.1092
10758TIP3    H253690   4.251   6.176   1.936  0.6218  0.1149  0.5493
10759TIP3   OH253691   2.070   3.759  14.842  0.2449 -0.4577  0.6013
10759TIP3    H153692   2.103   3.703  14.772 -0.3877 -2.2493  1.6675
10759TIP3    H253693   2.129   3.834  14.843 -0.2715  0.1356 -2.4393
10760TIP3   OH253694   0.795   5.536   4.889  0.4474  0.2415 -0.0426
10760TIP3    H153695   0.880   5.527   4.846  0.0933 -0.0993 -0.6796
10760TIP3    H253696   0.772   5.447   4.917  1.1388  0.5881  1.7875
10761TIP3   OH253697   3.045   3.335  12.908 -0.2729 -0.0983 -0.3862
10761TIP3    H153698   3.103   3.379  12.847  1.0947 -0.7131  0.4264
10761TIP3    H253699   3.000   3.407  12.954 -0.8394  0.3675 -1.6147
10762TIP3   OH253700   4.964   1.691   0.558 -0.1205  0.2163 -0.2369
10762TIP3    H153701   5.031   1.659   0.619  0.4514 -0.2748 -1.1071
10762TIP3    H253702   4.964   1.628   0.486 -0.5305  0.9845 -0.9280
10763TIP3   OH253703   0.978   4.772   3.309 -0.2199 -0.8821  0.3969
10763TIP3    H153704   0.992   4.767   3.214 -1.2678 -2.4569  0.2766
10763TIP3    H253705   0.976   4.865   3.329  1.6994 -0.5180 -0.8473
10764TIP3   OH253706   5.056   0.262   1.630  0.0287 -0.3956 -0.1285
10764TIP3    H153707   5.087   0.265   1.721 -3.1976 -0.0821  1.0869
10764TIP3    H253708   5.062   0.169   1.606 -0.2397 -0.6827  0.8682
10765TIP3   OH253709   1.008   4.169  13.307 -0.0140 -0.3570  0.1054
10765TIP3    H153710   0.948   4.181  13.233  1.3880  1.2127 -0.8505
10765TIP3    H253711   0.957   4.193  13.384 -1.1986 -1.0525 -0.4317
10766TIP3   OH253712   1.238   1.611  11.568 -0.2430  0.1695 -0.0845
10766TIP3    H153713   1.182   1.537  11.591 -4.8869  2.8046 -1.7005
10766TIP3    H253714   1.205   1.684  11.619  1.3640  2.0575 -1.5896
10767TIP3   OH253715   4.603   0.384  17.315 -0.1021  0.4734 -0.6932
10767TIP3    H153716   4.686   0.429  17.334  0.1433  0.1505 -0.9900
10767TIP3    H253717   4.540   0.455  17.303  0.6472  0.8376 -2.9582
10768TIP3   OH253718   3.150   0.839  13.686  0.2058 -0.8137  0.0843
10768TIP3    H153719   3.184   0.776  13.749 -0.8868 -0.4833  1.0324
10768TIP3    H253720   3.169   0.924  13.724  1.3693 -0.5449 -1.0275
10769TIP3   OH253721   2.548   5.045   1.173 -0.1704 -0.5291  0.2462
10769TIP3    H153722   2.509   4.963   1.141 -0.1107 -1.0056  1.3694
10769TIP3    H253723   2.642   5.033   1.159 -0.1325 -0.7914  0.6984
10770TIP3   OH253724   5.912   4.645   5.948  0.2796 -0.3237 -0.2197
10770TIP3    H153725   5.929   4.599   5.866  2.0235  0.6592 -0.4503
10770TIP3    H253726   5.995   4.639   5.996 -0.0777  0.8941  0.5704
10771TIP3   OH253727   3.442   4.453  13.463  0.0356 -0.1304 -0.4834
10771TIP3    H153728   3.463   4.539  13.500 -2.0220  1.3011 -2.3276
10771TIP3    H253729   3.499   4.444  13.387 -1.8023  1.1200 -2.1086
10772TIP3   OH253730   5.274   2.206  10.838 -0.1015 -0.2342  0.2005
10772TIP3    H153731   5.285   2.299  10.816 -1.3601  0.0979  0.8734
10772TIP3    H253732   5.363   2.172  10.844  0.3836  0.9484  0.0365
10773TIP3   OH253733   3.065   4.474   4.209 -0.1761  0.2642 -0.0147
10773TIP3    H153734   3.118   4.533   4.155  1.5720 -0.5995  0.6618
10773TIP3    H253735   3.013   4.532   4.264  0.2576  1.1609 -0.5274
10774TIP3   OH253736   2.712   2.989   3.445 -0.3838  0.2477  0.4616
10774TIP3    H153737   2.781   3.007   3.382 -0.4587  0.6164  0.4826
10774TIP3    H253738   2.658   3.068   3.446 -1.2495 -0.3204 -0.1128
10775TIP3   OH253739   4.591   1.188   1.453  0.2450 -0.4199 -0.0116
10775TIP3    H153740   4.617   1.208   1.363  1.1271  5.0924  1.1255
10775TIP3    H253741   4.495   1.187   1.450  0.2044  1.3527 -0.8671
10776TIP3   OH253742   5.918   5.587  12.604  0.5013  0.0787  0.0351
10776TIP3    H153743   5.837   5.535  12.601  0.7007 -0.4083  2.0512
10776TIP3    H253744   5.919   5.633  12.520 -1.6875 -0.1732 -0.2017
10777TIP3   OH253745   4.040   6.386  15.354 -0.7629 -0.0486 -0.1089
10777TIP3    H153746   4.022   6.472  15.392  1.0272  0.4351 -0.2617
10777TIP3    H253747   4.134   6.387  15.337 -0.1455 -3.0066  2.2937
10778TIP3   OH253748   2.656   0.200   5.591 -0.1079  0.1862 -0.1247
10778TIP3    H153749   2.729   0.139   5.581  0.7158  0.9886  0.6585
10778TIP3    H253750   2.686   0.261   5.659 -1.0854  1.1623 -0.5361
10779TIP3   OH253751   0.978   0.023   0.312  0.1485  0.2512 -0.4324
10779TIP3    H153752   1.067   0.046   0.338  0.2450  0.4691 -0.9493
10779TIP3    H253753   0.925   0.043   0.389  0.6615 -0.7234  0.1950
10780TIP3   OH253754   2.992   0.907  14.078 -0.1948  0.6488 -0.3916
10780TIP3    H153755   3.074   0.865  14.052 -0.3737 -1.0420  1.5503
10780TIP3    H253756   2.977   0.974  14.011  2.0586  0.1044 -1.5293
10781TIP3   OH253757   5.558   1.621  13.992  0.2347  0.0896  0.1370
10781TIP3    H153758   5.583   1.599  13.902  0.8996 -1.8715  0.7395
10781TIP3    H253759   5.639   1.651  14.033 -0.0348  0.8385  0.1228
10782TIP3   OH253760   4.553   5.701  17.257 -0.3413 -0.1302 -0.3990
10782TIP3    H153761   4.637   5.730  17.292 -0.5321 -0.0584  0.0094
10782TIP3    H253762   4.575   5.654  17.177  0.0048  0.7942 -0.8589
10783TIP3   OH253763   5.065   2.839  12.808 -0.1276  0.2981  0.0643
10783TIP3    H153764   5.019   2.859  12.727  2.1132  1.9171 -0.9065
10783TIP3    H253765   5.058   2.919  12.860 -1.4442 -0.6769  1.5148
10784TIP3   OH253766   2.867   1.646  11.787 -0.0993 -0.6245  0.1932
10784TIP3    H153767   2.962   1.637  11.797 -0.0187  1.7156  2.4262
10784TIP3    H253768   2.856   1.690  11.703  0.6908 -1.6858 -0.4966
10785TIP3   OH253769   2.184   1.134  12.101 -0.6276 -0.0012 -0.1035
10785TIP3    H153770   2.129   1.199  12.058  0.1978  0.3116 -0.7158
10785TIP3    H253771   2.227   1.181  12.172 -2.6844 -0.7266  1.7403
10786TIP3   OH253772   1.239   1.562   1.727 -0.2343  0.0059  0.2265
10786TIP3    H153773   1.244   1.470   1.750  0.6958  0.0413  0.1912
10786TIP3    H253774   1.166   1.568   1.665 -0.7878 -0.5715  0.8087
10787TIP3   OH253775   5.801   2.038   3.806 -0.3066  0.2289 -0.5541
10787TIP3    H153776   5.890   2.016   3.833  0.1236  0.1901 -1.9068
10787TIP3    H253777   5.781   1.976   3.736 -1.7211 -0.2761  0.2553
10788TIP3   OH253778   4.575   4.087  14.974 -0.5346  0.3051  0.1585
10788TIP3    H153779   4.646   4.023  14.970 -0.2625  0.6429 -2.1053
10788TIP3    H253780   4.498   4.040  14.941 -1.2874  0.1195  2.0296
10789TIP3   OH253781   3.724   5.150  12.158  0.2469  0.2963 -0.5852
10789TIP3    H153782   3.743   5.063  12.193 -2.1942  0.4561  1.4749
10789TIP3    H253783   3.764   5.210  12.221 -1.1080  0.5982  0.0259
10790TIP3   OH253784   5.048   4.765  15.425  0.2939 -0.0081  0.0077
10790TIP3    H153785   5.095   4.719  15.494  1.6147  1.6670  0.3060
10790TIP3    H253786   4.971   4.801  15.467  0.2035 -0.4120  0.1924
10791TIP3   OH253787   5.823   2.527  13.276 -0.2805 -0.6155 -0.6777
10791TIP3    H153788   5.857   2.438  13.275  0.3890 -0.3730 -0.3181
10791TIP3    H253789   5.752   2.527  13.212 -0.4436 -1.4640 -0.5066
10792TIP3   OH253790   6.385   5.610   6.684  0.0163  0.4640  0.4382
10792TIP3    H153791   6.427   5.694   6.702  0.7973 -0.0106  0.8961
10792TIP3    H253792   6.457   5.547   6.684 -0.7422 -0.4696  1.9072
10793TIP3   OH253793   4.921   6.358  11.939 -0.1256 -0.4317  0.1141
10793TIP3    H153794   4.979   6.338  12.013  0.9408 -0.0708 -0.5962
10793TIP3    H253795   4.836   6.375  11.979  0.1879 -1.2464  1.1636
10794TIP3   OH253796   1.359   2.060   4.387  0.7760  0.1710 -0.6359
10794TIP3    H153797   1.404   1.979   4.363  0.8505 -0.2628  0.8386
10794TIP3    H253798   1.429   2.124   4.401  0.6531  1.1190 -3.6883
10795TIP3   OH253799   4.598   2.375  13.854 -0.3366 -0.3268  1.0614
10795TIP3    H153800   4.594   2.407  13.763 -0.9108  0.6645  1.4188
10795TIP3    H253801   4.682   2.408  13.886 -1.0554  1.1786  1.5229
10796TIP3   OH253802   1.373   1.926   0.329  0.2358 -0.1953 -0.0432
10796TIP3    H153803   1.329   1.979   0.263 -0.3497 -1.9002 -1.0933
10796TIP3    H253804   1.396   1.988   0.398  0.1637  1.5123 -1.4764
10797TIP3   OH253805   3.732   0.676   3.339 -0.2558  0.6559 -0.0348
10797TIP3    H153806   3.746   0.584   3.364 -0.7797  0.5435 -0.1516
10797TIP3    H253807   3.642   0.694   3.364 -0.5521  0.7671 -1.1536
10798TIP3   OH253808   0.835   0.705   4.386  0.0220  0.1066  0.5507
10798TIP3    H153809   0.927   0.718   4.410  0.3603  1.0873 -1.1545
10798TIP3    H253810   0.798   0.793   4.381  0.2693  0.1511 -3.3287
10799TIP3   OH253811   3.526   6.398  13.277 -0.1181 -0.1308  0.8707
10799TIP3    H153812   3.610   6.441  13.263 -1.0582  1.5529  0.1144
10799TIP3    H253813   3.530   6.319  13.223  0.0681  1.2241 -1.1884
10800TIP3   OH253814   5.403   4.228   0.707  0.1352 -0.7655 -0.3055
10800TIP3    H153815   5.331   4.272   0.661 -1.0836 -1.4322  0.8632
10800TIP3    H253816   5.360   4.157   0.755  1.6378 -1.3714  0.2091
10801TIP3   OH253817   3.691   1.170  16.585  0.1077 -0.1825 -0.2603
10801TIP3    H153818   3.661   1.226  16.513  0.9833 -0.1297 -0.5893
10801TIP3    H253819   3.786   1.180  16.586  0.0567  0.3546  1.3587
10802TIP3   OH253820   6.695   6.192  14.803 -0.0934 -0.1045  0.2376
10802TIP3    H153821   6.655   6.189  14.716  0.2892  1.5165 -0.0095
10802TIP3    H253822   6.756   6.119  14.803  0.4100  0.2828 -1.1133
10803TIP3   OH253823   1.681   1.427   1.045  0.0337  0.1761  0.1232
10803TIP3    H153824   1.594   1.391   1.066 -0.0236 -0.3218 -0.9147
10803TIP3    H253825   1.740   1.352   1.052  0.4235  0.5648  1.0534
10804TIP3   OH253826   1.236   0.115  16.491  0.3881 -1.0747 -0.4846
10804TIP3    H153827   1.252   0.081  16.403 -0.7559  1.3093 -1.7299
10804TIP3    H253828   1.141   0.116  16.499  0.4562 -0.2513  0.3370
10805TIP3   OH253829   5.723   0.226  17.077  0.1552 -0.7429  0.0866
10805TIP3    H153830   5.809   0.184  17.076  0.6022  0.0133  2.0129
10805TIP3    H253831   5.743   0.320  17.077 -0.6999 -0.5584  0.0105
10806TIP3   OH253832   2.804   3.096  13.507  0.2558 -0.1369  0.0043
10806TIP3    H153833   2.811   3.021  13.449 -1.7817 -0.4880  0.1149
10806TIP3    H253834   2.870   3.157  13.477 -0.4134 -0.5076 -2.3889
10807TIP3   OH253835   2.410   6.393  12.164  0.0940 -0.1279 -0.5390
10807TIP3    H153836   2.471   6.370  12.094 -0.5114 -0.1495 -1.0742
10807TIP3    H253837   2.442   6.477  12.197  1.2521 -0.8396  0.1854
10808TIP3   OH253838   2.746   5.718   3.832 -0.0847  0.6221 -0.6676
10808TIP3    H153839   2.654   5.704   3.856  0.4662  0.0240  1.2818
10808TIP3    H253840   2.755   5.814   3.828 -0.5484  0.7241  0.3007
10809TIP3   OH253841   4.371   2.282  14.900 -0.8870  0.0694  0.2688
10809TIP3    H153842   4.407   2.209  14.949 -1.0040 -0.2473 -0.1039
10809TIP3    H253843   4.420   2.282  14.818 -0.9357  0.3648  0.2392
10810TIP3   OH253844   5.625   4.197  11.641 -0.1979  0.2914  0.0299
10810TIP3    H153845   5.567   4.260  11.599 -1.5530 -1.0071 -0.1266
10810TIP3    H253846   5.677   4.161  11.569  0.5342  1.1549  0.1117
10811TIP3   OH253847   0.416   0.169  13.031  0.3277 -0.1311 -0.3356
10811TIP3    H153848   0.366   0.229  13.086  1.3948 -0.0296  0.5783
10811TIP3    H253849   0.356   0.144  12.961 -0.7499  0.5204  0.3254
10812TIP3   OH253850   1.136   4.191  16.854 -0.2647  0.3577  0.5332
10812TIP3    H153851   1.057   4.146  16.825 -0.5458  0.2853  1.3945
10812TIP3    H253852   1.205   4.125  16.849 -0.3676  0.2689  0.2954
10813TIP3   OH253853   0.515   5.708  11.735  0.7029 -0.3190  0.2688
10813TIP3    H153854   0.548   5.737  11.650  1.1522 -0.0501  0.5321
10813TIP3    H253855   0.580   5.645  11.766  0.7876 -0.0677  0.6181
10814TIP3   OH253856   0.299   2.520   2.215 -0.3449  0.0850  0.4216
10814TIP3    H153857   0.233   2.567   2.163  0.0459 -1.9627 -2.1098
10814TIP3    H253858   0.380   2.568   2.199  0.2168 -1.7242 -2.8154
10815TIP3   OH253859   0.253   1.224   2.601 -0.3469  0.3022  0.1077
10815TIP3    H153860   0.231   1.276   2.524 -0.8299  0.6443  0.4700
10815TIP3    H253861   0.340   1.189   2.583 -0.6287  0.0356 -0.7735
10816TIP3   OH253862   2.125   3.279  12.969 -0.0218 -0.4628 -0.7537
10816TIP3    H153863   2.146   3.372  12.958  0.2171 -0.3794  0.2979
10816TIP3    H253864   2.039   3.278  13.010 -0.4577 -0.7326 -1.6653
10817TIP3   OH253865   5.837   0.882  15.429 -0.2065 -0.2002 -0.0676
10817TIP3    H153866   5.892   0.810  15.460  0.2151  0.0902 -0.1414
10817TIP3    H253867   5.814   0.859  15.339 -0.8435 -0.6954  0.2118
10818TIP3   OH253868   3.052   1.065   3.980 -0.4390  0.4696 -0.1889
10818TIP3    H153869   3.030   0.973   3.964  3.5162 -0.8709  0.9319
10818TIP3    H253870   3.081   1.098   3.895 -0.5908  0.2535 -0.3250
10819TIP3   OH253871   0.151   6.554  10.904 -0.1805 -0.6504 -0.4475
10819TIP3    H153872   0.065   6.590  10.883 -0.5923 -2.0097 -1.1904
10819TIP3    H253873   0.213   6.616  10.865 -0.6794  1.4179  1.7403
10820TIP3   OH253874   3.172   3.708  11.423 -0.1903 -0.4699  0.0203
10820TIP3    H153875   3.092   3.739  11.465  0.7099  0.4593  1.1314
10820TIP3    H253876   3.164   3.736  11.331 -0.7170  0.4672  0.3416
10821TIP3   OH253877   0.824   3.855   5.851 -0.1088  0.0708 -0.4182
10821TIP3    H153878   0.751   3.803   5.887  1.6221 -1.6458  0.8170
10821TIP3    H253879   0.878   3.790   5.805  1.1690  1.1285 -0.4389
10822TIP3   OH253880   5.137   0.803  11.945  0.2650  0.4174  0.3609
10822TIP3    H153881   5.214   0.746  11.950 -0.0565 -0.0149  0.4178
10822TIP3    H253882   5.168   0.880  11.897  0.5695 -0.0392 -0.1942
10823TIP3   OH253883   2.955   0.096   4.108 -0.1548 -0.2728 -0.0550
10823TIP3    H153884   2.955   0.018   4.052 -1.1334 -0.5433  0.2871
10823TIP3    H253885   3.047   0.116   4.122  0.1305 -0.0769 -1.9212
10824TIP3   OH253886   0.915   3.639  11.013 -0.2943  0.4010  0.1167
10824TIP3    H153887   0.908   3.702  11.085 -0.1819 -1.4401  1.8183
10824TIP3    H253888   0.935   3.693  10.937  0.7072  2.3552  1.6561
10825TIP3   OH253889   0.911   0.143  14.881  0.0360 -0.3755  0.1673
10825TIP3    H153890   0.842   0.166  14.943 -0.9451 -2.8865  0.1292
10825TIP3    H253891   0.968   0.220  14.879 -0.3191  0.1221  3.5468
10826TIP3   OH253892   1.059   2.746   0.536  0.2616  0.0753  0.5377
10826TIP3    H153893   1.132   2.759   0.476  0.1148  1.4465  0.6135
10826TIP3    H253894   0.991   2.805   0.503 -0.0575  0.3499  1.6423
10827TIP3   OH253895   5.770   6.228  13.621 -0.5354  0.2325 -0.5323
10827TIP3    H153896   5.725   6.256  13.541  0.7757 -3.0891 -2.6577
10827TIP3    H253897   5.859   6.209  13.593  0.6254  1.0565  2.2797
10828TIP3   OH253898   6.668   1.052   2.366 -0.1173 -0.1622  0.6463
10828TIP3    H153899   6.636   1.116   2.302  0.6302 -0.2247  0.1983
10828TIP3    H253900   6.595   1.040   2.427 -1.2581 -0.8837 -0.7868
10829TIP3   OH253901   4.908   1.901  14.429 -0.5726  0.6558 -0.0434
10829TIP3    H153902   4.948   1.817  14.451  0.0731  0.5374 -1.5984
10829TIP3    H253903   4.978   1.965  14.442 -0.9902  0.9451  0.8898
10830TIP3   OH253904   3.807   0.622  17.295 -0.7528  0.0960 -0.2457
10830TIP3    H153905   3.794   0.546  17.350  4.3078 -1.5382 -0.7280
10830TIP3    H253906   3.807   0.588  17.205  1.8182  0.4499 -0.4587
10831TIP3   OH253907   1.927   2.924   1.766 -0.4600 -0.2359 -0.5535
10831TIP3    H153908   1.922   2.934   1.861  0.7951  0.0012 -0.5035
10831TIP3    H253909   2.006   2.872   1.751  0.6505  1.6355 -1.5813
10832TIP3   OH253910   2.339   1.850  14.175  0.0579  0.0706 -0.2333
10832TIP3    H153911   2.340   1.902  14.255 -0.3118 -3.0384  1.9867
10832TIP3    H253912   2.248   1.820  14.168  0.8960 -3.0184  0.6667
10833TIP3   OH253913   3.595   0.949   1.039  0.6822  0.5092  0.4266
10833TIP3    H153914   3.623   0.924   1.127 -0.2932 -0.8033  0.4026
10833TIP3    H253915   3.586   1.044   1.043  0.4423  0.4531  1.8208
10834TIP3   OH253916   6.443   4.528  16.906  0.3790 -0.2175 -0.5074
10834TIP3    H153917   6.405   4.453  16.953 -1.1464  0.0640 -1.2358
10834TIP3    H253918   6.452   4.497  16.816 -0.3966  0.5013 -0.8450
10835TIP3   OH253919   4.692   2.537   5.106  0.6499  0.1042 -0.0132
10835TIP3    H153920   4.737   2.598   5.046  0.7253  0.9443  0.8753
10835TIP3    H253921   4.643   2.479   5.048  1.7480  0.0670 -0.9550
10836TIP3   OH253922   2.746   6.047  11.508 -0.5108 -0.3279 -0.2167
10836TIP3    H153923   2.690   6.123  11.521 -2.8962 -1.6036 -2.2368
10836TIP3    H253924   2.763   6.045  11.414  0.6286 -1.5566 -0.0199
10837TIP3   OH253925   6.652   0.122  16.490 -0.1615 -0.0673 -0.2426
10837TIP3    H153926   6.583   0.098  16.428 -0.7737 -0.5793  0.6110
10837TIP3    H253927   6.608   0.127  16.574  0.5363  1.2472  0.0708
10838TIP3   OH253928   1.597   2.705  13.022  0.1839 -0.8075 -0.0187
10838TIP3    H153929   1.687   2.682  13.046  1.0272  0.9288 -1.2926
10838TIP3    H253930   1.563   2.627  12.978  0.6077 -1.9047  1.4900
10839TIP3   OH253931   2.186   1.918  13.939 -0.0682 -0.8505  0.0611
10839TIP3    H153932   2.271   1.917  13.895 -0.3489 -3.1964 -0.5597
10839TIP3    H253933   2.189   1.997  13.994  1.7526  0.1456 -1.3190
10840TIP3   OH253934   2.400   6.398  10.689  0.7341  0.0244 -0.0377
10840TIP3    H153935   2.452   6.343  10.630 -1.0980  1.1696 -2.9301
10840TIP3    H253936   2.427   6.487  10.669 -1.2837  0.5512 -0.5988
10841TIP3   OH253937   3.089   5.341  10.475  0.3392  0.0379  0.3349
10841TIP3    H153938   3.086   5.430  10.509  0.6175  0.2920 -0.2917
10841TIP3    H253939   3.182   5.327  10.455  0.4920 -0.8234  1.5532
10842TIP3   OH253940   4.092   2.066  11.687 -0.1010  0.1587  0.2512
10842TIP3    H153941   4.056   2.007  11.753  0.4777 -1.1583 -0.5634
10842TIP3    H253942   4.048   2.040  11.606  0.0501  0.9707 -0.0999
10843TIP3   OH253943   1.900   0.039  15.986  0.4296 -0.1850 -0.6779
10843TIP3    H153944   1.955   0.116  15.997 -0.6548  0.4704  0.3940
10843TIP3    H253945   1.822   0.071  15.939  0.2959 -0.7918 -0.8963
10844TIP3   OH253946   1.663   5.309   5.461  0.5208  0.0985  0.6271
10844TIP3    H153947   1.637   5.373   5.527 -1.4416  0.8257 -0.7605
10844TIP3    H253948   1.727   5.354   5.406  0.1100  0.4333  0.4214
10845TIP3   OH253949   3.210   2.886   0.618  0.0476  0.4043  0.3049
10845TIP3    H153950   3.199   2.814   0.680  1.1628 -0.3321 -0.3197
10845TIP3    H253951   3.223   2.844   0.534 -0.9886  1.3890 -0.3851
10846TIP3   OH253952   2.452   4.891   2.686 -0.0392 -0.4137 -0.0015
10846TIP3    H153953   2.524   4.834   2.714  1.4864  0.8294 -1.2127
10846TIP3    H253954   2.400   4.904   2.766  1.5404 -0.7074  1.1380
10847TIP3   OH253955   5.720   3.727  13.780 -0.0020 -0.1392 -0.0220
10847TIP3    H153956   5.702   3.807  13.730 -0.4484  0.3674  0.9173
10847TIP3    H253957   5.740   3.661  13.714 -2.1647  0.0842 -0.9807
10848TIP3   OH253958   6.504   2.923  14.613 -0.0345 -0.4325 -0.1386
10848TIP3    H153959   6.495   2.974  14.532 -2.3177  0.4043  0.5741
10848TIP3    H253960   6.575   2.967  14.660  1.1811 -0.7934 -1.5319
10849TIP3   OH253961   3.165   4.545  10.750 -0.2068 -0.0231 -0.2607
10849TIP3    H153962   3.075   4.516  10.770 -1.5706  1.6390 -3.3334
10849TIP3    H253963   3.187   4.604  10.822 -2.0962  0.4607 -0.0070
10850TIP3   OH253964   1.137   0.845   4.753 -0.1488  0.6185  0.5085
10850TIP3    H153965   1.198   0.788   4.798 -0.4084  0.0069  0.0951
10850TIP3    H253966   1.192   0.908   4.706  0.1317  2.2077  2.7942
10851TIP3   OH253967   2.385   0.142  14.447  0.7171 -0.2114  0.1264
10851TIP3    H153968   2.361   0.078  14.514  1.4789 -1.2632 -0.5845
10851TIP3    H253969   2.480   0.143  14.447  0.7650 -0.9629 -1.5952
10852TIP3   OH253970   2.279   0.580   0.101 -0.2887  0.5710 -0.0538
10852TIP3    H153971   2.247   0.553   0.187 -1.0225 -2.1969 -1.0953
10852TIP3    H253972   2.373   0.563   0.103 -0.0873  1.6288  0.5283
10853TIP3   OH253973   4.543   0.177  16.558 -0.0253  0.5316 -0.0217
10853TIP3    H153974   4.550   0.191  16.653  1.4993  0.7049 -0.1366
10853TIP3    H253975   4.485   0.247  16.529 -0.1571  0.7522  0.7304
10854TIP3   OH253976   2.947   4.754  11.465  0.1537 -0.3779 -0.4478
10854TIP3    H153977   3.027   4.715  11.429  0.0177  0.5070 -1.7551
10854TIP3    H253978   2.978   4.820  11.527  0.4075 -0.8838 -0.0235
10855TIP3   OH253979   0.258   2.935   2.615 -0.2476  0.0452 -0.2253
10855TIP3    H153980   0.285   2.855   2.570 -0.1772 -1.5237  2.3742
10855TIP3    H253981   0.327   2.999   2.594  2.6833 -2.1878  1.7375
10856TIP3   OH253982   5.727   1.319   2.827  0.0343  0.0196  0.0578
10856TIP3    H153983   5.634   1.332   2.810 -0.3919 -2.4643  0.1746
10856TIP3    H253984   5.734   1.230   2.859  2.3428  0.5298  1.2116
10857TIP3   OH253985   5.941   5.680   5.858  0.7654  0.4593 -0.0651
10857TIP3    H153986   5.862   5.629   5.839  2.0794 -2.1513  0.9755
10857TIP3    H253987   5.909   5.756   5.906 -1.1815 -0.2125 -0.1959
10858TIP3   OH253988   3.093   0.640   3.359  0.2096 -0.1414 -0.1579
10858TIP3    H153989   3.167   0.580   3.365  0.8571  0.7266  0.5711
10858TIP3    H253990   3.098   0.694   3.438  1.9602  3.5550 -2.5238
10859TIP3   OH253991   2.473   3.261  15.797  0.2791  0.4332 -0.2814
10859TIP3    H153992   2.560   3.220  15.805  1.0923  1.4151 -2.8921
10859TIP3    H253993   2.477   3.338  15.853  0.0414 -0.9703  1.7827
10860TIP3   OH253994   4.602   3.299   0.800  0.0069 -0.1739  0.2384
10860TIP3    H153995   4.616   3.314   0.894  0.0811 -0.4304  0.2699
10860TIP3    H253996   4.689   3.303   0.762  0.0809 -0.8935  0.3049
10861TIP3   OH253997   5.978   3.327   5.091 -0.1373  0.5920 -0.8156
10861TIP3    H153998   5.889   3.323   5.126 -0.0164  1.7720 -0.3308
10861TIP3    H253999   5.999   3.236   5.069 -0.6126 -0.0535  1.2081
10862TIP3   OH254000   4.863   1.435  14.553 -0.1342  0.6178  0.7340
10862TIP3    H154001   4.898   1.411  14.639 -1.2981  0.5880  1.2139
10862TIP3    H254002   4.768   1.431  14.564 -0.3097 -0.9394 -0.9895
10863TIP3   OH254003   1.430   6.769   4.938  0.5212  0.0932 -0.0414
10863TIP3    H154004   1.391   6.830   4.876  1.9794  1.9845  0.7998
10863TIP3    H254005   1.368   6.767   5.011 -2.0500 -3.4091 -2.0093
10864TIP3   OH254006   3.590   4.799   4.188 -0.1024 -0.1919 -0.0522
10864TIP3    H154007   3.638   4.866   4.139  3.8248 -1.9462  0.9657
10864TIP3    H254008   3.569   4.731   4.124  2.7730 -1.3243  0.0517
10865TIP3   OH254009   3.234   6.179   3.355  0.4295  0.0172 -0.1086
10865TIP3    H154010   3.188   6.209   3.277  0.9316  2.2101  0.3702
10865TIP3    H254011   3.298   6.116   3.323 -0.3967 -0.2673 -1.2456
10866TIP3   OH254012   5.150   0.986  15.176 -0.1637 -0.0959 -0.4999
10866TIP3    H154013   5.097   1.043  15.119 -0.1775 -0.6111 -1.0117
10866TIP3    H254014   5.088   0.922  15.210 -0.6196  1.5031  1.8867
10867TIP3   OH254015   2.475   1.980   2.191 -0.5250  0.2407 -0.2572
10867TIP3    H154016   2.548   1.952   2.246 -1.7002 -0.3890  1.0436
10867TIP3    H254017   2.437   1.899   2.159 -1.3791  0.5141  0.0496
10868TIP3   OH254018   0.979   0.600  14.943  0.0353  0.1628  0.3872
10868TIP3    H154019   1.012   0.682  14.905  1.1213 -1.2159 -1.8415
10868TIP3    H254020   1.019   0.596  15.030  0.6433  1.5866  0.1985
10869TIP3   OH254021   2.913   0.912   2.906 -0.2599  0.2298  0.0093
10869TIP3    H154022   2.849   0.937   2.972  0.6542  0.7244  0.7273
10869TIP3    H254023   2.862   0.902   2.825 -1.0986  1.4897  0.3631
10870TIP3   OH254024   4.729   1.862   3.160 -0.5595  0.0050 -0.3586
10870TIP3    H154025   4.763   1.804   3.229  0.9428 -1.7328 -2.4055
10870TIP3    H254026   4.804   1.917   3.136 -0.7968 -0.0251 -1.1887
10871TIP3   OH254027   1.579   6.048   0.043 -0.6035  0.2022  0.9651
10871TIP3    H154028   1.529   6.036   0.124 -1.9985 -1.7045 -0.0860
10871TIP3    H254029   1.517   6.090  -0.017  0.1782  0.9227  0.6396
10872TIP3   OH254030   0.074   1.886  16.773  0.3022 -0.1325 -0.0095
10872TIP3    H154031   0.142   1.875  16.840 -1.4276  0.6647  2.0043
10872TIP3    H254032   0.020   1.807  16.781 -0.6469  0.5417  0.4934
10873TIP3   OH254033   2.400   3.646  16.634  0.0453  0.0647  0.2592
10873TIP3    H154034   2.494   3.661  16.640  0.1801 -1.0978  1.4928
10873TIP3    H254035   2.362   3.704  16.700 -0.1131  0.4771 -0.1851
10874TIP3   OH254036   6.612   2.625  12.796  0.0432  0.2887  0.7813
10874TIP3    H154037   6.587   2.543  12.755  1.8835  0.5876 -1.0851
10874TIP3    H254038   6.598   2.691  12.728  3.1088  0.8080  0.5008
10875TIP3   OH254039   3.410   6.728  10.936  0.4050 -0.4221  0.0397
10875TIP3    H154040   3.439   6.819  10.926  0.3951 -0.3707  0.4640
10875TIP3    H254041   3.426   6.688  10.851  0.7404 -0.1171 -0.0403
10876TIP3   OH254042   5.374   2.423   0.895  0.4063  0.3820 -0.2624
10876TIP3    H154043   5.279   2.430   0.902  0.4819  1.4344 -0.0514
10876TIP3    H254044   5.400   2.366   0.967 -0.0564  0.1509 -0.2787
10877TIP3   OH254045   5.539   2.028   5.569  0.3137 -0.3837  0.4099
10877TIP3    H154046   5.618   1.974   5.570  1.2078  0.8871  0.9150
10877TIP3    H254047   5.561   2.101   5.511 -0.2207  0.3485  1.1015
10878TIP3   OH254048   5.732   3.492  11.686  0.4580  0.5712  1.1137
10878TIP3    H154049   5.788   3.446  11.749  0.6991 -0.3550  0.2382
10878TIP3    H254050   5.660   3.431  11.670  1.0550  0.2381 -0.4623
10879TIP3   OH254051   0.907   3.149   6.184 -0.1817  0.7027 -0.5767
10879TIP3    H154052   0.814   3.166   6.171 -0.7387 -0.0778  1.8098
10879TIP3    H254053   0.949   3.234   6.171 -1.2754  1.1556 -1.2743
10880TIP3   OH254054   4.414   6.754  12.987  0.4516  0.3115 -0.4008
10880TIP3    H154055   4.406   6.773  13.080 -0.0723  0.9866 -0.5789
10880TIP3    H254056   4.331   6.712  12.963  0.7296 -0.1988 -0.4890
10881TIP3   OH254057   3.833   1.627  11.064 -0.1209 -0.1463 -0.5064
10881TIP3    H154058   3.751   1.590  11.098 -0.6536  0.3047 -1.2967
10881TIP3    H254059   3.822   1.627  10.969  1.3012 -1.2502 -0.7087
10882TIP3   OH254060   2.950   4.622  16.907 -0.2685  0.6972  0.2674
10882TIP3    H154061   2.892   4.597  16.835 -0.8319 -0.9454  1.2314
10882TIP3    H254062   2.924   4.712  16.929 -3.0009 -0.1974  1.0998
10883TIP3   OH254063   2.834   2.654   0.167  0.0190 -0.7626 -0.3717
10883TIP3    H154064   2.821   2.593   0.240  0.7767 -0.5233 -0.0273
10883TIP3    H254065   2.747   2.690   0.150 -0.1939 -0.9470  0.3004
10884TIP3   OH254066   4.905   1.929   1.010 -0.6689 -0.6275  0.9292
10884TIP3    H154067   4.994   1.896   1.009 -0.2741  0.3886  0.4538
10884TIP3    H254068   4.861   1.883   0.939  0.5247  1.4623 -1.3161
10885TIP3   OH254069   0.091   0.647   5.567  0.0934 -0.4412 -0.6342
10885TIP3    H154070   0.145   0.636   5.645  2.2221 -0.6838 -2.0649
10885TIP3    H254071   0.153   0.654   5.495 -1.8023 -2.0405 -2.5764
10886TIP3   OH254072   5.815   5.057  13.168  0.3848 -0.4154 -0.2808
10886TIP3    H154073   5.862   5.114  13.230 -2.1980  1.1367  0.4039
10886TIP3    H254074   5.825   5.101  13.084  2.7429 -1.8055 -0.8143
10887TIP3   OH254075   4.897   3.625  16.194 -0.0479  0.0772 -0.2393
10887TIP3    H154076   4.834   3.555  16.212  0.1556 -0.3985 -1.2851
10887TIP3    H254077   4.963   3.584  16.139  0.1165  1.0735 -0.8055
10888TIP3   OH254078   2.888   4.784  11.962  0.0844 -0.3960  0.7776
10888TIP3    H154079   2.840   4.842  12.020 -0.5701  0.5143 -0.6215
10888TIP3    H254080   2.826   4.765  11.891  1.5961  0.3585 -0.7932
10889TIP3   OH254081   0.647   5.714   1.796  0.4277  0.5551 -0.5762
10889TIP3    H154082   0.651   5.782   1.864  2.2562  0.4148 -0.5025
10889TIP3    H254083   0.721   5.656   1.815 -1.4513 -1.9223 -0.2046
10890TIP3   OH254084   0.776   0.528   1.939 -0.2725  0.2670 -0.2611
10890TIP3    H154085   0.742   0.604   1.891  0.2172  1.2574  0.9156
10890TIP3    H254086   0.868   0.549   1.954  0.4455 -1.5351 -1.7509
10891TIP3   OH254087   6.107   1.060   3.487  0.1697  0.0209  0.0818
10891TIP3    H154088   6.083   1.063   3.580 -1.5386  1.1804 -0.3445
10891TIP3    H254089   6.031   1.022   3.443  1.7520 -2.5171 -0.6881
10892TIP3   OH254090   3.503   3.197   3.366  0.0897  0.1509  0.2860
10892TIP3    H154091   3.566   3.249   3.416  0.2970 -0.8747  1.1232
10892TIP3    H254092   3.460   3.142   3.431 -0.4113 -0.4431 -0.5277
10893TIP3   OH254093   6.161   3.440  11.269 -0.1867  0.5404  0.5486
10893TIP3    H154094   6.122   3.527  11.268  0.1373  0.6862 -0.1381
10893TIP3    H254095   6.110   3.391  11.205 -0.7323  0.0513  1.3379
10894TIP3   OH254096   5.854   5.799   2.423  0.0799  0.1422 -0.9365
10894TIP3    H154097   5.825   5.779   2.512  1.6842 -0.3048 -0.4821
10894TIP3    H254098   5.845   5.894   2.416 -0.3382  0.1444 -0.3936
10895TIP3   OH254099   2.949   6.756   2.938 -0.0166 -0.0015 -0.2755
10895TIP3    H154100   2.990   6.795   2.861  2.9162 -0.9471  0.6610
10895TIP3    H254101   2.868   6.806   2.951  0.8353  2.0392 -2.2900
10896TIP3   OH254102   5.074   1.600  14.521 -0.0426  0.4451 -0.4833
10896TIP3    H154103   4.998   1.547  14.545  0.1750  0.0302 -0.7144
10896TIP3    H254104   5.092   1.653  14.598  1.4813 -1.8059  0.8014
10897TIP3   OH254105   2.761   5.100   6.623  0.0390 -0.2892  0.3994
10897TIP3    H154106   2.688   5.160   6.636 -2.5288 -3.2080  0.6831
10897TIP3    H254107   2.723   5.013   6.637  3.1105 -2.1178 -1.5154
10898TIP3   OH254108   5.950   0.603  12.291  0.0198 -0.6534 -0.2625
10898TIP3    H154109   5.921   0.694  12.299  0.7832  0.1571 -4.4702
10898TIP3    H254110   5.875   0.557  12.254  0.4071 -1.1937 -0.3935
10899TIP3   OH254111   5.399   6.219   2.300  0.3416  0.1693  0.1368
10899TIP3    H154112   5.342   6.271   2.243 -0.0895 -0.8971 -0.4275
10899TIP3    H254113   5.350   6.139   2.316  2.0439 -1.1682 -1.0895
10900TIP3   OH254114   5.539   0.126   3.011  0.4590 -0.2439 -0.4288
10900TIP3    H154115   5.561   0.217   2.988  2.0342 -0.1890  1.0376
10900TIP3    H254116   5.621   0.091   3.046 -0.5367 -1.7603  0.4562
10901TIP3   OH254117   4.000   0.826   1.171 -0.0326 -0.4758 -0.1619
10901TIP3    H154118   3.975   0.753   1.114 -0.5211 -0.2951 -0.1850
10901TIP3    H254119   4.088   0.850   1.142  0.8150 -2.0972  0.9164
10902TIP3   OH254120   2.363   2.462  11.791  0.3042 -0.2036  0.6066
10902TIP3    H154121   2.369   2.430  11.881  1.4153 -0.5197  0.4332
10902TIP3    H254122   2.342   2.555  11.800  0.9204 -0.1143  1.2227
10903TIP3   OH254123   0.027   3.533   4.207 -0.2865 -0.0596  0.6815
10903TIP3    H154124   0.016   3.498   4.119  1.0721  0.6580  0.1941
10903TIP3    H254125  -0.062   3.545   4.240 -0.9905  2.5939 -1.7774
10904TIP3   OH254126   4.205   0.855  17.282 -0.0679  0.0202 -0.1728
10904TIP3    H154127   4.281   0.883  17.230 -0.0874 -0.0173 -0.2224
10904TIP3    H254128   4.243   0.809  17.357 -0.0142  0.8228  0.3004
10905TIP3   OH254129   2.745   2.687   1.089 -0.3665  0.1011 -0.8762
10905TIP3    H154130   2.789   2.703   1.172  0.4613  0.1532 -1.3103
10905TIP3    H254131   2.734   2.593   1.085 -1.8661  0.2133  0.0049
10906TIP3   OH254132   5.529   0.909   3.997 -0.1349  0.2997 -0.5113
10906TIP3    H154133   5.439   0.882   3.982 -0.2805  0.4684  0.0252
10906TIP3    H254134   5.529   0.943   4.086  0.7470 -0.9040 -0.0250
10907TIP3   OH254135   3.712   2.986  15.544 -0.0256  0.6275 -0.0137
10907TIP3    H154136   3.709   2.943  15.458  0.1197 -0.2490  0.4086
10907TIP3    H254137   3.627   2.965  15.584  0.8354 -1.0624  1.0276
10908TIP3   OH254138   2.588   6.402  16.030 -0.3626  0.0104  0.4973
10908TIP3    H154139   2.647   6.416  15.956 -1.0930 -1.2314 -0.3740
10908TIP3    H254140   2.538   6.323  16.006  0.5840 -1.5154  3.0885
10909TIP3   OH254141   5.178   5.999  14.709 -0.9196 -0.5237 -0.4897
10909TIP3    H154142   5.270   5.988  14.730 -0.3034 -1.5070 -3.2338
10909TIP3    H254143   5.173   6.084  14.665 -1.2043 -0.6791 -0.7664
10910TIP3   OH254144   1.989   1.128   6.195 -0.4785  0.0326 -0.4290
10910TIP3    H154145   1.947   1.208   6.163 -0.2502  0.3419  0.0289
10910TIP3    H254146   1.957   1.059   6.137 -1.1900  0.3492 -0.4256
10911TIP3   OH254147   3.064   3.793  14.203 -0.0098 -0.3298 -0.1537
10911TIP3    H154148   3.098   3.880  14.184 -0.1566 -0.4608 -1.0701
10911TIP3    H254149   3.138   3.734  14.188  0.8398 -0.1829  2.9046
10912TIP3   OH254150   0.656   5.671  13.987 -0.2797  0.0519 -0.4390
10912TIP3    H154151   0.725   5.737  13.985 -2.1638  2.2028  0.8273
10912TIP3    H254152   0.627   5.663  13.896 -0.1384  1.1134 -0.5879
10913TIP3   OH254153   4.014   5.485   1.288  0.4550  0.3505 -0.6270
10913TIP3    H154154   3.988   5.404   1.244  1.9177 -1.3484  1.3928
10913TIP3    H254155   3.983   5.474   1.378  0.1975  2.3304 -0.4361
10914TIP3   OH254156   1.752   2.728  10.550 -0.0658  0.3179  0.2584
10914TIP3    H154157   1.806   2.665  10.503  0.1650  1.0345 -0.4575
10914TIP3    H254158   1.732   2.796  10.486  1.0153  1.7960  1.4033
10915TIP3   OH254159   6.226   5.503   4.318  0.0785  0.2959  0.2153
10915TIP3    H154160   6.146   5.461   4.289  0.3811  0.3702 -0.7765
10915TIP3    H254161   6.292   5.434   4.315  0.4710  0.6870 -0.9487
10916TIP3   OH254162   1.747   0.198   2.350 -0.6292  0.4844 -0.0121
10916TIP3    H154163   1.688   0.212   2.424 -3.3672 -1.5795 -1.6374
10916TIP3    H254164   1.691   0.205   2.272  1.6020  0.0079 -1.7698
10917TIP3   OH254165   5.319   6.054  14.021  0.3053  0.2232  0.1094
10917TIP3    H154166   5.313   6.148  14.037 -0.3415  0.2243 -0.1315
10917TIP3    H254167   5.319   6.046  13.926 -1.6225 -0.1211  0.0902
10918TIP3   OH254168   1.733   4.044  12.621 -0.2230 -0.0066  0.1704
10918TIP3    H154169   1.797   4.051  12.693  0.9040  1.7951 -0.9045
10918TIP3    H254170   1.660   4.099  12.650 -1.7994 -2.7612  1.7896
10919TIP3   OH254171   1.002   1.642  12.307 -0.0944 -0.3732 -0.1524
10919TIP3    H154172   1.060   1.705  12.263 -0.8221  0.0784 -0.4748
10919TIP3    H254173   0.932   1.626  12.245  0.0605 -1.4922 -0.0519
10920TIP3   OH254174   2.568   0.488  13.872  0.2019  0.1589  0.7684
10920TIP3    H154175   2.568   0.417  13.937  2.3210 -0.9782 -0.3903
10920TIP3    H254176   2.540   0.446  13.791  0.9979  0.7549  0.1751
10921TIP3   OH254177   2.469   6.290   0.982  0.5470 -0.5754 -0.1276
10921TIP3    H154178   2.428   6.338   0.910  0.7089 -0.6175 -0.2481
10921TIP3    H254179   2.464   6.350   1.056  0.3311 -0.5534 -0.1599
10922TIP3   OH254180   4.512   0.695  14.553 -0.3425  0.3698 -0.3172
10922TIP3    H154181   4.556   0.613  14.533  0.0059  0.8295 -1.4723
10922TIP3    H254182   4.578   0.746  14.601 -0.2318  0.3643 -0.4648
10923TIP3   OH254183   4.210   1.608   5.735 -0.0370 -0.5400 -0.0304
10923TIP3    H154184   4.129   1.561   5.753 -1.3979  0.0044 -3.7670
10923TIP3    H254185   4.184   1.700   5.729  1.0537 -0.2294 -0.2754
10924TIP3   OH254186   2.624   6.469   2.516  0.1669 -0.0023 -0.0584
10924TIP3    H154187   2.667   6.418   2.584 -0.1003  0.8218  0.7565
10924TIP3    H254188   2.532   6.444   2.522 -0.0005  0.6805  0.4799
10925TIP3   OH254189   2.721   3.834   5.605  0.6643  0.8138 -0.2648
10925TIP3    H154190   2.747   3.911   5.554 -0.2251  1.2976 -0.0105
10925TIP3    H254191   2.655   3.868   5.666  0.4409 -0.1100  0.0130
10926TIP3   OH254192   1.316   5.051   5.284 -0.2875 -0.2906 -0.0278
10926TIP3    H154193   1.373   5.071   5.358 -1.7363 -0.5759  1.2129
10926TIP3    H254194   1.238   5.104   5.300 -1.5666 -2.0763 -0.0906
10927TIP3   OH254195   1.455   0.897   1.619 -0.4254 -0.0448 -0.1767
10927TIP3    H154196   1.363   0.881   1.637 -0.6263 -0.2405 -1.3086
10927TIP3    H254197   1.456   0.958   1.545  0.3425 -0.5566 -0.6091
10928TIP3   OH254198   1.403   3.910   0.350  0.1153 -0.2739  0.1294
10928TIP3    H154199   1.496   3.888   0.353 -0.0899 -1.1491  0.0990
10928TIP3    H254200   1.378   3.896   0.259  0.1009  0.6124 -0.0137
10929TIP3   OH254201   3.415   6.479   0.841 -0.6712  0.1239  0.3974
10929TIP3    H154202   3.327   6.442   0.849 -0.4657 -0.4718  0.0060
10929TIP3    H254203   3.422   6.506   0.750 -0.6016  0.5874  0.5365
10930TIP3   OH254204   3.334   6.273  13.437 -0.0193  0.0099 -0.3686
10930TIP3    H154205   3.364   6.331  13.367  0.1440  0.1315 -0.1968
10930TIP3    H254206   3.414   6.238  13.475 -0.1049  0.0654 -0.1377
10931TIP3   OH254207   2.244   3.001   5.268  0.3139  0.3060 -1.0224
10931TIP3    H154208   2.331   3.028   5.237  1.0702 -0.4554  0.3786
10931TIP3    H254209   2.209   3.079   5.312  0.6511  0.3502 -0.8317
10932TIP3   OH254210   5.462   3.634   2.535  0.3647  0.7095  0.0272
10932TIP3    H154211   5.545   3.680   2.524  0.3824  0.6008 -0.3154
10932TIP3    H254212   5.457   3.575   2.460  1.2369 -1.2814  1.4672
10933TIP3   OH254213   1.213   3.830  13.211  0.1605  0.6772  0.3419
10933TIP3    H154214   1.150   3.875  13.155  0.8713  0.8543 -0.3429
10933TIP3    H254215   1.207   3.875  13.295  0.0282  1.2864  0.0124
10934TIP3   OH254216   6.223   4.049   3.950  0.0674  0.1160 -0.0105
10934TIP3    H154217   6.287   4.071   3.882  1.7173 -0.8280  1.1375
10934TIP3    H254218   6.189   3.963   3.925 -0.9933  0.7335 -0.7593
10935TIP3   OH254219   1.614   6.331  13.057  0.3142  0.2129 -0.1319
10935TIP3    H154220   1.612   6.261  12.993  2.8137 -0.3757  0.3487
10935TIP3    H254221   1.671   6.299  13.127  0.5478  2.2373  0.6832
10936TIP3   OH254222   0.899   4.713  15.433  0.2595 -0.0477  0.2438
10936TIP3    H154223   0.875   4.738  15.522  3.3522 -1.1192  1.5143
10936TIP3    H254224   0.957   4.783  15.403 -1.9305  1.1054 -1.6642
10937TIP3   OH254225   3.060   5.654   3.018 -0.6492 -0.3771  0.2262
10937TIP3    H154226   3.093   5.669   2.929 -0.1106 -1.3107  0.2534
10937TIP3    H254227   2.981   5.602   3.006  0.0600 -1.5245  0.3179
10938TIP3   OH254228   4.604   5.058   4.994  0.1187  0.2806 -0.2325
10938TIP3    H154229   4.676   5.023   4.942 -0.4170  0.6074 -1.2137
10938TIP3    H254230   4.574   4.984   5.047  0.2551 -0.2301 -0.8636
10939TIP3   OH254231   5.774   2.994   0.071  0.5216 -0.5349 -0.0834
10939TIP3    H154232   5.751   3.027   0.158 -0.8138 -1.5912  0.0085
10939TIP3    H254233   5.791   3.072   0.019 -1.2812  0.2630  0.4517
10940TIP3   OH254234   5.264   6.592  13.855 -0.2040  0.0529 -0.6466
10940TIP3    H154235   5.265   6.685  13.876  1.1263 -0.0380 -0.2336
10940TIP3    H254236   5.276   6.548  13.939 -3.4975 -0.6427 -0.3799
10941TIP3   OH254237   4.088   5.055  14.087 -0.2538 -0.3226 -0.6083
10941TIP3    H154238   4.023   5.021  14.148  0.3616 -0.2375  0.1127
10941TIP3    H254239   4.165   5.071  14.141  0.2649 -0.1274 -1.3926
10942TIP3   OH254240   4.792   3.521  15.237 -0.9078  0.3015 -0.0117
10942TIP3    H154241   4.817   3.583  15.305  0.8071 -1.1611  0.7940
10942TIP3    H254242   4.759   3.445  15.286  1.5884 -1.3070 -0.6287
10943TIP3   OH254243   2.552   0.611   2.147 -0.5742  0.0519 -0.6734
10943TIP3    H154244   2.607   0.563   2.209 -1.3286  0.9091  0.7175
10943TIP3    H254245   2.604   0.688   2.123  0.5088 -1.2128 -2.6661
10944TIP3   OH254246   0.978   2.296   6.335  0.0374 -0.1281 -0.2371
10944TIP3    H154247   1.065   2.334   6.346 -0.6688  1.3263  0.7176
10944TIP3    H254248   0.948   2.278   6.424 -0.1472 -1.8671 -0.6118
10945TIP3   OH254249   6.086   1.341   2.408  0.1618  0.0587 -0.2675
10945TIP3    H154250   6.021   1.303   2.349  0.9844 -0.8452 -0.6222
10945TIP3    H254251   6.036   1.367   2.485 -0.3500 -2.8364  0.5033
10946TIP3   OH254252   6.389   5.082  15.939  0.0938  0.2997  0.1259
10946TIP3    H154253   6.403   5.164  15.891  1.4751 -0.1450 -0.2781
10946TIP3    H254254   6.452   5.084  16.010 -0.4626 -0.0324  0.6404
10947TIP3   OH254255   2.741   3.867   1.221  0.1530  0.0381 -0.6197
10947TIP3    H154256   2.686   3.917   1.283 -1.2175  0.3543 -2.0153
10947TIP3    H254257   2.789   3.934   1.173  1.2511 -0.2101  0.1134
10948TIP3   OH254258   1.518   6.380   5.941  0.2679 -0.1329 -0.1295
10948TIP3    H154259   1.460   6.323   5.890 -0.0329  0.8937 -0.9701
10948TIP3    H254260   1.482   6.376   6.030 -2.1648  1.7147 -0.9177
10949TIP3   OH254261   4.574   6.370  16.274  0.4436  0.5982 -0.1647
10949TIP3    H154262   4.595   6.339  16.186  1.2668  2.4704 -0.6803
10949TIP3    H254263   4.650   6.423  16.300  0.3753 -0.1765  1.8318
10950TIP3   OH254264   0.108   1.587  16.416  0.6410 -0.1413  0.0130
10950TIP3    H154265   0.153   1.513  16.457 -1.2490 -2.0836 -1.1793
10950TIP3    H254266   0.076   1.552  16.332 -1.2206  1.7066 -0.1277
10951TIP3   OH254267   5.847   5.398  14.532  0.8103  0.0441  0.2622
10951TIP3    H154268   5.811   5.470  14.584  0.5029  0.5807 -0.6741
10951TIP3    H254269   5.936   5.425  14.513  1.0797 -0.3664  0.8703
10952TIP3   OH254270   1.521   2.537  10.637  0.1040 -0.1085  0.3229
10952TIP3    H154271   1.521   2.460  10.694  0.1663  0.4867  1.1443
10952TIP3    H254272   1.430   2.568  10.639 -0.2198 -0.9075 -1.0584
10953TIP3   OH254273   6.666   6.718   2.530  0.2369 -0.2347  0.2579
10953TIP3    H154274   6.682   6.740   2.439  2.4400  0.7080  0.8060
10953TIP3    H254275   6.616   6.793   2.564  0.1727 -0.1831  0.0524
10954TIP3   OH254276   4.935   0.536   5.986 -0.2243 -0.0391 -0.0253
10954TIP3    H154277   4.864   0.565   6.044 -0.1361  1.1170 -0.4755
10954TIP3    H254278   5.005   0.509   6.045 -0.7925 -0.6045  0.4136
10955TIP3   OH254279   1.603   0.265   2.576  0.7276  0.1218  0.4615
10955TIP3    H154280   1.530   0.212   2.543  0.3712  0.5340  0.5737
10955TIP3    H254281   1.567   0.311   2.652  1.3203 -0.2301  0.9628
10956TIP3   OH254282   4.547   0.998   4.705 -0.1099 -0.0913 -0.0950
10956TIP3    H154283   4.484   0.967   4.640 -0.1833 -0.1902  0.0220
10956TIP3    H254284   4.574   1.084   4.673  0.6046 -0.5599 -0.7751
10957TIP3   OH254285   3.934   2.458   3.771 -0.0183  0.5057 -0.1283
10957TIP3    H154286   3.864   2.507   3.814  0.5537  1.7171 -0.5360
10957TIP3    H254287   3.906   2.451   3.680  0.2001  0.6301 -0.2053
10958TIP3   OH254288   5.639   1.119  12.640  0.5905  0.2923 -0.4636
10958TIP3    H154289   5.587   1.088  12.715  0.3392 -0.9087 -1.1092
10958TIP3    H254290   5.672   1.204  12.668 -0.7051  0.5301  0.4544
10959TIP3   OH254291   3.867   3.583   3.370  0.5852  0.3915 -0.3434
10959TIP3    H154292   3.901   3.579   3.459  1.5186 -2.8960 -0.7219
10959TIP3    H254293   3.933   3.634   3.322  0.5746  1.3370  0.6165
10960TIP3   OH254294   3.676   4.396   1.267 -0.2948 -0.4087 -0.2999
10960TIP3    H154295   3.634   4.325   1.316  0.8798 -0.1273  1.1633
10960TIP3    H254296   3.609   4.464   1.262 -0.8679 -0.9579 -0.2613
10961TIP3   OH254297   4.529   6.205  10.271  0.5045  0.1770 -0.3841
10961TIP3    H154298   4.622   6.221  10.254  0.9239 -2.3174 -0.9472
10961TIP3    H254299   4.484   6.242  10.195  1.0915  0.7766 -0.4504
10962TIP3   OH254300   4.936   0.904  12.434 -0.5242 -0.0523  0.3007
10962TIP3    H154301   4.946   0.853  12.354 -0.9417 -2.7225  1.8257
10962TIP3    H254302   4.888   0.847  12.493  2.0719  0.6797  3.3971
10963TIP3   OH254303   1.590   0.287  12.221 -0.4214  0.4396 -0.0215
10963TIP3    H154304   1.643   0.234  12.280 -2.0906  1.1583  2.3115
10963TIP3    H254305   1.499   0.266  12.245 -1.1404  2.4516 -0.7485
10964TIP3   OH254306   0.875   6.098  12.105 -0.3066  0.1850 -0.3307
10964TIP3    H154307   0.955   6.129  12.061  0.3041  0.3877  0.9017
10964TIP3    H254308   0.900   6.015  12.145 -0.3314  0.8530  1.1191
10965TIP3   OH254309   1.333   6.377   1.656  0.0374  0.4788 -0.1709
10965TIP3    H154310   1.297   6.309   1.599  0.3032  0.8963 -0.8520
10965TIP3    H254311   1.395   6.330   1.713 -0.3584  0.0299 -0.1078
10966TIP3   OH254312   0.146   5.777   0.879  0.2935  0.5926 -0.0578
10966TIP3    H154313   0.139   5.868   0.907 -0.1237  0.2535  0.9795
10966TIP3    H254314   0.056   5.745   0.879  0.4613  0.1133 -0.1955
10967TIP3   OH254315   3.137   2.468  15.595  0.1973  0.8023  0.1203
10967TIP3    H154316   3.066   2.474  15.531  0.5772  0.0434 -0.3900
10967TIP3    H254317   3.204   2.415  15.552  0.2489 -0.1782  1.3342
10968TIP3   OH254318   6.290   4.351  16.340  0.6274 -0.4840  0.4352
10968TIP3    H154319   6.268   4.258  16.354  2.5487 -0.8634  1.2381
10968TIP3    H254320   6.380   4.350  16.308  0.0134  1.0416 -1.5902
10969TIP3   OH254321   6.091   0.371  12.971 -0.6414  0.0176 -0.2772
10969TIP3    H154322   6.122   0.420  13.047 -2.5169 -0.8447  1.1319
10969TIP3    H254323   6.170   0.355  12.919  0.6718  0.8499  1.3621
10970TIP3   OH254324   4.701   0.435  13.254  0.0084  0.1964  0.2364
10970TIP3    H154325   4.741   0.351  13.275  1.2696  0.1017 -2.1309
10970TIP3    H254326   4.736   0.495  13.320  1.3099 -0.6115  0.3209
10971TIP3   OH254327   4.973   0.918   1.446 -0.0651  0.1218 -0.2095
10971TIP3    H154328   4.978   1.012   1.466  0.4265  0.3775 -1.4058
10971TIP3    H254329   5.064   0.889   1.441 -0.2197 -0.8811  2.0058
10972TIP3   OH254330   2.857   5.564   3.449 -0.0993  0.2939  0.6748
10972TIP3    H154331   2.875   5.654   3.475 -1.4283  0.6787  0.3712
10972TIP3    H254332   2.774   5.543   3.493 -0.8249 -0.0788 -0.8050
10973TIP3   OH254333   5.253   6.283  12.768 -0.3699  1.0838 -0.1095
10973TIP3    H154334   5.333   6.275  12.819 -0.7195 -0.2110  0.2898
10973TIP3    H254335   5.248   6.375  12.744  0.3966  1.4990  1.2320
10974TIP3   OH254336   4.528   2.334  16.108  0.0623 -0.2477  0.3099
10974TIP3    H154337   4.435   2.309  16.106 -0.7025  2.2210  1.1097
10974TIP3    H254338   4.556   2.331  16.017 -0.5726 -1.7439  0.1442
10975TIP3   OH254339   0.896   2.251  14.281 -0.3469  0.2111  0.4871
10975TIP3    H154340   0.835   2.290  14.218  1.2295  1.9853 -0.0591
10975TIP3    H254341   0.842   2.193  14.334 -2.0311 -0.2095 -1.5297
10976TIP3   OH254342   5.017   5.602  14.197  0.1065  0.0722  0.2211
10976TIP3    H154343   4.938   5.573  14.152 -0.0738 -0.8582  1.0982
10976TIP3    H254344   5.014   5.698  14.190 -1.5447  0.1184  0.9366
10977TIP3   OH254345   3.380   2.027  15.687 -0.1101 -0.4720  0.2952
10977TIP3    H154346   3.313   2.094  15.698  0.1175 -0.2374  0.2526
10977TIP3    H254347   3.354   1.980  15.607 -0.4915 -0.6998  0.5445
10978TIP3   OH254348   3.407   6.715  15.726  0.1711  0.1116 -0.0004
10978TIP3    H154349   3.337   6.778  15.706  0.2391  0.3045  0.3619
10978TIP3    H254350   3.361   6.631  15.736  0.0144  0.1984  0.0170
10979TIP3   OH254351   5.216   1.086  15.955 -0.3367  0.2981 -0.0230
10979TIP3    H154352   5.208   1.015  15.891  2.3037  0.0936 -0.2728
10979TIP3    H254353   5.270   1.151  15.911 -1.2637  1.6874  0.8391
10980TIP3   OH254354   5.587   4.864   4.922  0.1708 -0.1329 -0.2574
10980TIP3    H154355   5.562   4.881   4.831 -0.6568 -3.1128 -0.6911
10980TIP3    H254356   5.516   4.811   4.957  1.0264 -0.0281  1.7788
10981TIP3   OH254357   3.308   1.879   3.536 -0.0643  0.0202 -0.1990
10981TIP3    H154358   3.383   1.938   3.525 -0.6014  0.7243 -0.1627
10981TIP3    H254359   3.261   1.884   3.452  0.7426 -1.6006 -0.7850
10982TIP3   OH254360   5.411   3.940   3.496  0.2595  0.0496  0.2857
10982TIP3    H154361   5.326   3.938   3.452  0.4426  0.1736 -0.0707
10982TIP3    H254362   5.393   3.903   3.583 -0.5777  1.7491  0.9088
10983TIP3   OH254363   5.502   5.931   0.057  0.3220 -0.2796 -0.4998
10983TIP3    H154364   5.552   5.981   0.122 -0.0662 -0.1287 -0.3182
10983TIP3    H254365   5.533   5.841   0.068  0.5914 -0.1793 -0.4229
10984TIP3   OH254366   0.077   6.216   1.185 -0.0379  0.5336  0.7494
10984TIP3    H154367   0.064   6.191   1.277 -1.5214 -0.8765  0.2238
10984TIP3    H254368   0.022   6.293   1.173 -0.2910  0.3843  0.9246
10985TIP3   OH254369   5.687   5.920   0.280  0.2685  0.1303  0.1063
10985TIP3    H154370   5.634   5.922   0.359 -0.0751 -0.2901 -0.1086
10985TIP3    H254371   5.712   5.828   0.271 -0.7736 -0.0741 -0.9719
10986TIP3   OH254372   1.672   3.136  16.641  0.0111 -0.1841  0.1679
10986TIP3    H154373   1.633   3.074  16.579 -1.6858  0.7521  0.2213
10986TIP3    H254374   1.701   3.082  16.714  0.0140 -1.0791 -0.4794
10987TIP3   OH254375   6.644   3.051   3.361  0.8391 -0.0849 -0.1754
10987TIP3    H154376   6.634   3.132   3.310  0.8871  1.6358  2.3463
10987TIP3    H254377   6.606   3.072   3.446 -0.0960 -3.1243  0.2737
10988TIP3   OH254378   1.953   5.014  16.919 -0.1761 -0.2005 -0.0153
10988TIP3    H154379   1.863   5.042  16.937 -0.6252  0.1709 -2.4630
10988TIP3    H254380   1.958   4.925  16.956 -0.9909  0.3765  1.5925
10989TIP3   OH254381   2.698   5.571   1.031 -0.0983 -0.5112 -0.2509
10989TIP3    H154382   2.653   5.642   1.077 -0.4643 -1.2658  0.5892
10989TIP3    H254383   2.791   5.587   1.048 -0.2416 -2.0942  2.9533
10990TIP3   OH254384   0.962   4.103   3.114  0.4221  0.1889 -0.0592
10990TIP3    H154385   1.011   4.023   3.096 -0.6900 -0.8970  1.5141
10990TIP3    H254386   0.889   4.100   3.052 -0.6086 -0.9636  1.1641
10991TIP3   OH254387   5.820   5.186  14.950 -0.3949 -0.5061  0.2593
10991TIP3    H154388   5.791   5.177  14.859 -1.7766 -1.1533  0.7334
10991TIP3    H254389   5.761   5.251  14.988  1.2744  1.0771  0.2793
10992TIP3   OH254390   0.260   5.564  13.626 -0.3098 -0.3502 -0.2077
10992TIP3    H154391   0.264   5.632  13.694 -0.8278 -1.6114  1.1524
10992TIP3    H254392   0.350   5.532  13.620  0.0482  0.7641 -1.2332
10993TIP3   OH254393   2.019   1.828   0.913  0.3281 -0.8142  0.3327
10993TIP3    H154394   1.956   1.755   0.910 -1.9577  1.0796 -1.1568
10993TIP3    H254395   2.019   1.856   1.004  0.1596 -1.7606  0.6368
10994TIP3   OH254396   4.791   1.086   0.722 -0.3305  0.6592 -0.0724
10994TIP3    H154397   4.862   1.044   0.674 -0.9870 -0.0414 -0.4611
10994TIP3    H254398   4.780   1.171   0.679 -0.3975  0.3545 -0.6663
10995TIP3   OH254399   4.601   2.853   2.569  0.6430 -0.6578 -0.0674
10995TIP3    H154400   4.659   2.801   2.624 -0.2019 -2.1828 -0.5634
10995TIP3    H254401   4.612   2.816   2.481 -1.2641 -1.1942 -0.1219
10996TIP3   OH254402   0.566   0.401  16.742  0.1061  0.1628 -0.3784
10996TIP3    H154403   0.619   0.424  16.818 -0.7146  1.2261 -0.1003
10996TIP3    H254404   0.608   0.323  16.706  0.9978  0.1344  0.6693
10997TIP3   OH254405   5.091   5.040  13.945  0.3332  0.2444 -0.2887
10997TIP3    H154406   5.021   5.069  13.886  0.6580  0.9926 -0.3239
10997TIP3    H254407   5.067   5.076  14.030 -0.4766 -1.3904  0.2046
10998TIP3   OH254408   2.776   6.184  12.498  0.0656  0.1585  0.3755
10998TIP3    H154409   2.694   6.138  12.483  0.2332 -0.0526  0.0874
10998TIP3    H254410   2.768   6.221  12.586  0.0143 -0.6128  0.7006
10999TIP3   OH254411   3.755   6.388   2.134  0.1894  0.0009 -0.1639
10999TIP3    H154412   3.825   6.348   2.185  1.1066 -0.0829 -1.4381
10999TIP3    H254413   3.680   6.330   2.145  0.5684 -0.3614  0.5430
11000TIP3   OH254414   1.770   0.008   4.423 -0.3670  0.0942  0.0264
11000TIP3    H154415   1.720  -0.059   4.377  0.1853 -0.3564  0.0709
11000TIP3    H254416   1.746   0.090   4.379 -2.0055  0.0473  0.7896
11001TIP3   OH254417   0.249   4.734  11.105  0.0982  0.7953  0.1271
11001TIP3    H154418   0.200   4.692  11.034  2.4806  0.8204 -1.6675
11001TIP3    H254419   0.264   4.664  11.168  0.0643  0.1274 -0.5908
11002TIP3   OH254420   0.248   2.996  10.602 -0.0023 -0.2343 -0.0360
11002TIP3    H154421   0.316   3.008  10.537  0.3605  0.2059  0.4221
11002TIP3    H254422   0.268   3.059  10.671 -0.4322 -0.6270  0.4614
11003TIP3   OH254423   2.304   3.507   0.228  0.4124 -0.0250  0.4516
11003TIP3    H154424   2.272   3.589   0.265  0.9437  0.6495 -0.5392
11003TIP3    H254425   2.279   3.511   0.135  2.0896 -0.1197 -0.0377
11004TIP3   OH254426   3.846   4.979  10.668  0.0914  0.1306  0.2786
11004TIP3    H154427   3.804   4.995  10.752  0.3637  0.5528  0.3418
11004TIP3    H254428   3.802   5.038  10.607  1.8897  2.0916  0.7535
11005TIP3   OH254429   4.770   4.341  13.329 -0.0773 -0.3187 -0.2661
11005TIP3    H154430   4.801   4.372  13.414 -2.3940  3.4740 -0.5554
11005TIP3    H254431   4.698   4.283  13.350 -1.7395  1.8838  0.5220
11006TIP3   OH254432   1.826   0.684  15.922 -0.3750  0.0367  0.0369
11006TIP3    H154433   1.860   0.703  15.835 -1.2821 -0.5024 -0.4484
11006TIP3    H254434   1.851   0.594  15.939  0.0596  0.2326  0.4730
11007TIP3   OH254435   3.127   3.648  16.705 -0.1407 -0.3515  0.1356
11007TIP3    H154436   3.084   3.712  16.648  0.9181 -0.8050 -1.2409
11007TIP3    H254437   3.209   3.691  16.731 -0.1231 -0.5698  0.4435
11008TIP3   OH254438   5.705   0.406   5.775  0.1343  0.1996 -0.0973
11008TIP3    H154439   5.771   0.403   5.706  1.4452  0.6222  1.0966
11008TIP3    H254440   5.754   0.427   5.854 -1.4499  0.6134  0.8191
11009TIP3   OH254441   0.109   6.007  13.126 -0.6579  0.0078  0.5897
11009TIP3    H154442   0.090   5.949  13.052  0.6588  0.4622 -0.1372
11009TIP3    H254443   0.198   6.038  13.110 -0.3981  0.2239  2.3153
11010TIP3   OH254444   5.961   2.926  14.893 -0.0517 -0.1954  0.0685
11010TIP3    H154445   5.998   2.838  14.901 -0.1429 -0.4662 -2.0218
11010TIP3    H254446   5.962   2.944  14.799 -0.4816  1.8545  0.4185
11011TIP3   OH254447   1.438   1.176  13.711  0.5478 -0.2064 -0.0028
11011TIP3    H154448   1.376   1.151  13.642  0.1431 -2.3432  1.0412
11011TIP3    H254449   1.410   1.125  13.787  0.6080  2.4939  1.9607
11012TIP3   OH254450   5.457   5.074   2.785  0.0952  0.3439 -0.0872
11012TIP3    H154451   5.545   5.111   2.786  0.6987 -1.0529  0.6241
11012TIP3    H254452   5.468   4.984   2.755 -1.2016  0.3929 -0.8006
11013TIP3   OH254453   0.442   6.115   5.022  0.1519  0.0047  0.0218
11013TIP3    H154454   0.387   6.154   5.090  0.3992  0.0241  0.2089
11013TIP3    H254455   0.441   6.021   5.041  0.1571  0.0011  0.0056
11014TIP3   OH254456   0.942   3.978  13.596 -0.2491 -0.4775 -0.3427
11014TIP3    H154457   0.853   4.010  13.609 -0.4935 -1.3494  0.1880
11014TIP3    H254458   0.949   3.902  13.653  0.6320 -0.7972 -0.8590
11015TIP3   OH254459   5.564   3.361   4.585  0.2569  0.6366  0.3527
11015TIP3    H154460   5.520   3.445   4.594 -0.7828  0.0159  1.2653
11015TIP3    H254461   5.494   3.296   4.587  1.1147 -0.3153  0.7069
11016TIP3   OH254462   4.250   3.423   5.633  0.2578 -0.6318  0.7204
11016TIP3    H154463   4.235   3.421   5.538  0.2664 -1.4537  0.7266
11016TIP3    H254464   4.162   3.420   5.670  0.2565 -0.3765  0.7368
11017TIP3   OH254465   2.424   6.612  14.871 -0.3082 -0.2380 -0.6625
11017TIP3    H154466   2.479   6.535  14.887  1.1879  1.3350  2.7289
11017TIP3    H254467   2.338   6.587  14.904  0.2138 -0.4240  0.5919
11018TIP3   OH254468   0.615   0.460  13.030  0.1177  0.1065 -0.2051
11018TIP3    H154469   0.692   0.427  12.985 -0.1643  0.5145 -0.9909
11018TIP3    H254470   0.541   0.417  12.986 -0.1534  0.4322 -0.0696
11019TIP3   OH254471   6.177   2.725   0.168  0.4110  0.7515 -0.2070
11019TIP3    H154472   6.178   2.635   0.136  1.6485  0.6159  0.1401
11019TIP3    H254473   6.178   2.779   0.089 -2.3876  0.5228 -0.4728
11020TIP3   OH254474   1.932   5.995  13.776 -0.2449  0.0815 -0.1172
11020TIP3    H154475   1.876   6.023  13.848 -0.3023 -1.1838  0.3491
11020TIP3    H254476   1.892   6.034  13.698  0.1232  1.8893  0.5685
11021TIP3   OH254477   2.162   5.711   0.317 -0.0676  0.5568 -0.3167
11021TIP3    H154478   2.071   5.737   0.303 -0.1631 -0.6540 -2.2549
11021TIP3    H254479   2.213   5.789   0.295 -0.5787  0.8859 -0.3467
11022TIP3   OH254480   4.063   4.148   3.421 -0.2681  0.3822  0.4223
11022TIP3    H154481   4.044   4.058   3.394  1.3713 -0.1005  0.8136
11022TIP3    H254482   4.133   4.141   3.485  1.9520  2.0934 -1.6432
11023TIP3   OH254483   4.567   4.542  12.447 -0.0908 -0.1774 -0.1514
11023TIP3    H154484   4.655   4.574  12.467 -0.0917 -1.3954  2.2545
11023TIP3    H254485   4.515   4.621  12.437  0.8584  0.5916  0.6886
11024TIP3   OH254486   5.568   0.981   0.101 -0.4870 -0.3737 -0.7547
11024TIP3    H154487   5.615   0.963   0.020 -0.4696  0.1421 -0.8636
11024TIP3    H254488   5.484   0.936   0.090  0.2932 -2.0266 -0.1968
11025TIP3   OH254489   1.652   5.547   1.302  1.0412  0.6886 -0.6130
11025TIP3    H154490   1.689   5.615   1.246  1.6601  1.1426  0.3200
11025TIP3    H254491   1.646   5.469   1.246  0.6097  1.4211 -1.6017
11026TIP3   OH254492   2.759   5.700  14.235  0.1698  0.0347  0.0987
11026TIP3    H154493   2.829   5.649  14.194 -1.5122 -1.4214 -1.1037
11026TIP3    H254494   2.715   5.744  14.162  0.4588  1.8142  0.9396
11027TIP3   OH254495   2.334   3.153  10.953  0.0877 -0.5571 -0.0033
11027TIP3    H154496   2.362   3.222  10.892  0.7863 -1.3305 -0.5656
11027TIP3    H254497   2.307   3.081  10.897 -2.0487 -0.2618  0.5293
11028TIP3   OH254498   5.698   0.295  16.507 -0.0011 -0.1212 -0.4906
11028TIP3    H154499   5.788   0.292  16.541 -1.1297 -1.2574  2.7979
11028TIP3    H254500   5.685   0.387  16.484  0.9182  0.9072  2.5721
11029TIP3   OH254501   0.846   4.275  16.475 -0.2010 -0.0717  0.2792
11029TIP3    H154502   0.835   4.218  16.399  1.1269  1.5639 -1.2381
11029TIP3    H254503   0.939   4.269  16.496 -0.3128  0.4656  0.9708
11030TIP3   OH254504   5.987   0.804  11.729 -0.4004 -0.0672  0.3519
11030TIP3    H154505   5.900   0.770  11.746 -0.1312 -0.0970  1.8645
11030TIP3    H254506   6.043   0.758  11.791  0.4190  1.0984  0.5124
11031TIP3   OH254507   5.312   4.647  15.476 -0.1454 -0.0460 -0.6381
11031TIP3    H154508   5.360   4.577  15.519 -1.2052 -1.1498 -1.1843
11031TIP3    H254509   5.373   4.721  15.474  1.6446 -1.4551 -1.5712
11032TIP3   OH254510   4.610   2.363  13.154 -0.6797 -0.2072 -0.1016
11032TIP3    H154511   4.646   2.347  13.241 -0.1683 -0.8080 -0.4200
11032TIP3    H254512   4.661   2.306  13.095 -0.8507  0.3719 -0.8287
11033TIP3   OH254513   4.139   5.004   5.380 -0.1094 -0.8014 -0.1386
11033TIP3    H154514   4.062   5.004   5.437  0.0717 -0.6026  0.1042
11033TIP3    H254515   4.177   5.091   5.391  0.6089 -1.1734  0.3581
11034TIP3   OH254516   4.762   4.377  14.579  0.1362 -0.4237 -0.8292
11034TIP3    H154517   4.783   4.468  14.599  0.8162 -0.4899 -1.1894
11034TIP3    H254518   4.791   4.328  14.656  0.6198 -0.4270 -1.0064
11035TIP3   OH254519   5.640   1.735   4.431  0.1257 -0.2158  0.7673
11035TIP3    H154520   5.697   1.776   4.496 -0.2216  1.4246  0.1080
11035TIP3    H254521   5.642   1.796   4.357  0.4026 -1.9438 -0.7270
11036TIP3   OH254522   3.620   5.713  13.433  0.0221 -0.1847 -0.1329
11036TIP3    H154523   3.594   5.653  13.503  0.5630 -0.2171  0.0469
11036TIP3    H254524   3.670   5.659  13.372  1.0742  0.1892  0.3561
11037TIP3   OH254525   3.410   1.372  16.264 -0.2236 -0.6006 -0.8991
11037TIP3    H154526   3.334   1.411  16.307  0.3002 -0.4351 -0.0911
11037TIP3    H254527   3.374   1.313  16.198 -1.0352  0.5274 -1.4797
11038TIP3   OH254528   5.793   1.281  17.158  0.2882 -0.2232 -0.5415
11038TIP3    H154529   5.802   1.186  17.146  1.4114 -0.0888 -0.8712
11038TIP3    H254530   5.699   1.294  17.171 -0.2039 -1.1557 -2.6520
11039TIP3   OH254531   5.458   4.384   1.672  0.1561  0.5948 -0.2601
11039TIP3    H154532   5.500   4.398   1.587  0.5413 -0.5330 -0.2585
11039TIP3    H254533   5.370   4.422   1.661 -0.7986 -1.8913 -2.0705
11040TIP3   OH254534   2.749   4.055   5.457  0.1755  0.0548  0.3078
11040TIP3    H154535   2.673   4.046   5.400  0.1348  0.9387  0.2108
11040TIP3    H254536   2.820   4.083   5.399  0.5457 -0.6520  0.4162
11041TIP3   OH254537   5.686   1.298  13.066  0.3881 -0.1806 -0.3467
11041TIP3    H154538   5.690   1.210  13.026  1.1106 -1.7922  2.9523
11041TIP3    H254539   5.764   1.303  13.121 -1.0100  1.4205  1.6392
11042TIP3   OH254540   2.002   6.558   1.364 -0.0774  0.2292 -0.3920
11042TIP3    H154541   1.968   6.519   1.283 -0.2664  0.1045 -0.2537
11042TIP3    H254542   1.958   6.643   1.370  0.3697  0.4902 -0.7178
11043TIP3   OH254543   1.029   5.533  11.199  0.0749  0.5110  0.8819
11043TIP3    H154544   1.080   5.523  11.119  2.4620  0.8509  2.2734
11043TIP3    H254545   0.957   5.591  11.174  1.0303  1.0159 -0.8966
11044TIP3   OH254546   0.307   4.979  13.759  0.0562 -0.4450 -0.8652
11044TIP3    H154547   0.243   4.933  13.705 -0.1875 -0.2320 -0.7597
11044TIP3    H254548   0.328   5.058  13.709  0.3232 -0.5714 -0.9538
11045TIP3   OH254549   0.089   2.373  11.639 -0.1791 -0.1694  0.4717
11045TIP3    H154550   0.154   2.305  11.619 -0.4916 -0.4875  0.5440
11045TIP3    H254551   0.099   2.436  11.567  0.3760 -0.0934  0.6073
11046TIP3   OH254552   1.771   5.144  14.317 -0.2374  0.5052  0.4684
11046TIP3    H154553   1.797   5.235  14.299  0.1536  0.4974  0.9925
11046TIP3    H254554   1.792   5.097  14.236  1.6760  0.4352  0.9549
11047TIP3   OH254555   5.197   3.945  15.056 -0.4847  0.4399  0.0002
11047TIP3    H154556   5.241   3.903  15.130 -0.8401  1.7196  0.9818
11047TIP3    H254557   5.189   4.037  15.082 -1.5185  0.7242 -1.2102
11048TIP3   OH254558   3.759   2.556   3.937 -0.0966 -0.0760  0.3199
11048TIP3    H154559   3.726   2.612   4.008  1.0446 -0.7145  1.3864
11048TIP3    H254560   3.693   2.488   3.928  0.7663 -1.2641  2.3450
11049TIP3   OH254561   3.732   2.684   0.254 -0.2640  0.0223  0.3021
11049TIP3    H154562   3.688   2.718   0.331 -0.6479  1.3371 -0.4661
11049TIP3    H254563   3.731   2.589   0.265 -6.1561 -0.4701 -1.0449
11050TIP3   OH254564   0.877   3.140  11.701 -0.0726 -0.4923  0.2313
11050TIP3    H154565   0.901   3.219  11.749  1.3847 -0.6419 -0.1799
11050TIP3    H254566   0.907   3.068  11.758 -1.3004 -0.7667  0.5597
11051TIP3   OH254567   2.283   5.821   1.454 -0.3277  0.2859  0.0838
11051TIP3    H154568   2.242   5.867   1.528 -2.4191 -1.9641  0.4371
11051TIP3    H254569   2.248   5.732   1.459  1.5420 -0.6603 -2.0964
11052TIP3   OH254570   2.169   2.813   6.363 -0.6014  0.2244  0.2744
11052TIP3    H154571   2.117   2.764   6.298  0.1466 -0.4125  0.1451
11052TIP3    H254572   2.193   2.748   6.428  1.1781  0.1863 -0.3635
11053TIP3   OH254573   1.849   5.277   1.755  0.1047  0.2400 -0.6018
11053TIP3    H154574   1.875   5.210   1.692  0.6805 -0.1514  0.0431
11053TIP3    H254575   1.767   5.245   1.793  0.0923  0.1714 -0.6864
11054TIP3   OH254576   2.646   6.411   0.253  0.0307 -0.3279 -0.0834
11054TIP3    H154577   2.613   6.434   0.340 -0.1760  1.0533 -0.5039
11054TIP3    H254578   2.584   6.345   0.221 -0.6721  0.1422  0.2848
11055TIP3   OH254579   2.083   3.166   1.034 -0.2160  0.0993 -0.4831
11055TIP3    H154580   2.172   3.176   1.069 -1.2796  1.2741  2.1113
11055TIP3    H254581   2.053   3.256   1.021 -2.0474 -0.1411  1.5895
11056TIP3   OH254582   1.739   5.229  12.298  0.1916 -0.1709  0.7431
11056TIP3    H154583   1.767   5.236  12.207 -0.3452 -2.4789  0.3470
11056TIP3    H254584   1.775   5.307  12.340 -0.7466  1.7302 -1.7098
11057TIP3   OH254585   5.026   3.595  14.506  0.1001  0.0730 -0.3660
11057TIP3    H154586   5.022   3.610  14.601 -0.2080  0.3890 -0.4281
11057TIP3    H254587   5.081   3.517  14.497  0.0647 -0.0091  0.0786
11058TIP3   OH254588   1.598   0.536  14.887 -0.4183 -0.3133  0.0844
11058TIP3    H154589   1.563   0.625  14.880 -0.9222 -0.5183  0.0083
11058TIP3    H254590   1.680   0.539  14.837 -1.2264 -0.3118 -1.2760
11059TIP3   OH254591   0.568   2.134   5.283  0.0607  0.0292  0.7400
11059TIP3    H154592   0.493   2.075   5.284  0.0200 -0.0403  3.8995
11059TIP3    H254593   0.636   2.086   5.331  1.1278  1.2596  0.4932
11060TIP3   OH254594   1.105   1.549   0.395 -0.0342  0.2698  0.0057
11060TIP3    H154595   1.063   1.525   0.478 -1.2711  0.1651 -0.6331
11060TIP3    H254596   1.193   1.512   0.401 -0.7571 -1.4662  0.4652
11061TIP3   OH254597   3.730   5.065   1.839  0.5197  0.0172 -0.5227
11061TIP3    H154598   3.715   5.120   1.761  2.8998  2.5368  0.6145
11061TIP3    H254599   3.816   5.025   1.824  0.0582 -1.1775 -0.0789
11062TIP3   OH254600   1.995   4.870  15.525  0.5193  0.3414 -0.1062
11062TIP3    H154601   2.038   4.949  15.492  0.2895  0.8189  0.7029
11062TIP3    H254602   1.911   4.868  15.480 -0.1205  1.4172  0.9829
11063TIP3   OH254603   2.811   1.849  14.453  0.7437  0.7758 -0.3416
11063TIP3    H154604   2.872   1.777  14.466 -0.2929 -0.0269  0.2065
11063TIP3    H254605   2.733   1.808  14.417 -0.1071  1.5122  0.6131
11064TIP3   OH254606   1.313   2.094  15.663  0.0245  0.1316  0.2393
11064TIP3    H154607   1.323   2.053  15.749  0.7803 -0.2816 -0.0420
11064TIP3    H254608   1.381   2.055  15.609 -0.9974 -0.2810 -0.8057
11065TIP3   OH254609   0.788   3.262  15.337  0.5729  0.5415 -0.1336
11065TIP3    H154610   0.752   3.343  15.374  1.4901  1.1996 -0.6408
11065TIP3    H254611   0.712   3.204  15.330  0.3922  0.1485  3.2446
11066TIP3   OH254612   2.898   2.461  12.167  0.2825 -0.1419 -0.3114
11066TIP3    H154613   2.928   2.458  12.076 -0.6918  0.0175 -0.6496
11066TIP3    H254614   2.821   2.519  12.165  0.2570 -0.1256  0.6151
11067TIP3   OH254615   6.605   0.435  11.382 -0.8036 -0.8825 -0.1325
11067TIP3    H154616   6.642   0.446  11.470  1.7853 -1.8011 -1.0309
11067TIP3    H254617   6.583   0.523  11.354  1.2076 -0.1945  0.3017
11068TIP3   OH254618   3.111   0.129  16.277 -0.3675 -1.1688 -0.1712
11068TIP3    H154619   3.207   0.124  16.286 -0.3206 -1.5758 -0.8707
11068TIP3    H254620   3.078   0.061  16.336 -0.2102 -1.2760 -0.2048
11069TIP3   OH254621   6.303   2.448  12.980 -0.7476  0.0758  0.0743
11069TIP3    H154622   6.329   2.375  13.037 -0.0754 -1.2333 -1.8241
11069TIP3    H254623   6.235   2.493  13.030 -0.8358 -1.5437  1.5369
11070TIP3   OH254624   0.856   2.363  13.211  0.1441 -0.3176  0.4323
11070TIP3    H154625   0.760   2.361  13.219  0.1935 -0.4997  0.9578
11070TIP3    H254626   0.882   2.271  13.211  0.1073 -0.4123 -2.3331
11071TIP3   OH254627   5.169   6.569  13.618 -0.2776 -0.2876 -0.4218
11071TIP3    H154628   5.214   6.568  13.702 -1.4835  0.2000  0.2569
11071TIP3    H254629   5.078   6.549  13.639 -0.4047 -1.2761 -1.7603
11072TIP3   OH254630   5.998   1.712   0.716  0.0024  0.2521 -0.0997
11072TIP3    H154631   6.012   1.733   0.623 -0.1002  0.2566 -0.1149
11072TIP3    H254632   6.030   1.789   0.763  1.1988 -0.2505 -0.0621
11073TIP3   OH254633   2.555   0.873  10.856 -0.6392  0.1913  0.3534
11073TIP3    H154634   2.621   0.940  10.836  0.2735 -0.6252  0.5556
11073TIP3    H254635   2.548   0.822  10.775  1.4766 -1.7900  1.3295
11074TIP3   OH254636   1.805   2.096   0.164 -0.4500 -0.2119  0.1247
11074TIP3    H154637   1.803   2.000   0.166  2.0205 -0.3085  0.6241
11074TIP3    H254638   1.737   2.122   0.226  0.4650 -1.7193  1.8694
11075TIP3   OH254639   0.303   5.354  10.372  0.1965  0.3366  0.3334
11075TIP3    H154640   0.231   5.368  10.310  0.2951  2.4796  0.6518
11075TIP3    H254641   0.262   5.357  10.458  0.4040 -0.3648  0.4638
11076TIP3   OH254642   0.498   6.222  16.596  0.1858 -0.2873 -0.3066
11076TIP3    H154643   0.461   6.252  16.679  0.0927 -2.4384  0.4854
11076TIP3    H254644   0.429   6.240  16.532 -0.4857 -0.2969  0.4000
11077TIP3   OH254645   2.253   2.415  15.743 -0.6549 -0.1535 -0.7264
11077TIP3    H154646   2.241   2.433  15.837 -0.4592 -1.9795 -0.3071
11077TIP3    H254647   2.323   2.349  15.741  0.7487  1.3111 -2.3124
11078TIP3   OH254648   5.132   0.177   4.813 -0.0098 -0.3384 -0.0429
11078TIP3    H154649   5.077   0.252   4.788 -0.2638 -0.2357  0.8010
11078TIP3    H254650   5.148   0.189   4.907 -0.2091 -1.4417  0.1432
11079TIP3   OH254651   6.548   1.505   1.235 -0.5986 -0.2285 -0.0761
11079TIP3    H154652   6.541   1.497   1.330  0.4041  0.0180  0.0267
11079TIP3    H254653   6.493   1.434   1.201 -0.6684 -0.5506  0.6885
11080TIP3   OH254654   2.367   3.924   1.242 -0.3509 -0.2229  0.6119
11080TIP3    H154655   2.362   4.005   1.191 -1.3511 -0.3108  0.5648
11080TIP3    H254656   2.435   3.942   1.307  0.4200  0.1561 -0.2565
11081TIP3   OH254657   0.984   2.355   2.164  0.2367  0.1199 -0.3544
11081TIP3    H154658   0.974   2.330   2.072 -1.5956  1.9072 -0.7218
11081TIP3    H254659   0.901   2.330   2.205  0.6320  0.2760  0.5674
11082TIP3   OH254660   6.048   4.685  12.973 -0.0180  0.1911  0.2758
11082TIP3    H154661   5.998   4.725  13.045 -2.6899 -1.3347 -0.6091
11082TIP3    H254662   6.066   4.596  13.003  0.1693  0.0131 -0.3664
11083TIP3   OH254663   0.897   3.578   0.344 -0.3099  0.0649  0.1933
11083TIP3    H154664   0.875   3.611   0.257 -1.4570 -0.4534  0.2655
11083TIP3    H254665   0.850   3.636   0.404 -0.2385 -0.1164  0.4271
11084TIP3   OH254666   6.677   0.626   3.231  0.0742 -0.7867 -0.5768
11084TIP3    H154667   6.600   0.618   3.288 -1.3036  0.9708 -2.0857
11084TIP3    H254668   6.751   0.636   3.291 -0.6546 -3.5640  0.9494
11085TIP3   OH254669   1.276   3.689   3.568  0.2513 -0.1588  0.0922
11085TIP3    H154670   1.285   3.704   3.662 -0.0159 -0.8279  0.2288
11085TIP3    H254671   1.237   3.770   3.535  0.6794  0.2195  0.4989
11086TIP3   OH254672   3.362   3.931   1.342 -0.1906  0.1105  0.0653
11086TIP3    H154673   3.296   3.998   1.320  0.3251  0.7877  0.5327
11086TIP3    H254674   3.379   3.887   1.259 -1.7827 -0.5957  0.0822
11087TIP3   OH254675   3.365   5.260   1.331 -0.1034  0.3890 -0.2527
11087TIP3    H154676   3.270   5.254   1.337 -0.1759  1.2758 -0.3832
11087TIP3    H254677   3.384   5.239   1.239 -0.2241  0.7232 -0.3567
11088TIP3   OH254678   0.602   2.747  15.362 -0.3312 -0.2234  0.2289
11088TIP3    H154679   0.605   2.727  15.456  0.6354  1.4877  0.6001
11088TIP3    H254680   0.518   2.790  15.348 -0.7393 -1.0125  0.1649
11089TIP3   OH254681   4.326   2.007  13.000 -0.3177  0.1340  0.3254
11089TIP3    H154682   4.403   2.021  12.944  0.3235  1.6395  1.5188
11089TIP3    H254683   4.361   1.966  13.079 -0.6604  1.1506  1.0270
11090TIP3   OH254684   4.555   1.680   3.575 -0.2356  0.2702 -0.1247
11090TIP3    H154685   4.500   1.740   3.524  0.6460  1.5433  0.3796
11090TIP3    H254686   4.509   1.668   3.657 -1.9231 -2.1916 -1.2942
11091TIP3   OH254687   2.645   4.572  11.914  0.0071  0.9545 -0.0650
11091TIP3    H154688   2.677   4.615  11.835  0.4392  0.6238 -0.0766
11091TIP3    H254689   2.716   4.512  11.938 -0.5810  0.2444 -0.0634
11092TIP3   OH254690   3.729   5.455  13.126 -0.2082 -0.0126  0.3880
11092TIP3    H154691   3.749   5.377  13.074  0.2569  1.2865 -1.4940
11092TIP3    H254692   3.649   5.490  13.087 -0.4431  0.4447  1.2461
11093TIP3   OH254693   4.547   5.170  16.713 -0.1401 -0.5462 -0.1611
11093TIP3    H154694   4.561   5.234  16.783 -3.2295  1.1779 -0.9227
11093TIP3    H254695   4.481   5.110  16.748  0.0729 -1.1582 -0.7677
11094TIP3   OH254696   0.433   0.741  12.904  0.5149  0.5372 -0.1175
11094TIP3    H154697   0.383   0.672  12.949 -2.9624  4.0644  2.1468
11094TIP3    H254698   0.379   0.763  12.828  1.0030  1.4653 -0.1981
11095TIP3   OH254699   0.634   3.878  15.090  0.3727 -0.4240 -0.3228
11095TIP3    H154700   0.691   3.944  15.050  1.5979 -1.0731  0.2816
11095TIP3    H254701   0.638   3.896  15.183 -0.4629 -0.4633 -0.2725
11096TIP3   OH254702   0.534   6.733   2.195  0.2857  0.0152  0.4300
11096TIP3    H154703   0.497   6.765   2.277  0.5028  0.6435  0.2860
11096TIP3    H254704   0.488   6.783   2.127 -0.6423 -1.2255  0.1032
11097TIP3   OH254705   5.573   1.014  13.298  0.2407  0.5155  0.0451
11097TIP3    H154706   5.522   1.033  13.219 -0.1337  0.3339  0.2393
11097TIP3    H254707   5.662   1.003  13.267 -0.1961 -1.4462 -0.6302
11098TIP3   OH254708   0.077   2.193  16.529  0.5637  0.3588  0.4366
11098TIP3    H154709   0.062   2.270  16.584  0.5031  0.2871  0.5208
11098TIP3    H254710   0.162   2.160  16.557  0.7534  0.6046  0.1479
11099TIP3   OH254711   0.392   4.324   2.507  0.2787 -0.5594 -0.2578
11099TIP3    H154712   0.459   4.293   2.567  0.6809  0.6543 -0.0594
11099TIP3    H254713   0.379   4.251   2.445  0.3544 -1.5506  0.8619
11100TIP3   OH254714   6.708   1.413   3.376 -0.0541 -0.5627 -0.3147
11100TIP3    H154715   6.641   1.426   3.309 -0.3962 -1.2853 -0.1174
11100TIP3    H254716   6.697   1.488   3.435 -0.3268 -0.3917 -0.5807
11101TIP3   OH254717   4.570   4.973  11.747  0.1086  0.3790  0.4274
11101TIP3    H154718   4.544   5.056  11.709 -2.9942 -0.0839  1.3111
11101TIP3    H254719   4.597   4.919  11.672 -0.5862  1.2534 -0.4722
11102TIP3   OH254720   5.008   5.787   2.281  0.2110  0.2985 -0.1555
11102TIP3    H154721   5.006   5.712   2.222  1.0023  0.8348 -0.8827
11102TIP3    H254722   4.945   5.849   2.243 -1.0480 -0.2828  0.8829
11103TIP3   OH254723   3.719   0.477   4.550 -0.4891  0.3853 -0.3791
11103TIP3    H154724   3.675   0.391   4.551  0.4824 -0.1922  2.5544
11103TIP3    H254725   3.810   0.458   4.574 -0.3440  2.2323  0.7509
11104TIP3   OH254726   2.909   2.099  12.178  0.7434 -0.1061 -0.1556
11104TIP3    H154727   2.856   2.068  12.252 -1.1276  1.4221 -0.7545
11104TIP3    H254728   2.977   2.153  12.219  0.4078 -0.1896  0.5355
11105TIP3   OH254729   5.397   0.510  13.451 -0.3100  0.0786  0.2248
11105TIP3    H154730   5.360   0.562  13.380 -1.5634 -0.6920  0.2767
11105TIP3    H254731   5.325   0.454  13.479  0.8912 -1.4454  0.3890
11106TIP3   OH254732   0.073   5.560  15.388  0.1790  0.9828 -0.4408
11106TIP3    H154733   0.061   5.531  15.478  0.2018  0.6113 -0.5547
11106TIP3    H254734   0.134   5.633  15.394  0.9602  0.3346 -0.2454
11107TIP3   OH254735   6.002   1.702   3.251 -0.3116 -0.5780  0.2202
11107TIP3    H154736   5.926   1.752   3.282 -0.6538 -1.7023  1.2857
11107TIP3    H254737   5.981   1.611   3.272  1.1793 -0.9503  0.2174
11108TIP3   OH254738   5.038   3.867   1.452  0.1351 -0.5456 -0.1067
11108TIP3    H154739   4.963   3.809   1.463 -0.7906  0.9895  2.4455
11108TIP3    H254740   4.999   3.950   1.423  1.1166 -0.3214 -0.8357
11109TIP3   OH254741   5.779   4.105   3.228  0.1479 -0.4969  0.4704
11109TIP3    H154742   5.746   4.145   3.309 -0.9797 -1.6177  0.5970
11109TIP3    H254743   5.760   4.012   3.238  1.2426 -0.8428 -0.5162
11110TIP3   OH254744   2.498   1.355   2.996 -0.0174 -0.2530  0.4449
11110TIP3    H154745   2.593   1.359   3.010  0.6157  0.5277 -3.0271
11110TIP3    H254746   2.461   1.415   3.060  2.2899  2.4343 -0.5544
11111TIP3   OH254747   3.394   2.817  10.792  0.4739  0.0697 -0.2530
11111TIP3    H154748   3.386   2.911  10.776 -0.5457  0.2318  1.1013
11111TIP3    H254749   3.380   2.806  10.886 -0.8969 -1.5663 -0.5828
11112TIP3   OH254750   2.206   2.540  12.555  0.4606 -0.1251  0.2420
11112TIP3    H154751   2.228   2.484  12.630  0.1350 -1.9065 -0.9344
11112TIP3    H254752   2.231   2.628  12.583  1.8642 -0.9600  1.8282
11113TIP3   OH254753   6.653   2.907  16.064  0.0016  0.1876  0.5163
11113TIP3    H154754   6.670   2.833  16.122  1.2458 -0.0489 -0.1282
11113TIP3    H254755   6.676   2.876  15.977 -0.6637  0.9387  0.0581
11114TIP3   OH254756   0.801   6.377   2.579  0.7665  0.3910  0.1036
11114TIP3    H154757   0.710   6.401   2.592  0.5307 -0.2528 -0.2988
11114TIP3    H254758   0.802   6.281   2.582  1.3017  0.3572 -0.6304
11115TIP3   OH254759   4.724   3.342   2.516  0.4037 -0.0622 -0.5178
11115TIP3    H154760   4.730   3.266   2.575 -1.1844 -0.0140 -0.2503
11115TIP3    H254761   4.674   3.407   2.565  2.0884  1.3572 -0.5886
11116TIP3   OH254762   3.333   4.066  13.947 -0.7179 -0.5910  0.0567
11116TIP3    H154763   3.320   4.104  13.860 -1.3993 -0.1845  0.3353
11116TIP3    H254764   3.381   3.984  13.930  0.4106  0.1787 -0.5726
11117TIP3   OH254765   1.259   0.800  15.644 -0.5181  0.4110 -0.1900
11117TIP3    H154766   1.186   0.846  15.603 -0.6820 -0.5347 -0.9974
11117TIP3    H254767   1.248   0.709  15.617  0.9463  0.2476 -0.3115
11118TIP3   OH254768   3.725   5.323  15.656  0.2720 -0.0597 -0.3645
11118TIP3    H154769   3.770   5.407  15.671  1.4880 -0.0233 -3.4347
11118TIP3    H254770   3.790   5.269  15.610 -0.5578 -2.6716  1.3264
11119TIP3   OH254771   6.192   4.969   1.977 -0.0153  0.5574 -0.2464
11119TIP3    H154772   6.123   4.902   1.982 -0.1976  0.7349 -0.3447
11119TIP3    H254773   6.245   4.944   1.901  0.8881 -0.3838  0.6796
11120TIP3   OH254774   6.329   4.604   3.728  0.0479 -0.5041 -0.4354
11120TIP3    H154775   6.323   4.610   3.823  1.7988  2.2856 -0.3811
11120TIP3    H254776   6.246   4.638   3.696  0.3544  0.8857  0.1604
11121TIP3   OH254777   0.700   2.339   5.425  0.4379 -0.5139  0.3403
11121TIP3    H154778   0.685   2.282   5.350  1.2847  0.1697 -0.3804
11121TIP3    H254779   0.703   2.427   5.387 -1.4387  0.1023  1.4886
11122TIP3   OH254780   3.976   5.842   5.822 -0.4122  0.1349 -0.0413
11122TIP3    H154781   3.991   5.904   5.750 -1.4744  1.2215  0.6391
11122TIP3    H254782   4.035   5.871   5.891  0.4481 -0.7755 -0.3770
11123TIP3   OH254783   3.928   6.631  11.830 -0.4124  0.0654  0.0087
11123TIP3    H154784   3.885   6.568  11.772 -0.3364 -0.9575  1.0301
11123TIP3    H254785   3.869   6.707  11.832 -1.8162 -1.0016  0.7770
11124TIP3   OH254786   4.668   3.897  15.279  0.0708 -0.1618  0.3961
11124TIP3    H154787   4.664   3.849  15.362  5.5036 -0.8229  0.6589
11124TIP3    H254788   4.723   3.973  15.299  0.1547  0.5643 -2.2453
11125TIP3   OH254789   5.083   5.435   2.590 -0.4434 -0.1287  0.3655
11125TIP3    H154790   5.145   5.372   2.627 -0.3570 -0.7178 -0.7379
11125TIP3    H254791   5.137   5.509   2.564 -0.5836  0.5527  1.9398
11126TIP3   OH254792   5.181   1.300   3.406 -0.4629 -0.9645  0.7164
11126TIP3    H154793   5.127   1.308   3.328 -0.8341 -3.4532  0.6441
11126TIP3    H254794   5.271   1.311   3.374 -0.6961 -0.3588  0.2460
11127TIP3   OH254795   5.655   0.265   3.362  0.3341 -0.4898 -0.4028
11127TIP3    H154796   5.674   0.353   3.395  0.8179 -0.8499  0.3277
11127TIP3    H254797   5.711   0.208   3.415 -0.7388 -1.3378 -0.1579
11128TIP3   OH254798   0.812   3.598  16.694  0.1389  0.3683  0.1600
11128TIP3    H154799   0.898   3.597  16.651  0.0867 -3.9281 -0.2352
11128TIP3    H254800   0.812   3.679  16.745  4.2468  0.7953 -0.1695
11129TIP3   OH254801   2.909   2.121   4.434 -0.1075 -0.4331 -0.0610
11129TIP3    H154802   2.919   2.133   4.529 -0.7414 -1.7667  0.2076
11129TIP3    H254803   2.975   2.177   4.396 -0.9056  1.4096  1.1012
11130TIP3   OH254804   1.377   0.322   3.175 -0.2293 -0.6274 -0.6147
11130TIP3    H154805   1.337   0.404   3.145  0.4503 -0.1045 -0.1503
11130TIP3    H254806   1.308   0.278   3.225  0.0260  0.7526  1.0727
11131TIP3   OH254807   2.891   3.164   4.712  0.2322 -0.3031  0.2988
11131TIP3    H154808   2.950   3.233   4.743  0.3583  0.1529 -0.8933
11131TIP3    H254809   2.862   3.119   4.791  0.6770  0.6953  1.0460
11132TIP3   OH254810   6.134   3.858   0.585 -0.0991  0.6728 -0.1778
11132TIP3    H154811   6.189   3.781   0.596  1.0282  1.1525 -1.9738
11132TIP3    H254812   6.196   3.931   0.583 -0.9457  1.3953 -0.5980
11133TIP3   OH254813   5.679   5.662  16.522 -0.4254 -0.3615 -0.0669
11133TIP3    H154814   5.698   5.705  16.438 -0.2799  1.9235  1.0388
11133TIP3    H254815   5.633   5.582  16.499 -2.7316  1.4515 -2.2638
11134TIP3   OH254816   2.606   0.027  15.055 -1.0559  0.3244 -0.5006
11134TIP3    H154817   2.637  -0.048  15.004 -0.2526  0.5438 -0.3563
11134TIP3    H254818   2.675   0.093  15.046  0.2229 -0.4124  2.6204
11135TIP3   OH254819   5.522   3.967  12.813 -0.0846  0.5836 -0.4234
11135TIP3    H154820   5.427   3.966  12.821 -0.1315 -2.7802 -0.2949
11135TIP3    H254821   5.554   3.942  12.900  0.8699  0.5720 -0.7632
11136TIP3   OH254822   5.145   5.134  12.996 -0.5137 -0.1127 -0.0464
11136TIP3    H154823   5.049   5.131  12.995 -0.5591  0.8366 -0.6683
11136TIP3    H254824   5.166   5.210  12.940  0.5945 -0.3102  0.0933
11137TIP3   OH254825   5.182   0.295   1.158 -0.3151  0.0591  0.0295
11137TIP3    H154826   5.189   0.379   1.114  1.5574 -0.0743 -0.0116
11137TIP3    H254827   5.255   0.244   1.125  0.1773 -0.6360  2.0081
11138TIP3   OH254828   5.390   6.423   5.246  0.8949  0.1445  0.0105
11138TIP3    H154829   5.363   6.473   5.323 -0.4899 -1.9301  0.9480
11138TIP3    H254830   5.484   6.440   5.237  1.5446 -1.0827  3.3655
11139TIP3   OH254831   2.495   6.215   0.143 -0.1818  0.6528  1.1712
11139TIP3    H154832   2.434   6.164   0.196 -1.2059 -0.1979 -0.7320
11139TIP3    H254833   2.458   6.214   0.055  1.9268  1.1750  0.1972
11140TIP3   OH254834   3.994   3.005  12.510  0.1787  0.5013  0.0137
11140TIP3    H154835   3.916   3.039  12.465 -0.3841  1.5224  1.6641
11140TIP3    H254836   3.978   3.024  12.602  2.4604  0.8580  0.3958
11141TIP3   OH254837   1.915   3.471   3.960 -0.5936  0.0815 -0.7868
11141TIP3    H154838   1.846   3.417   3.921 -1.0502  0.0948  0.0002
11141TIP3    H254839   1.870   3.531   4.018  0.1683 -0.6973  0.6577
11142TIP3   OH254840   5.225   5.333   3.200 -0.1825 -0.2400  0.3010
11142TIP3    H154841   5.284   5.261   3.223 -1.1393 -1.6374 -1.3557
11142TIP3    H254842   5.179   5.302   3.122 -0.6929  2.1643 -0.4420
11143TIP3   OH254843   3.430   5.102  11.330 -0.5186  0.2063  0.4067
11143TIP3    H154844   3.485   5.082  11.405 -1.4024  0.3224  1.1009
11143TIP3    H254845   3.448   5.195  11.312 -0.1729  0.1319  0.3545
11144TIP3   OH254846   2.268   6.613   5.417  0.2086 -0.4101  0.3247
11144TIP3    H154847   2.259   6.595   5.511  1.6486  1.1858  0.8103
11144TIP3    H254848   2.326   6.688   5.412  0.9412 -1.0463 -1.9100
11145TIP3   OH254849   3.394   0.542  14.850  0.0838 -0.0952  0.1853
11145TIP3    H154850   3.398   0.468  14.910 -0.4085  0.0633  0.4191
11145TIP3    H254851   3.341   0.607  14.896 -1.3222 -0.4285 -0.9129
11146TIP3   OH254852   6.346   1.999  15.272 -0.0013  0.1758 -0.3672
11146TIP3    H154853   6.387   1.916  15.295 -0.4661 -0.2900 -1.1439
11146TIP3    H254854   6.264   1.974  15.229 -1.7764  1.0858  2.2321
11147TIP3   OH254855   1.082   4.796  15.012 -0.0836  0.2324  0.1306
11147TIP3    H154856   1.074   4.718  14.956  0.2126  0.2990 -0.0105
11147TIP3    H254857   1.005   4.848  14.992 -0.2763 -0.0178  0.2117
11148TIP3   OH254858   0.675   2.848   3.299  0.3486 -0.1437  0.0781
11148TIP3    H154859   0.613   2.782   3.330  0.7487 -0.6752 -0.2437
11148TIP3    H254860   0.622   2.927   3.286 -0.6214 -1.0370 -1.8298
11149TIP3   OH254861   5.269   1.909   5.627  0.5711  0.4685  0.1336
11149TIP3    H154862   5.344   1.968   5.637  0.9174  0.0743 -0.0875
11149TIP3    H254863   5.308   1.822   5.619  0.1412  0.3517 -0.8771
11150TIP3   OH254864   2.535   4.781  13.133 -0.2409 -0.4267  0.7199
11150TIP3    H154865   2.504   4.732  13.210 -1.1710 -2.6371 -0.9605
11150TIP3    H254866   2.475   4.756  13.063  2.0565 -0.4561 -1.3434
11151TIP3   OH254867   4.897   2.171  12.544  0.5923 -0.2825 -0.2646
11151TIP3    H154868   4.988   2.141  12.550  0.5408 -0.9723 -2.0952
11151TIP3    H254869   4.883   2.222  12.623  2.0890 -1.4626  0.8287
11152TIP3   OH254870   4.854   2.695   0.655 -0.7946  0.2280 -0.5824
11152TIP3    H154871   4.817   2.658   0.735 -0.5610  0.3354 -0.4217
11152TIP3    H254872   4.937   2.648   0.644  0.4326  1.9665  0.6601
11153TIP3   OH254873   1.467   5.942   2.886 -0.0779  0.3066  0.0209
11153TIP3    H154874   1.379   5.910   2.866 -0.5571  1.4211  0.2794
11153TIP3    H254875   1.488   5.902   2.971  0.4598 -1.4581 -0.8774
11154TIP3   OH254876   2.243   5.661   5.778 -0.5858  0.4483 -0.4430
11154TIP3    H154877   2.157   5.704   5.779 -2.2218 -2.5511 -0.7990
11154TIP3    H254878   2.257   5.633   5.868  1.6574  3.6139  0.3702
11155TIP3   OH254879   3.061   0.161  15.422 -0.0842  0.2067 -0.5315
11155TIP3    H154880   3.017   0.191  15.342 -1.4137  0.1432  0.1489
11155TIP3    H254881   3.028   0.072  15.435 -0.4295  0.4664  0.4689
11156TIP3   OH254882   3.734   3.775  12.081  0.0063 -0.2673  0.2699
11156TIP3    H154883   3.643   3.792  12.056 -0.4291  1.9378  2.9393
11156TIP3    H254884   3.778   3.859  12.072  0.8049 -0.3512  2.6381
11157TIP3   OH254885   4.746   6.546  14.119 -0.0839 -0.4460 -0.0432
11157TIP3    H154886   4.739   6.639  14.100  1.6266  0.1012  1.6281
11157TIP3    H254887   4.829   6.537  14.166  0.8446 -3.1344 -1.9414
11158TIP3   OH254888   2.215   0.833   5.350  0.1248  0.6149  0.1916
11158TIP3    H154889   2.163   0.898   5.397  0.3772  0.3130  0.9079
11158TIP3    H254890   2.212   0.861   5.259 -2.1598  0.0158  0.0351
11159TIP3   OH254891   0.270   5.926  17.120 -0.6667  0.5054  0.0995
11159TIP3    H154892   0.242   6.015  17.099  1.2379  0.9931 -0.5497
11159TIP3    H254893   0.268   5.923  17.216 -0.0754  1.4928  0.1544
11160TIP3   OH254894   2.317   3.518  10.934 -0.0999 -0.6352 -0.0523
11160TIP3    H154895   2.363   3.467  10.867  2.9278 -1.0968  2.2003
11160TIP3    H254896   2.232   3.474  10.943  0.0530 -1.5320 -2.3858
11161TIP3   OH254897   5.406   4.024  11.902 -0.1341  0.2695 -0.4583
11161TIP3    H154898   5.494   3.988  11.905 -0.2003  0.1797  1.0928
11161TIP3    H254899   5.349   3.948  11.915 -0.3670  0.5718  0.3302
11162TIP3   OH254900   0.642   1.249  16.175  0.3331 -0.5375  0.3686
11162TIP3    H154901   0.579   1.202  16.230 -0.0032  0.3446  0.7526
11162TIP3    H254902   0.613   1.232  16.086  1.7873 -3.3050  0.2996
11163TIP3   OH254903   2.171   6.447  12.548  0.4614 -0.3443 -0.1816
11163TIP3    H154904   2.162   6.379  12.615 -0.5674  0.7405  0.8528
11163TIP3    H254905   2.112   6.421  12.478 -0.3423 -0.2818  0.4487
11164TIP3   OH254906   4.113   3.950  15.896  0.0827 -0.4761 -0.0613
11164TIP3    H154907   4.154   3.935  15.981  0.8987 -0.6701 -0.4730
11164TIP3    H254908   4.181   3.995  15.845 -0.5194 -0.0499 -0.4960
11165TIP3   OH254909   0.657   2.062   5.609 -0.0481  0.6125  0.0857
11165TIP3    H154910   0.698   2.142   5.644  1.0920  0.0361  0.1355
11165TIP3    H254911   0.710   2.041   5.532  0.3306 -0.6729  0.6801
11166TIP3   OH254912   6.192   5.954  14.261  0.6228  0.0142  0.4421
11166TIP3    H154913   6.214   5.920  14.174 -0.9730  1.1223 -0.4617
11166TIP3    H254914   6.167   6.045  14.245 -1.6721 -0.3251  1.7316
11167TIP3   OH254915   3.802   6.046   4.779  0.5501 -0.3713  0.7994
11167TIP3    H154916   3.739   6.098   4.730 -0.0340 -1.9439 -0.2046
11167TIP3    H254917   3.883   6.051   4.729  1.1900  1.3701  1.9104
11168TIP3   OH254918   6.301   6.685  12.497 -0.3547 -0.0083 -0.1117
11168TIP3    H154919   6.345   6.657  12.416  0.2258  1.8079 -0.4625
11168TIP3    H254920   6.338   6.771  12.516 -2.9461  1.1198  0.2137
11169TIP3   OH254921   2.045   4.311   5.163  0.2783  0.3791 -0.4302
11169TIP3    H154922   2.134   4.341   5.145  0.9653 -0.2177  1.7530
11169TIP3    H254923   2.032   4.237   5.103  2.6255 -1.8314  1.5981
11170TIP3   OH254924   2.188   0.607   0.580  0.3442 -0.1266 -0.0419
11170TIP3    H154925   2.109   0.581   0.533  0.9371 -0.2991 -0.9726
11170TIP3    H254926   2.231   0.670   0.522  1.5380 -1.0053 -0.1571
11171TIP3   OH254927   4.259   4.957   4.378 -0.0921  0.0058  0.3700
11171TIP3    H154928   4.196   4.888   4.401  0.0557 -0.2075  0.1400
11171TIP3    H254929   4.290   4.991   4.462  1.3324 -1.5750  0.5287
11172TIP3   OH254930   4.944   0.983   0.522  0.2778 -0.1631 -0.3205
11172TIP3    H154931   4.909   1.000   0.435  1.5831  0.9714 -0.6759
11172TIP3    H254932   5.001   0.906   0.510  0.8598  0.3004 -0.6093
11173TIP3   OH254933   0.137   6.645  16.263 -0.3978 -0.3496  0.3370
11173TIP3    H154934   0.074   6.709  16.297 -0.4340  0.4032 -1.0405
11173TIP3    H254935   0.100   6.618  16.179  0.3076 -1.1675  0.2771
11174TIP3   OH254936   3.273   2.473  11.676 -0.4672  0.4967 -0.6936
11174TIP3    H154937   3.259   2.548  11.617 -1.8425 -1.3188 -2.8700
11174TIP3    H254938   3.186   2.433  11.682 -0.0197 -0.2266  1.4598
11175TIP3   OH254939   4.010   0.171   3.499  0.3487  0.3084  0.5243
11175TIP3    H154940   4.046   0.095   3.452  3.4579  0.8583  1.7861
11175TIP3    H254941   3.965   0.134   3.574 -1.0911 -0.3720 -0.6152
11176TIP3   OH254942   4.498   1.624   4.192 -0.7117 -0.0439 -1.1432
11176TIP3    H154943   4.545   1.693   4.146  1.1316 -0.6561 -0.2554
11176TIP3    H254944   4.504   1.648   4.285 -2.8986  0.2778 -1.0254
11177TIP3   OH254945   3.611   6.708   5.885 -0.1448  0.0611 -0.1837
11177TIP3    H154946   3.564   6.785   5.915 -0.6499 -1.0062  1.9945
11177TIP3    H254947   3.639   6.664   5.966  1.7962 -1.0425 -1.3624
11178TIP3   OH254948   0.384   0.673  15.876  0.5472  0.1899 -0.0215
11178TIP3    H154949   0.397   0.579  15.889  0.8311  0.3143  0.6217
11178TIP3    H254950   0.390   0.710  15.964  1.5321  0.9493 -0.3921
11179TIP3   OH254951   6.661   4.008   0.697  0.1555  0.4370 -0.0215
11179TIP3    H154952   6.700   3.989   0.783  1.0418  0.7350 -0.3384
11179TIP3    H254953   6.728   3.981   0.634 -1.0685 -1.1664 -0.6991
11180TIP3   OH254954   2.633   5.450   3.605 -0.5706 -0.3248  0.0609
11180TIP3    H154955   2.638   5.462   3.700 -0.9431  0.9946 -0.0797
11180TIP3    H254956   2.666   5.361   3.591 -1.4160 -0.8919  1.5053
11181TIP3   OH254957   0.430   4.911  16.516  0.4144  0.3626 -0.2109
11181TIP3    H154958   0.367   4.883  16.583 -0.4824  0.5754 -0.9479
11181TIP3    H254959   0.377   4.950  16.447  1.4131  1.1876 -0.5509
11182TIP3   OH254960   1.295   5.238  12.470 -0.1998  0.5423  0.1301
11182TIP3    H154961   1.327   5.195  12.391 -0.3400 -0.0601  0.3950
11182TIP3    H254962   1.371   5.284  12.505  0.8858 -2.1546  1.6380
11183TIP3   OH254963   0.298   2.954   1.253  0.7220 -1.2706 -0.9369
11183TIP3    H154964   0.341   2.996   1.327  0.8503 -0.7315 -1.3031
11183TIP3    H254965   0.234   2.894   1.292 -1.4562  1.2455 -0.3312
11184TIP3   OH254966   3.408   1.561  15.615 -0.1911 -0.6045  0.2407
11184TIP3    H154967   3.425   1.479  15.662 -2.2494 -0.8563  0.6401
11184TIP3    H254968   3.421   1.629  15.681  0.0362 -0.7235  0.3211
11185TIP3   OH254969   3.228   3.489  12.500 -0.5499 -0.0900  0.2189
11185TIP3    H154970   3.323   3.485  12.487 -0.7100  0.1500 -1.2061
11185TIP3    H254971   3.199   3.561  12.444 -1.5900 -0.2206  0.5664
11186TIP3   OH254972   3.712   1.126   5.035 -0.0619  0.3279  0.0925
11186TIP3    H154973   3.730   1.050   4.980 -1.9788  1.0767 -1.7005
11186TIP3    H254974   3.630   1.162   5.001  1.4494  4.0511 -0.1201
11187TIP3   OH254975   2.920   2.540  13.750  0.3093 -0.4662  0.0474
11187TIP3    H154976   2.910   2.499  13.836 -3.4882  0.6493  0.3227
11187TIP3    H254977   2.874   2.482  13.691 -0.3401  0.6247 -0.5407
11188TIP3   OH254978   5.707   6.258   2.267  0.5196 -0.1918  0.3335
11188TIP3    H154979   5.615   6.278   2.251  0.5718  0.0274  0.3019
11188TIP3    H254980   5.754   6.308   2.201  0.5773 -1.7477 -0.8679
11189TIP3   OH254981   4.074   4.102   3.788  0.4941 -0.6274 -0.2763
11189TIP3    H154982   4.025   4.024   3.814  0.9909 -1.4159 -1.5856
11189TIP3    H254983   4.007   4.161   3.753  0.0796 -0.3339  0.9846
11190TIP3   OH254984   1.075   3.289   3.948  0.0608 -0.0801  0.3479
11190TIP3    H154985   1.096   3.342   3.871 -0.7496 -0.6683 -0.2925
11190TIP3    H254986   1.119   3.205   3.932 -0.7046 -0.4541  0.1806
11191TIP3   OH254987   6.293   0.879  13.777 -0.7381 -0.3934  0.1331
11191TIP3    H154988   6.379   0.861  13.740 -0.7218  0.4067 -0.2305
11191TIP3    H254989   6.247   0.928  13.709 -1.1213  0.0754  0.7213
11192TIP3   OH254990   0.544   2.745   0.324  0.7362  0.2338 -0.2192
11192TIP3    H154991   0.580   2.705   0.245  1.8463  0.3927  0.1853
11192TIP3    H254992   0.596   2.708   0.395 -1.3630 -1.2687  0.6621
11193TIP3   OH254993   5.479   6.564  16.191  0.0584 -0.3337  0.2634
11193TIP3    H154994   5.453   6.586  16.280  1.0259  0.5174  0.3464
11193TIP3    H254995   5.573   6.547  16.196 -0.2013 -2.2018 -0.2543
11194TIP3   OH254996   4.047   6.037   0.581  0.6759 -0.0371  0.3036
11194TIP3    H154997   4.072   6.033   0.674  1.0472 -0.3334  0.1926
11194TIP3    H254998   4.018   6.127   0.568  0.6235  0.0064  0.7086
11195TIP3   OH254999   6.432   2.944  13.678  0.0305  0.0003  0.1638
11195TIP3    H155000   6.475   3.029  13.668 -0.5299  0.1186 -1.7088
11195TIP3    H255001   6.481   2.885  13.620 -1.6739 -0.0822 -1.2980
11196TIP3   OH255002   6.133   4.689  14.497  0.1459 -0.2356 -0.1526
11196TIP3    H155003   6.164   4.602  14.473  1.9000  0.4987 -0.7082
11196TIP3    H255004   6.203   4.748  14.469 -0.3910  1.2347  1.4494
11197TIP3   OH255005   5.512   0.256   2.129 -0.1685 -0.1900  0.0775
11197TIP3    H155006   5.483   0.224   2.043  2.6021 -0.4586 -0.8833
11197TIP3    H255007   5.493   0.185   2.189  0.9139 -1.4660 -1.0166
11198TIP3   OH255008   1.095   6.630   5.310 -0.0800  0.2992  0.1536
11198TIP3    H155009   1.046   6.651   5.230 -0.1257  1.0795  0.3698
11198TIP3    H255010   1.041   6.667   5.380 -0.6329 -1.4027  0.6661
11199TIP3   OH255011   0.039   5.628  15.830 -0.0084 -0.2500 -0.0931
11199TIP3    H155012  -0.007   5.591  15.755 -0.0658  0.1501 -0.2529
11199TIP3    H255013  -0.029   5.652  15.892 -0.0109  0.2687 -0.2971
11200TIP3   OH255014   0.178   0.379   4.365 -0.5913 -0.2403 -0.1879
11200TIP3    H155015   0.184   0.473   4.384  1.2607 -0.3605 -0.0751
11200TIP3    H255016   0.187   0.373   4.270 -0.9561 -0.3015 -0.2216
11201TIP3   OH255017   5.618   6.380   0.530 -0.0925 -0.0308 -0.6257
11201TIP3    H155018   5.562   6.391   0.607 -1.1284 -1.4522 -1.1195
11201TIP3    H255019   5.666   6.298   0.547 -0.1926 -0.2581 -1.3925
11202TIP3   OH255020   0.975   1.844  14.762  0.4962 -0.2356 -0.3754
11202TIP3    H155021   0.909   1.913  14.751 -0.8909 -1.5396 -0.6269
11202TIP3    H255022   0.953   1.779  14.696  0.3476 -1.9673  1.2903
11203TIP3   OH255023   4.393   0.733   2.120  0.6602 -0.0865  0.4157
11203TIP3    H155024   4.427   0.689   2.042 -0.1355 -1.2308  0.6889
11203TIP3    H255025   4.466   0.733   2.182  1.0556  0.1435 -0.0392
11204TIP3   OH255026   4.923   1.001  12.853 -0.5322  0.2361 -0.0689
11204TIP3    H155027   5.000   1.039  12.811 -0.3577  0.9245  0.8303
11204TIP3    H255028   4.848   1.037  12.806 -0.3206 -0.1238 -0.6930
11205TIP3   OH255029   2.510   5.622   0.616 -0.0373  0.4673  0.0123
11205TIP3    H155030   2.548   5.710   0.622 -0.6903  0.6913  1.2203
11205TIP3    H255031   2.503   5.593   0.707 -0.0230 -0.7607 -0.3630
11206TIP3   OH255032   6.121   2.646   5.510  0.1012  0.2780 -0.3293
11206TIP3    H155033   6.102   2.738   5.526  0.0335  0.3928 -1.0401
11206TIP3    H255034   6.038   2.609   5.479 -0.2544 -0.3521  1.2690
11207TIP3   OH255035   5.988   5.440  13.782  0.0618 -0.1471 -0.1879
11207TIP3    H155036   5.973   5.532  13.761  1.2806 -0.0399 -0.6592
11207TIP3    H255037   6.030   5.442  13.868 -2.2043 -0.4285  0.9979
11208TIP3   OH255038   4.888   6.393  13.737 -0.3756 -0.5198  0.6155
11208TIP3    H155039   4.818   6.415  13.676  0.6657 -1.8233 -1.1470
11208TIP3    H255040   4.855   6.316  13.784 -1.2808  0.6325  1.9603
11209TIP3   OH255041   5.063   3.771   2.281  0.0784  0.2478 -0.6487
11209TIP3    H155042   4.977   3.733   2.295 -0.3451  1.3175 -0.2401
11209TIP3    H255043   5.068   3.787   2.187  0.2905 -0.8381 -0.8388
11210TIP3   OH255044   1.712   6.754   0.867 -0.2044 -0.0808 -0.2202
11210TIP3    H155045   1.713   6.778   0.960  0.1078 -0.9066  0.0001
11210TIP3    H255046   1.620   6.745   0.846 -0.2665 -0.6150  0.2216
11211TIP3   OH255047   1.667   2.311  11.303  0.0327  0.3133 -0.0817
11211TIP3    H155048   1.664   2.345  11.393 -0.2836 -1.7377  0.7455
11211TIP3    H255049   1.606   2.366  11.254 -1.0429  0.4417  1.3493
11212TIP3   OH255050   0.112   6.409   3.587 -0.4764 -0.2860 -0.3050
11212TIP3    H155051   0.180   6.435   3.649 -1.0147 -1.5125  0.8424
11212TIP3    H255052   0.116   6.314   3.585 -0.9951 -0.2955 -1.5749
11213TIP3   OH255053   4.914   0.991  11.207  0.7004 -0.1046  0.1057
11213TIP3    H155054   4.917   1.031  11.294  3.0830 -0.1464  0.1050
11213TIP3    H255055   4.990   1.026  11.162 -0.1777 -0.5278 -1.7876
11214TIP3   OH255056   4.337   6.498  15.997 -0.4211 -0.1119  0.2692
11214TIP3    H155057   4.398   6.429  15.970  1.3032  1.1007  0.8310
11214TIP3    H255058   4.375   6.578  15.961 -1.8588  0.6565  0.4121
11215TIP3   OH255059   6.620   2.856   5.213 -0.3834  0.0512  0.0589
11215TIP3    H155060   6.645   2.815   5.131 -2.3045 -0.8383 -0.1255
11215TIP3    H255061   6.607   2.948   5.191  0.1174  0.0213 -0.3808
11216TIP3   OH255062   0.066   4.088  15.752  0.2707  0.0435  0.0790
11216TIP3    H155063   0.079   4.173  15.709 -0.4685 -1.1748 -2.8119
11216TIP3    H255064   0.095   4.024  15.688 -1.4261 -1.9751  1.2062
11217TIP3   OH255065   1.031   3.446  14.357 -0.0771  0.1661  0.2198
11217TIP3    H155066   1.013   3.385  14.429 -2.4560  1.1618  0.5458
11217TIP3    H255067   1.086   3.514  14.397  2.1079 -1.3357 -0.0087
11218TIP3   OH255068   6.200   5.933  16.157  0.1738  0.1232 -0.0249
11218TIP3    H155069   6.286   5.971  16.142  0.8386 -1.0398  0.6375
11218TIP3    H255070   6.218   5.850  16.202 -1.3532  0.3687  1.1139
11219TIP3   OH255071   2.076   6.081  12.890  0.1373  0.1146  0.4474
11219TIP3    H155072   2.127   6.002  12.906  1.2571  0.6224 -0.4614
11219TIP3    H255073   2.089   6.135  12.968 -0.7046 -0.6087  1.1097
11220TIP3   OH255074   6.106   6.549   2.235  0.2625 -0.1098  1.0043
11220TIP3    H155075   6.044   6.497   2.285  0.0149 -0.4696  0.3278
11220TIP3    H255076   6.056   6.627   2.209  0.6453  0.5121  2.0541
11221TIP3   OH255077   5.842   2.550  13.923 -0.5155  0.1106  0.0776
11221TIP3    H155078   5.771   2.488  13.908 -0.5415  0.2985 -0.5840
11221TIP3    H255079   5.822   2.588  14.009 -0.8334 -0.3362  0.2084
11222TIP3   OH255080   2.226   1.369   1.337  0.1501 -0.8480 -0.3327
11222TIP3    H155081   2.298   1.324   1.382 -0.0014  0.4576  1.3170
11222TIP3    H255082   2.265   1.400   1.255  1.6899  0.3635  0.7971
11223TIP3   OH255083   3.712   5.584   5.305  0.1847 -0.0766 -0.2447
11223TIP3    H155084   3.660   5.665   5.306 -1.7278 -1.2539  0.6038
11223TIP3    H255085   3.753   5.584   5.218 -0.3998  1.4262 -0.5614
11224TIP3   OH255086   5.985   6.173  14.228  0.1907 -0.2094  0.4174
11224TIP3    H155087   5.978   6.267  14.213  1.7890 -0.0712  0.3731
11224TIP3    H255088   5.909   6.152  14.282  1.0940  1.5846  2.5736
11225TIP3   OH255089   3.202   2.708  11.532 -0.0739  0.3482  0.1980
11225TIP3    H155090   3.161   2.751  11.457 -0.5946 -0.9449 -0.2918
11225TIP3    H255091   3.132   2.700  11.597  0.5078  1.9486  1.0701
11226TIP3   OH255092   1.936   4.219  16.128  0.5083  0.1917 -0.2501
11226TIP3    H155093   2.022   4.261  16.132  0.6901 -0.2515  1.4281
11226TIP3    H255094   1.876   4.282  16.167  0.7074 -0.8084  1.8404
11227TIP3   OH255095   2.538   1.170  15.311 -0.2767 -0.3497  0.1050
11227TIP3    H155096   2.450   1.133  15.305 -0.5976  0.1838  1.1807
11227TIP3    H255097   2.583   1.116  15.375  0.0086 -0.2863 -0.0391
11228TIP3   OH255098   0.448   0.362  13.487  0.4596 -0.8771 -0.1766
11228TIP3    H155099   0.526   0.312  13.461  1.1253  0.6147 -1.2007
11228TIP3    H255100   0.464   0.382  13.580  0.7571 -1.5353 -0.0784
11229TIP3   OH255101   5.340   5.670   3.903  0.0711  0.6010  0.2584
11229TIP3    H155102   5.433   5.654   3.890 -0.0506 -1.2580  1.2761
11229TIP3    H255103   5.296   5.597   3.860 -0.9296  1.3966 -0.1324
11230TIP3   OH255104   1.953   3.458  14.553 -0.3019 -0.1938 -0.2033
11230TIP3    H155105   2.035   3.506  14.555  0.1035 -0.8971  1.5382
11230TIP3    H255106   1.966   3.385  14.613 -1.9061 -0.8101 -0.5479
11231TIP3   OH255107   3.774   3.881   3.617  0.1099 -0.5163  0.0882
11231TIP3    H155108   3.695   3.834   3.643 -0.0960  0.1938  0.7871
11231TIP3    H255109   3.761   3.901   3.525 -0.0612 -1.2997 -0.0659
11232TIP3   OH255110   0.663   5.593   2.318  0.1136 -0.3668  0.1396
11232TIP3    H155111   0.676   5.543   2.398 -0.3570  0.0055  0.4595
11232TIP3    H255112   0.725   5.556   2.255  0.4203 -0.7220  0.6482
11233TIP3   OH255113   0.625   4.133   3.667  0.0476  0.3632 -0.0500
11233TIP3    H155114   0.535   4.160   3.648  0.5918  1.8957 -0.6323
11233TIP3    H255115   0.620   4.038   3.679 -1.5090  0.3151 -0.8346
11234TIP3   OH255116   0.940   1.746   5.017 -0.2115 -0.2487 -0.1988
11234TIP3    H155117   0.958   1.655   5.040  0.0269  0.3557  2.3994
11234TIP3    H255118   1.024   1.781   4.989 -0.7499 -1.3308 -3.6251
11235TIP3   OH255119   2.321   3.088   2.510 -0.0384 -0.3934  0.2204
11235TIP3    H155120   2.231   3.063   2.485 -0.5964 -0.0753  1.8422
11235TIP3    H255121   2.345   3.025   2.578  0.2874  0.6056  1.0555
11236TIP3   OH255122   4.806   3.139   5.389  0.1298  0.6847 -0.0777
11236TIP3    H155123   4.845   3.080   5.325  0.0757  0.6728 -0.1001
11236TIP3    H255124   4.879   3.191   5.423  0.2653  0.2208  0.3490
11237TIP3   OH255125   0.763   1.895  17.118  0.1055  0.0348  0.0404
11237TIP3    H155126   0.668   1.901  17.126  0.2056  0.7349  0.8631
11237TIP3    H255127   0.785   1.944  17.039 -0.2627 -0.6512 -0.4968
11238TIP3   OH255128   3.345   6.743   5.140  0.4714 -0.5080 -0.4297
11238TIP3    H155129   3.289   6.726   5.216  0.8375  0.5091  0.0917
11238TIP3    H255130   3.426   6.778   5.177  0.1755  1.2691 -1.3137
11239TIP3   OH255131   1.062   4.247   0.682 -0.2586  0.8332  0.1961
11239TIP3    H155132   1.087   4.166   0.726 -1.8323 -0.4292 -1.0969
11239TIP3    H255133   1.038   4.307   0.753  2.3130  0.7451  1.2585
11240TIP3   OH255134   4.887   0.667   4.709  0.2343  0.9765 -0.5379
11240TIP3    H155135   4.851   0.706   4.788  2.1095  1.1304  0.2975
11240TIP3    H255136   4.876   0.734   4.642 -0.2284  1.3396 -0.1026
11241TIP3   OH255137   6.318   1.640   3.436 -0.4310  0.2879  0.0784
11241TIP3    H155138   6.302   1.706   3.368 -1.0556 -1.5817 -1.6939
11241TIP3    H255139   6.413   1.629   3.437 -0.4099  0.3980 -0.4442
11242TIP3   OH255140   5.231   1.540   0.943 -0.4923  0.3398 -0.3526
11242TIP3    H155141   5.194   1.509   0.860  2.3994 -2.0135 -0.9252
11242TIP3    H255142   5.319   1.571   0.921 -0.0508  0.6972  1.6851
11243TIP3   OH255143   2.334   2.116   5.463 -0.1288 -0.2014 -0.3998
11243TIP3    H155144   2.322   2.159   5.547 -0.4295  0.6181 -0.8554
11243TIP3    H255145   2.265   2.151   5.407  0.7337  0.1157 -1.3163
11244TIP3   OH255146   6.649   6.578  14.684  0.0233  0.0139 -0.1511
11244TIP3    H155147   6.600   6.569  14.766 -0.2408 -0.3517 -0.3486
11244TIP3    H255148   6.612   6.655  14.642  0.0154  0.0768 -0.0300
11245TIP3   OH255149   4.808   3.690   6.655 -0.4356 -0.0021 -0.2494
11245TIP3    H155150   4.847   3.774   6.632  0.8295 -0.2914  0.7337
11245TIP3    H255151   4.882   3.635   6.680 -1.4301 -0.6730  1.3861
11246TIP3   OH255152   0.941   3.753  14.493 -0.7760  0.5160 -0.6491
11246TIP3    H155153   0.958   3.847  14.493  0.4294  0.3607 -3.0135
11246TIP3    H255154   1.024   3.714  14.468 -0.7888 -1.3611  1.7916
11247TIP3   OH255155   4.315   3.062  17.225  0.0422 -0.0473  0.1931
11247TIP3    H155156   4.281   3.003  17.157  0.9934  0.0953 -0.4255
11247TIP3    H255157   4.311   3.149  17.184  0.2706  0.0878  0.4580
11248TIP3   OH255158   3.502   5.784   1.546  0.6273 -0.1303  0.0342
11248TIP3    H155159   3.474   5.862   1.594 -0.4873  0.3199 -1.2896
11248TIP3    H255160   3.598   5.791   1.543  0.4972  2.0403 -1.3741
11249TIP3   OH255161   3.340   3.497  13.049  0.2354 -0.0694  0.2021
11249TIP3    H155162   3.334   3.427  13.113 -1.5129 -0.6067 -0.5046
11249TIP3    H255163   3.267   3.483  12.989  1.6377  0.5340 -1.8081
11250TIP3   OH255164   0.648   3.930  16.972  0.5192 -0.3086 -0.1837
11250TIP3    H155165   0.593   3.978  17.034  0.0064 -1.9943  0.7281
11250TIP3    H255166   0.727   3.909  17.022  0.4149 -1.0471 -0.3147
11251TIP3   OH255167   2.200   3.077   1.747 -0.2287  0.2767 -0.3315
11251TIP3    H155168   2.132   3.130   1.790  0.0424 -0.2919  0.8152
11251TIP3    H255169   2.160   3.051   1.664 -0.9950  0.8863 -0.1663
11252TIP3   OH255170   5.996   3.766  16.578 -0.8157 -0.0310  0.1404
11252TIP3    H155171   6.020   3.804  16.494 -0.5128 -2.7128 -1.1075
11252TIP3    H255172   5.903   3.745  16.568 -0.9316  0.2019  0.7188
11253TIP3   OH255173   4.897   0.907  14.846 -0.0251 -0.2390 -0.2219
11253TIP3    H155174   4.917   0.974  14.780 -0.0148 -0.5346 -0.5223
11253TIP3    H255175   4.982   0.871  14.870  0.1320  0.8998  1.0726
11254TIP3   OH255176   0.348   3.373  15.050  0.1275 -0.9069 -0.2860
11254TIP3    H155177   0.334   3.290  15.095 -0.2860 -2.4185 -2.9780
11254TIP3    H255178   0.296   3.436  15.099 -1.9407 -2.8380  0.1465
11255TIP3   OH255179   3.225   5.488   1.773  0.0448 -0.1421  0.1761
11255TIP3    H155180   3.312   5.496   1.734 -0.3805  0.5227 -0.6696
11255TIP3    H255181   3.234   5.522   1.861  0.5671  0.2536 -0.0298
11256TIP3   OH255182   2.850   4.182   5.686 -0.6489 -0.0637  0.7042
11256TIP3    H155183   2.941   4.210   5.673 -0.6487 -0.1259  0.5619
11256TIP3    H255184   2.831   4.128   5.608 -1.1353  0.7684  0.2344
11257TIP3   OH255185   4.854   3.372  12.014 -0.0870 -0.9255 -0.0445
11257TIP3    H155186   4.903   3.446  12.049  0.5508 -1.4438  0.1866
11257TIP3    H255187   4.766   3.406  11.999 -0.7470 -0.9599  3.1857
11258TIP3   OH255188   2.282   2.361  15.284 -0.3951  0.1157  0.2227
11258TIP3    H155189   2.200   2.337  15.327 -1.0107  0.1915 -0.8879
11258TIP3    H255190   2.272   2.454  15.264 -0.2328  0.0182 -0.3279
11259TIP3   OH255191   6.260   0.963  12.078 -0.2755 -0.0867  0.0812
11259TIP3    H155192   6.238   1.043  12.127  2.7679  0.8817  0.0900
11259TIP3    H255193   6.225   0.892  12.131 -1.8552  1.1489  0.7898
11260TIP3   OH255194   3.627   3.022   4.365  0.3876 -0.2570 -0.3792
11260TIP3    H155195   3.584   2.941   4.336 -2.1545  0.3095  1.5008
11260TIP3    H255196   3.678   2.996   4.441  2.8749 -0.7429 -2.0713
11261TIP3   OH255197   1.491   0.204  13.503  0.0686 -0.1798  0.4244
11261TIP3    H155198   1.563   0.142  13.493 -0.0462 -0.2466 -0.0179
11261TIP3    H255199   1.433   0.186  13.429  0.4704  1.0341 -0.2308
11262TIP3   OH255200   0.123   2.504  11.393  0.1972 -0.1584  0.1779
11262TIP3    H155201   0.105   2.486  11.300  2.0737 -2.5562  0.1779
11262TIP3    H255202   0.201   2.560  11.392  0.8855 -1.1008  0.2967
11263TIP3   OH255203   4.978   3.939   4.893  0.0031  0.1967  0.0911
11263TIP3    H155204   4.938   3.996   4.827  0.8317 -1.9292 -2.4340
11263TIP3    H255205   5.071   3.958   4.888  0.0360  0.2911  0.9647
11264TIP3   OH255206   0.230   6.473   1.950  0.0116 -0.5508 -0.1202
11264TIP3    H155207   0.260   6.384   1.966  0.3712 -0.2104  1.2233
11264TIP3    H255208   0.157   6.485   2.011  0.6927  0.4405  0.5307
11265TIP3   OH255209   0.369   6.340  11.297 -0.7676 -0.1048  0.1556
11265TIP3    H155210   0.461   6.319  11.280 -1.1630 -0.8939 -1.2583
11265TIP3    H255211   0.345   6.400  11.226 -1.2802  0.3223  0.6796
11266TIP3   OH255212   4.699   5.886   4.648  0.1182  0.0637 -0.7792
11266TIP3    H155213   4.764   5.935   4.597 -0.1843  1.2929 -0.0168
11266TIP3    H255214   4.720   5.794   4.630  2.3574  0.3965 -0.2298
11267TIP3   OH255215   2.211   0.968   2.875  0.0486 -0.4067 -0.0852
11267TIP3    H155216   2.198   0.960   2.969  1.1426 -0.1697  0.1049
11267TIP3    H255217   2.298   0.931   2.859  1.2099  2.2243 -0.5329
11268TIP3   OH255218   3.292   2.073   1.649  0.2358 -0.2981 -0.4164
11268TIP3    H155219   3.223   2.021   1.607 -0.9544  1.9200 -1.3452
11268TIP3    H255220   3.343   2.108   1.577  0.7256  0.2155  0.1710
11269TIP3   OH255221   3.019   4.391   0.240 -0.0182 -0.2156 -0.2975
11269TIP3    H155222   2.959   4.318   0.224 -2.3057  1.1802  1.3212
11269TIP3    H255223   3.039   4.426   0.154 -0.2666 -1.6854 -0.9731
11270TIP3   OH255224   5.084   5.089  13.531  0.4054 -0.0252  0.5855
11270TIP3    H155225   5.121   5.095  13.443  1.2632  0.1218  0.9535
11270TIP3    H255226   5.015   5.023  13.523 -0.4477  0.9449 -0.5080
11271TIP3   OH255227   4.721   0.665  13.917 -0.3915  0.1627 -0.0594
11271TIP3    H155228   4.807   0.642  13.881 -0.3865  1.7380 -1.1296
11271TIP3    H255229   4.732   0.655  14.012  1.3659  1.4498 -0.0750
11272TIP3   OH255230   0.497   3.287   1.305  0.1607  0.5892  0.0615
11272TIP3    H155231   0.488   3.286   1.401  1.7524 -2.8817  0.3418
11272TIP3    H255232   0.549   3.365   1.286  0.3032  1.0392  2.0703
11273TIP3   OH255233   1.893   3.126  15.486 -0.7308  0.2722 -0.0677
11273TIP3    H155234   1.897   3.045  15.536  2.4336  1.7365  2.4300
11273TIP3    H255235   1.819   3.174  15.523  1.7006  1.4578  3.8936
11274TIP3   OH255236   0.623   1.839  13.567 -0.1599  0.5287 -0.1308
11274TIP3    H155237   0.533   1.870  13.562  0.1762  1.4680 -0.5654
11274TIP3    H255238   0.615   1.745  13.586 -1.1986  0.9886  1.9859
11275TIP3   OH255239   0.580   5.646   3.898  0.8769  0.2046 -0.1142
11275TIP3    H155240   0.497   5.606   3.870  1.2667  0.0146 -1.0192
11275TIP3    H255241   0.612   5.692   3.820  1.4495  0.5835  0.3361
11276TIP3   OH255242   2.462   0.203   2.025 -0.3381  0.0713  0.1505
11276TIP3    H155243   2.544   0.198   2.075  0.7118 -3.3891 -1.5979
11276TIP3    H255244   2.397   0.164   2.082  0.0399 -0.4580  0.2285
11277TIP3   OH255245   4.449   2.583   5.732  0.2432 -0.1356  0.5232
11277TIP3    H155246   4.381   2.517   5.722 -0.4503  0.4727  1.1584
11277TIP3    H255247   4.443   2.636   5.652  1.8189 -1.7188 -0.7264
11278TIP3   OH255248   3.896   4.244  10.445  0.2833 -0.0080 -0.3680
11278TIP3    H155249   3.821   4.188  10.469 -0.0365  0.2501 -0.7669
11278TIP3    H255250   3.858   4.331  10.433  0.6164  0.0789 -0.7886
11279TIP3   OH255251   1.592   1.649   1.185  0.7315 -0.1594 -0.1335
11279TIP3    H155252   1.642   1.577   1.144  2.5681  0.7892  0.3380
11279TIP3    H255253   1.656   1.719   1.195 -0.3626  0.6180  1.8441
11280TIP3   OH255254   5.582   3.200  14.857 -0.2189  0.1288 -0.0928
11280TIP3    H155255   5.489   3.199  14.876 -0.1506 -0.2208  0.2269
11280TIP3    H255256   5.602   3.112  14.826  0.4895 -0.6292  2.2685
11281TIP3   OH255257   2.678   5.243  11.777 -0.1272 -0.5673  0.2492
11281TIP3    H155258   2.599   5.294  11.795  0.0192 -0.7751  1.5033
11281TIP3    H255259   2.749   5.306  11.782  0.1320 -0.9813  2.5130
11282TIP3   OH255260   4.335   3.889   0.862  0.5783 -0.0844  0.7366
11282TIP3    H155261   4.292   3.818   0.815  1.4298 -1.3577  1.8051
11282TIP3    H255262   4.264   3.937   0.904  0.0476 -0.9008  0.7909
11283TIP3   OH255263   0.580   2.403  13.706 -0.1301  0.4800 -0.7872
11283TIP3    H155264   0.629   2.430  13.783  2.0331  0.0803 -1.9376
11283TIP3    H255265   0.500   2.363  13.741  1.3757 -0.8863  1.3092
11284TIP3   OH255266   1.251   4.282  13.145 -0.6698 -0.0072  0.4673
11284TIP3    H155267   1.196   4.257  13.219 -0.8671  0.0503  0.3400
11284TIP3    H255268   1.190   4.291  13.072 -0.4290 -0.4073  0.2166
11285TIP3   OH255269   3.793   5.490   1.856  0.0864 -0.0252 -0.3951
11285TIP3    H155270   3.759   5.476   1.767  3.0226  1.0451 -1.8290
11285TIP3    H255271   3.866   5.428   1.864 -0.3080 -0.3184  1.4488
11286TIP3   OH255272   1.339   2.632   0.099 -0.1903  0.2541 -0.2508
11286TIP3    H155273   1.405   2.566   0.080 -0.6804  0.0449 -1.2844
11286TIP3    H255274   1.259   2.600   0.057 -1.1710  0.1354  1.5981
11287TIP3   OH255275   0.994   6.014   6.129  0.5849  0.1620  0.2333
11287TIP3    H155276   1.035   6.101   6.128 -1.4916  1.2685 -3.0535
11287TIP3    H255277   0.900   6.032   6.131  0.1112 -1.9885 -0.7958
11288TIP3   OH255278   2.351   0.400  14.435 -0.3131 -0.0116  0.3829
11288TIP3    H155279   2.267   0.429  14.470  0.2435  0.7122  1.1427
11288TIP3    H255280   2.344   0.304  14.433 -1.4095  0.0700 -0.2270
11289TIP3   OH255281   0.514   3.965  15.882  0.4942  0.0577 -0.6717
11289TIP3    H155282   0.487   4.023  15.953  2.1508 -0.1729  0.2018
11289TIP3    H255283   0.489   4.011  15.802  0.1058  1.1025  0.0353
11290TIP3   OH255284   4.662   3.921   2.332 -0.3190 -0.4066  0.8158
11290TIP3    H155285   4.569   3.942   2.321 -0.4340 -0.8805  0.8675
11290TIP3    H255286   4.706   4.006   2.329 -0.8970 -0.0180  2.2769
11291TIP3   OH255287   5.530   5.890   4.572  0.1790 -0.0575  0.0667
11291TIP3    H155288   5.490   5.865   4.655 -0.7965 -0.1722 -0.4319
11291TIP3    H255289   5.610   5.837   4.568  0.7355  0.6226  1.3521
11292TIP3   OH255290   2.101   0.886  12.150 -0.9684  0.4483  0.5838
11292TIP3    H155291   2.160   0.859  12.221  0.2615 -1.8331 -1.1583
11292TIP3    H255292   2.129   0.975  12.129  1.0470 -0.0966  0.6870
11293TIP3   OH255293   5.016   6.045  13.328  0.2652  0.7698  0.8223
11293TIP3    H155294   5.038   5.988  13.255  1.1336 -2.0301  3.0554
11293TIP3    H255295   4.960   6.113  13.291  1.1459 -0.1489 -2.4725
11294TIP3   OH255296   2.302   3.907  17.074 -0.3154  0.5184  0.1637
11294TIP3    H155297   2.394   3.918  17.098 -0.2894 -0.8868  0.8353
11294TIP3    H255298   2.255   3.917  17.157 -0.4786 -1.6729  0.3854
11295TIP3   OH255299   1.785   1.031  12.177  0.2450  0.4786  0.3261
11295TIP3    H155300   1.823   0.985  12.252  0.3665 -0.4453 -0.2798
11295TIP3    H255301   1.705   1.071  12.211  0.9664  1.1775  1.2554
11296TIP3   OH255302   2.258   6.114  15.509 -0.7692  0.7379 -0.1459
11296TIP3    H155303   2.251   6.209  15.519  1.2049  0.8195  0.9706
11296TIP3    H255304   2.279   6.101  15.417 -1.9528  1.2842 -0.5161
11297TIP3   OH255305   6.380   2.897  15.362 -0.4764 -0.3175 -0.6518
11297TIP3    H155306   6.326   2.959  15.411 -0.2327 -0.6425  0.0444
11297TIP3    H255307   6.461   2.945  15.344  2.2575 -2.0053  4.8987
11298TIP3   OH255308   2.482   4.412  11.356  0.3667 -0.4298  0.4853
11298TIP3    H155309   2.478   4.321  11.327 -3.4088  0.5891 -3.2374
11298TIP3    H255310   2.420   4.417  11.428  1.0871 -0.8855  1.1470
11299TIP3   OH255311   6.191   1.281  10.786 -0.0850 -0.1473  0.3155
11299TIP3    H155312   6.099   1.296  10.806  0.0810  1.2790  0.0859
11299TIP3    H255313   6.236   1.359  10.817  0.7623  0.1138 -1.4298
11300TIP3   OH255314   0.811   4.174   0.580  0.1130 -0.3295 -0.0987
11300TIP3    H155315   0.894   4.203   0.618  0.4737 -0.5083 -0.7337
11300TIP3    H255316   0.774   4.253   0.539 -0.8836  0.1649  1.6550
11301TIP3   OH255317   3.847   0.955   4.875 -0.2412 -0.1561  0.1120
11301TIP3    H155318   3.933   0.967   4.835 -0.2396 -1.9533 -0.5115
11301TIP3    H255319   3.785   0.976   4.804 -0.4274  2.3018  0.8800
11302TIP3   OH255320   4.094   6.581   5.680  0.1496  0.0467  0.7236
11302TIP3    H155321   4.083   6.568   5.774 -0.9456  1.5273  0.8442
11302TIP3    H255322   4.065   6.671   5.666  2.8958  0.8341 -0.6122
11303TIP3   OH255323   2.411   3.704  13.505 -1.1349  0.5639 -0.5955
11303TIP3    H155324   2.447   3.733  13.422 -1.9738  0.2775 -1.0707
11303TIP3    H255325   2.324   3.744  13.509 -1.7890 -0.7939 -0.6680
11304TIP3   OH255326   3.403   3.986  14.723  0.4265 -0.3222  0.3011
11304TIP3    H155327   3.387   3.937  14.643  0.3141 -0.5796  0.4842
11304TIP3    H255328   3.353   3.941  14.790  1.1409 -0.5658  0.6743
11305TIP3   OH255329   0.420   3.632  12.424  0.2365  0.3054 -0.6890
11305TIP3    H155330   0.505   3.646  12.384 -1.0301  0.7072 -3.5298
11305TIP3    H255331   0.395   3.543  12.398 -0.0380  0.0100  0.5150
11306TIP3   OH255332   4.764   6.744   3.959  0.4268 -0.2492  0.4904
11306TIP3    H155333   4.739   6.712   4.045  1.0235 -2.3718 -0.0663
11306TIP3    H255334   4.685   6.731   3.905 -0.0592  1.3957  0.7532
11307TIP3   OH255335   0.045   5.797  12.917 -1.0953 -0.1838 -0.5387
11307TIP3    H155336   0.053   5.708  12.951 -0.1959  0.1368  0.1187
11307TIP3    H255337  -0.037   5.796  12.867 -2.4229 -0.6962  1.5325
11308TIP3   OH255338   6.222   4.803  14.801  0.0961 -0.1888 -0.0189
11308TIP3    H155339   6.296   4.856  14.830  0.0213 -0.2003  0.1960
11308TIP3    H255340   6.156   4.866  14.774 -0.3482 -0.1498  1.1198
11309TIP3   OH255341   5.779   3.088   6.064  0.5139 -0.1305  0.0329
11309TIP3    H155342   5.784   3.016   6.001  2.0726  0.2260 -0.2893
11309TIP3    H255343   5.833   3.060   6.137  1.0038  0.6223 -0.0258
11310TIP3   OH255344   4.358   4.259   2.938 -0.3322  0.0380  0.4748
11310TIP3    H155345   4.392   4.239   2.851  0.6429  0.1438  0.8078
11310TIP3    H255346   4.336   4.174   2.975 -1.0787  0.0195  0.0087
11311TIP3   OH255347   1.368   0.810   3.511  0.2552  0.1288 -0.4010
11311TIP3    H155348   1.403   0.744   3.451  0.6906  0.0003 -0.0105
11311TIP3    H255349   1.313   0.761   3.572  0.1021  0.2097 -0.4736
11312TIP3   OH255350   6.678   4.008   5.975 -0.0650 -0.0471 -0.1126
11312TIP3    H155351   6.754   3.960   5.943  0.4138  1.0226 -0.6062
11312TIP3    H255352   6.615   3.939   5.999  0.9588 -0.9348  0.1036
11313TIP3   OH255353   0.122   5.654   3.961 -0.2424 -0.5148 -0.1689
11313TIP3    H155354   0.169   5.596   4.021  0.5967  0.1041 -0.2206
11313TIP3    H255355   0.122   5.739   4.004 -0.7163 -0.3496 -0.4855
11314TIP3   OH255356   4.738   5.819   5.571 -0.1134  0.3521 -0.5913
11314TIP3    H155357   4.750   5.861   5.486 -3.8604  2.2422 -0.3844
11314TIP3    H255358   4.798   5.865   5.630 -0.7590  2.2625 -1.3504
11315TIP3   OH255359   0.799   6.681   2.649 -0.5227 -0.3868 -0.5440
11315TIP3    H155360   0.857   6.757   2.647 -0.2231 -0.6274 -1.5058
11315TIP3    H255361   0.859   6.606   2.651 -0.8127 -0.6086  1.0722
11316TIP3   OH255362   2.618   1.446   0.937 -0.0090  0.2868  0.0483
11316TIP3    H155363   2.647   1.520   0.883  3.3316 -1.2699 -0.5878
11316TIP3    H255364   2.555   1.400   0.882 -0.8044  1.6756 -0.2501
11317TIP3   OH255365   6.745   5.868   5.062  0.6132  0.0408 -0.2023
11317TIP3    H155366   6.769   5.928   4.992  0.0359  0.0403 -0.4083
11317TIP3    H255367   6.815   5.803   5.063  0.2186 -0.4397 -1.3602
11318TIP3   OH255368   1.813   5.038   5.340  0.0908 -0.4796  0.3884
11318TIP3    H155369   1.782   5.089   5.265 -0.2140  0.8766  1.3788
11318TIP3    H255370   1.784   5.089   5.416  2.9535 -0.2063  1.4148
11319TIP3   OH255371   0.385   2.491   0.152  0.4169  0.2225 -0.0861
11319TIP3    H155372   0.359   2.512   0.242 -0.2115  1.5103 -0.5444
11319TIP3    H255373   0.363   2.399   0.142  0.8707 -0.0584  1.2048
11320TIP3   OH255374   5.355   0.645  13.210 -0.3830 -0.2764  0.3148
11320TIP3    H155375   5.401   0.649  13.127 -1.6338 -0.1588 -0.3980
11320TIP3    H255376   5.343   0.737  13.235  0.0199 -0.3118  0.6499
11321TIP3   OH255377   0.226   6.681  13.995  0.0388 -0.3103  0.1495
11321TIP3    H155378   0.193   6.771  13.991  2.2477  0.4931 -3.4436
11321TIP3    H255379   0.290   6.683  14.066  0.0728  0.9268  0.1128
11322TIP3   OH255380   6.443   0.826  15.865  0.3503  0.5994  0.3311
11322TIP3    H155381   6.415   0.914  15.840 -0.1711  0.1428 -0.7730
11322TIP3    H255382   6.524   0.811  15.815 -0.6301 -0.2743 -1.0727
11323TIP3   OH255383   0.620   3.547  17.317 -0.3489  0.0163 -0.2892
11323TIP3    H155384   0.594   3.638  17.329 -1.0626  0.0318 -1.6732
11323TIP3    H255385   0.565   3.498  17.377 -0.7918  0.4062 -0.3673
11324TIP3   OH255386   1.933   1.245  13.215 -0.6050 -0.2471  0.1312
11324TIP3    H155387   2.005   1.273  13.271 -0.5129  0.6895 -0.4338
11324TIP3    H255388   1.973   1.225  13.131 -1.2398  2.6564 -0.9667
11325TIP3   OH255389   4.709   6.215  14.775 -0.3593  0.2662  0.4322
11325TIP3    H155390   4.653   6.253  14.708  1.9069  0.0590 -1.7507
11325TIP3    H255391   4.797   6.219  14.738  0.6710 -2.4545  2.2047
11326TIP3   OH255392   6.468   1.567  13.579 -0.3423  0.3404  1.0830
11326TIP3    H155393   6.406   1.495  13.580 -1.0007  0.8594  0.0876
11326TIP3    H255394   6.464   1.601  13.489  2.2657 -0.3460  0.6263
11327TIP3   OH255395   3.963   2.486  13.604  0.0970 -0.1923  0.1426
11327TIP3    H155396   3.901   2.498  13.533 -0.1361  0.4362  0.4440
11327TIP3    H255397   3.910   2.457  13.678  0.0369  1.0452  0.6058
11328TIP3   OH255398   3.016   0.963   1.403  0.3885 -0.1321  0.2185
11328TIP3    H155399   3.085   0.988   1.466 -1.1615 -0.3965  2.1200
11328TIP3    H255400   2.986   1.046   1.366 -0.4112  0.3121  1.7790
11329TIP3   OH255401   1.712   4.883  15.385  0.5438 -0.0961 -0.4463
11329TIP3    H155402   1.695   4.812  15.447 -1.1759  1.4849  1.0225
11329TIP3    H255403   1.693   4.963  15.434  3.0314  1.4627 -1.8221
11330TIP3   OH255404   3.782   1.032  12.886  0.5894 -0.3454 -0.1014
11330TIP3    H155405   3.713   1.017  12.822  0.7315 -0.2540 -0.2767
11330TIP3    H255406   3.802   0.945  12.921  0.2688 -0.3523  0.0751
11331TIP3   OH255407   2.022   5.048   3.600 -0.1767 -0.4036  0.7971
11331TIP3    H155408   2.116   5.066   3.613  0.0783 -0.5737 -0.6705
11331TIP3    H255409   2.014   4.953   3.607  0.1667 -0.6245 -1.2723
11332TIP3   OH255410   1.994   4.728  16.916 -0.5444  0.1610  0.4060
11332TIP3    H155411   1.976   4.635  16.902 -1.0032  0.3684 -0.3917
11332TIP3    H255412   1.971   4.770  16.833  2.7475  0.5817 -0.4055
11333TIP3   OH255413   1.245   5.385  12.248 -0.0881  0.1136 -0.0930
11333TIP3    H155414   1.269   5.322  12.316  1.2522  0.8835  0.1751
11333TIP3    H255415   1.247   5.470  12.292  1.6638  0.7223 -1.2659
11334TIP3   OH255416   2.611   3.897   4.720 -0.0329  0.1454  0.0779
11334TIP3    H155417   2.559   3.963   4.674  0.4382  0.7725  0.4185
11334TIP3    H255418   2.555   3.869   4.792  0.3787  1.4446  0.9557
11335TIP3   OH255419   0.378   5.223  11.486  0.2329  0.6024  0.5639
11335TIP3    H155420   0.347   5.153  11.544 -1.3363  1.1035  0.3647
11335TIP3    H255421   0.454   5.260  11.532  1.8281 -1.9359  0.1459
11336TIP3   OH255422   5.123   5.254   6.611  0.0734  0.5427  0.6117
11336TIP3    H155423   5.179   5.195   6.662 -1.1689 -1.0421  0.2298
11336TIP3    H255424   5.173   5.270   6.530  0.8113  0.7623  1.0991
11337TIP3   OH255425   3.139   4.345  11.964 -0.5607  0.3383  0.3012
11337TIP3    H155426   3.051   4.327  11.930 -0.8413  1.7021  0.2508
11337TIP3    H255427   3.166   4.425  11.918 -0.4899  1.5928  2.4339
11338TIP3   OH255428   5.601   5.310  11.673  0.4758 -0.4151 -0.1993
11338TIP3    H155429   5.669   5.376  11.685  1.0729 -0.7579 -1.5638
11338TIP3    H255430   5.646   5.236  11.632  0.2812 -2.5252  2.9802
11339TIP3   OH255431   3.918   4.171   4.547 -0.3239 -0.2519  0.8382
11339TIP3    H155432   3.935   4.079   4.570 -1.1448 -0.2342  1.5445
11339TIP3    H255433   3.823   4.179   4.548 -0.2690  0.5496  0.5055
11340TIP3   OH255434   5.102   1.490  15.478  0.0424 -0.0836 -0.5269
11340TIP3    H155435   5.161   1.473  15.405  0.8683 -0.8549  0.2863
11340TIP3    H255436   5.160   1.507  15.552 -0.7648  1.8718 -0.2750
11341TIP3   OH255437   1.633   4.471  12.388  0.3724 -0.3882 -0.0160
11341TIP3    H155438   1.723   4.455  12.362  0.4696 -0.7051  0.5089
11341TIP3    H255439   1.581   4.409  12.336  0.4997 -0.5199  0.0139
11342TIP3   OH255440   6.291   5.694  11.950 -0.1633  0.5235  0.0065
11342TIP3    H155441   6.281   5.653  11.864  0.3463 -0.1647  0.2663
11342TIP3    H255442   6.350   5.768  11.934 -0.3019  0.5750 -0.2866
11343TIP3   OH255443   4.415   1.381  14.343  0.2827  0.3504  0.1297
11343TIP3    H155444   4.360   1.460  14.341 -0.1643  0.0396 -0.1301
11343TIP3    H255445   4.406   1.344  14.255  0.8064  0.2232  0.1280
11344TIP3   OH255446   2.697   2.822   5.858  0.2411  0.2274 -0.1837
11344TIP3    H155447   2.679   2.753   5.794  0.4405 -0.8532  0.8869
11344TIP3    H255448   2.610   2.850   5.887  0.1542  0.6029 -0.7903
11345TIP3   OH255449   1.463   4.882   2.075  0.0980 -0.2751  0.0840
11345TIP3    H155450   1.460   4.959   2.132  0.9344 -0.5669  0.5478
11345TIP3    H255451   1.372   4.863   2.054 -0.1141  0.9980 -0.2507
11346TIP3   OH255452   1.290   1.736  14.273 -0.0484  0.0280 -0.5949
11346TIP3    H155453   1.349   1.790  14.220  1.3077  0.9301  1.6803
11346TIP3    H255454   1.333   1.650  14.276  0.7223  0.4208  0.2710
11347TIP3   OH255455   3.837   6.087  12.852  0.0144 -0.1700  0.0997
11347TIP3    H155456   3.928   6.110  12.831 -0.0142 -0.2334 -0.0975
11347TIP3    H255457   3.809   6.032  12.778  0.0765 -0.8184  0.5536
11348TIP3   OH255458   4.346   4.236  16.062 -0.4909  0.1061  0.0972
11348TIP3    H155459   4.409   4.297  16.102 -0.5286 -0.8222  1.6670
11348TIP3    H255460   4.372   4.232  15.970  1.4164  0.1724  0.5826
11349TIP3   OH255461   0.927   5.363  16.792 -0.5142 -0.0569  0.4020
11349TIP3    H155462   0.962   5.453  16.791 -2.4279  0.7231 -0.5175
11349TIP3    H255463   0.867   5.361  16.867  1.7492 -1.5636  2.3239
11350TIP3   OH255464   1.810   2.372  17.188  0.7562 -0.4427 -0.0503
11350TIP3    H155465   1.725   2.334  17.211  0.8257  0.1297  1.2110
11350TIP3    H255466   1.827   2.339  17.100 -1.3029  0.3277 -0.8104
11351TIP3   OH255467   1.331   4.794  12.917  0.7600 -0.0404  0.2665
11351TIP3    H155468   1.379   4.711  12.923  1.9619  0.5613 -0.6391
11351TIP3    H255469   1.375   4.852  12.978  2.6601  1.1637 -2.0846
11352TIP3   OH255470   6.432   3.633  14.139  0.2544  0.2563  0.2415
11352TIP3    H155471   6.370   3.599  14.204  1.3789 -1.0215  0.6946
11352TIP3    H255472   6.387   3.623  14.055 -0.9547  1.3118  0.7287
11353TIP3   OH255473   1.346   5.414  16.741  0.5426 -0.7228  0.2514
11353TIP3    H155474   1.295   5.339  16.772  0.4915 -0.9570 -0.3783
11353TIP3    H255475   1.280   5.482  16.726  0.5813 -0.5668  0.7595
11354TIP3   OH255476   2.314   0.480   0.898 -0.0441 -0.6093 -0.4889
11354TIP3    H155477   2.273   0.567   0.898 -2.2727 -1.3934  3.4056
11354TIP3    H255478   2.255   0.426   0.844 -0.8048 -0.4203  0.1238
11355TIP3   OH255479   4.000   5.908  14.471  0.1095 -0.0370  0.3729
11355TIP3    H155480   4.086   5.937  14.439 -0.1153  0.8296  0.5320
11355TIP3    H255481   4.008   5.911  14.567  0.3782 -1.4114  0.4050
11356TIP3   OH255482   0.150   2.051   2.866 -0.0506  0.0669 -0.2733
11356TIP3    H155483   0.098   2.070   2.787 -0.9367  2.0275  0.6979
11356TIP3    H255484   0.234   2.093   2.850 -0.6423  1.5200  0.2580
11357TIP3   OH255485   6.593   4.265   5.940 -0.3751  0.3156  0.3926
11357TIP3    H155486   6.506   4.259   5.980 -0.4493 -0.8514  0.0902
11357TIP3    H255487   6.622   4.175   5.932  0.4530  0.6342 -0.4171
11358TIP3   OH255488   3.148   4.754   4.433 -0.3083 -0.5568  0.1044
11358TIP3    H155489   3.168   4.665   4.463  0.5246 -1.0248 -1.6957
11358TIP3    H255490   3.071   4.743   4.377  0.8698 -0.4648 -1.5837
11359TIP3   OH255491   0.897   6.670  16.303  0.0800 -0.1731 -0.2326
11359TIP3    H155492   0.952   6.627  16.238  0.2195  0.8745 -0.8290
11359TIP3    H255493   0.838   6.725  16.252 -1.5229 -1.2461  0.4024
11360TIP3   OH255494   3.021   6.644  15.397 -0.0798  0.1443 -0.5178
11360TIP3    H155495   3.086   6.577  15.418 -1.3720 -1.1652 -0.5209
11360TIP3    H255496   3.025   6.651  15.301 -0.2154 -0.2163 -0.5497
11361TIP3   OH255497   1.998   4.432   4.086 -0.3178 -0.3393  0.2093
11361TIP3    H155498   1.960   4.419   4.173  0.6576  0.5935  0.7909
11361TIP3    H255499   2.070   4.368   4.082 -0.9677 -1.0526 -0.3002
11362TIP3   OH255500   3.503   0.807  13.758 -0.5248 -0.1164 -0.1421
11362TIP3    H155501   3.513   0.714  13.776 -0.1675  0.1403  1.0765
11362TIP3    H255502   3.565   0.850  13.817 -1.4394  0.9441  0.0875
11363TIP3   OH255503   3.049   6.298   4.503  0.2537 -0.0964 -0.0631
11363TIP3    H155504   3.000   6.234   4.452 -0.4900  0.2023  0.2505
11363TIP3    H255505   3.140   6.286   4.477  0.0411 -0.8280 -0.4881
11364TIP3   OH255506   0.440   1.366   1.596  0.2397 -0.3837  0.0350
11364TIP3    H155507   0.350   1.334   1.587  0.2641 -0.1728 -1.0833
11364TIP3    H255508   0.478   1.312   1.665 -1.0120  0.1318  1.1775
11365TIP3   OH255509   4.371   1.528   4.855  0.7898 -0.3332  0.0960
11365TIP3    H155510   4.410   1.598   4.907 -0.7529 -1.6113  3.2235
11365TIP3    H255511   4.437   1.459   4.855  0.2509 -0.8832  1.7143
11366TIP3   OH255512   4.923   4.354   2.462  0.1964  0.2955 -0.2938
11366TIP3    H155513   4.945   4.448   2.458  0.8138  0.1574 -0.2345
11366TIP3    H255514   4.984   4.318   2.526 -0.8926  0.0810  0.6684
11367TIP3   OH255515   5.994   0.122  16.186  0.1621  0.1196  0.4378
11367TIP3    H155516   5.987   0.209  16.225 -0.5071 -0.1593  0.9455
11367TIP3    H255517   5.961   0.133  16.097 -2.5197 -0.1596  1.3178
11368TIP3   OH255518   5.644   2.582   1.141  0.4739 -0.3274 -0.2452
11368TIP3    H155519   5.639   2.500   1.190  0.6391 -0.9905 -1.2898
11368TIP3    H255520   5.588   2.643   1.189  2.2803 -0.2946  1.9413
11369TIP3   OH255521   3.440   3.632  11.444 -0.0248  0.3338 -0.2205
11369TIP3    H155522   3.482   3.676  11.370 -1.1469 -0.7555 -1.5700
11369TIP3    H255523   3.346   3.644  11.428 -0.2934  0.6144  1.3850
11370TIP3   OH255524   0.695   6.455  13.371 -0.1853 -0.1691  0.2998
11370TIP3    H155525   0.601   6.444  13.386  0.0810  0.0146  2.3975
11370TIP3    H255526   0.709   6.549  13.368  0.0722 -0.1708  1.1674
11371TIP3   OH255527   5.346   3.444   0.467  0.2591 -0.2339  0.4729
11371TIP3    H155528   5.311   3.490   0.543  0.3737  2.0293 -0.7683
11371TIP3    H255529   5.434   3.418   0.494  1.0410  2.2675  0.5241
11372TIP3   OH255530   4.200   6.702   2.389 -0.0295 -0.3469 -0.1822
11372TIP3    H155531   4.126   6.652   2.423  0.0494 -0.0116  0.4895
11372TIP3    H255532   4.208   6.777   2.448  0.3504  0.0428 -0.7144
11373TIP3   OH255533   6.452   2.622   5.278 -0.0069 -0.2324 -0.1541
11373TIP3    H155534   6.528   2.642   5.224  0.8847 -0.2919  1.0508
11373TIP3    H255535   6.382   2.676   5.242  1.3925  2.3064  0.6896
11374TIP3   OH255536   0.222   1.953   1.088  0.2288  0.0731 -0.2260
11374TIP3    H155537   0.140   1.995   1.062 -0.2284 -0.1574  0.8072
11374TIP3    H255538   0.245   1.995   1.171  0.8135 -0.3098 -0.1914
11375TIP3   OH255539   0.860   1.453   0.317  0.5302  0.1499  0.4732
11375TIP3    H155540   0.811   1.426   0.395  1.4614  0.0580  1.0327
11375TIP3    H255541   0.922   1.518   0.348 -0.5868  1.7987 -0.5941
11376TIP3   OH255542   0.461   1.694  14.106  0.9115  0.6396  0.3403
11376TIP3    H155543   0.555   1.708  14.120  1.0354  0.1417  0.0469
11376TIP3    H255544   0.448   1.709  14.013  0.8764 -0.2072  0.1997
11377TIP3   OH255545   1.484   4.075   0.777 -0.2990 -0.1404 -0.4654
11377TIP3    H155546   1.569   4.087   0.820 -1.6880 -1.4601  3.0481
11377TIP3    H255547   1.492   3.991   0.731  0.0477 -0.7783  0.7143
11378TIP3   OH255548   6.431   2.709  11.892 -0.6532  0.0404  0.3398
11378TIP3    H155549   6.458   2.742  11.978 -0.9776 -2.3362  1.4474
11378TIP3    H255550   6.489   2.634  11.876  0.6770  1.5124 -2.4582
11379TIP3   OH255551   4.966   2.375   5.646 -0.3519  0.1685  0.1674
11379TIP3    H155552   5.018   2.302   5.681 -1.8031 -1.0137 -0.0613
11379TIP3    H255553   4.923   2.339   5.569 -2.1334  0.8583  0.7943
11380TIP3   OH255554   0.078   3.866  14.231 -0.3104 -0.1073 -0.3771
11380TIP3    H155555   0.125   3.859  14.315  0.4664  2.0183 -0.5613
11380TIP3    H255556   0.146   3.853  14.165 -1.0397 -2.4548 -0.7513
11381TIP3   OH255557   3.573   2.198   2.648 -0.3938 -0.3544 -0.1640
11381TIP3    H155558   3.638   2.208   2.578  0.4023  2.4920  0.8474
11381TIP3    H255559   3.497   2.248   2.617 -0.4097  0.0742  0.5369
11382TIP3   OH255560   4.765   2.545   3.326  0.1312  0.3097 -0.3503
11382TIP3    H155561   4.838   2.525   3.268  1.3727  1.8141  0.6241
11382TIP3    H255562   4.718   2.617   3.283 -2.0424 -1.8932 -1.9474
11383TIP3   OH255563   3.034   1.304   0.273 -0.1041 -0.0129  0.2351
11383TIP3    H155564   2.992   1.226   0.310  1.2290  0.3469  2.7018
11383TIP3    H255565   3.123   1.303   0.307  0.5779  1.5530 -1.3217
11384TIP3   OH255566   4.659   2.766   4.526 -0.6363  0.7926  0.2574
11384TIP3    H155567   4.673   2.823   4.450 -0.8331  0.3200 -0.1330
11384TIP3    H255568   4.748   2.749   4.559 -0.6462  4.1063  2.4900
11385TIP3   OH255569   3.302   0.122  16.670 -0.6637  0.0149 -0.2056
11385TIP3    H155570   3.295   0.189  16.601 -3.0458  0.8941  0.7898
11385TIP3    H255571   3.326   0.042  16.623 -1.1187  0.8391 -1.9315
11386TIP3   OH255572   0.683   3.612  13.056 -0.4812 -0.3009  0.3258
11386TIP3    H155573   0.672   3.567  13.140  0.7102  0.1956  0.7653
11386TIP3    H255574   0.771   3.650  13.060 -0.8122  0.6283 -0.7264
11387TIP3   OH255575   5.687   0.925  17.142  0.3517 -0.3091 -0.7428
11387TIP3    H155576   5.694   0.850  17.083 -2.2231  0.1438 -1.7577
11387TIP3    H255577   5.777   0.942  17.171  1.2147 -2.7145 -1.7935
11388TIP3   OH255578   0.972   3.616   1.840  0.0080 -0.0145  0.2020
11388TIP3    H155579   1.018   3.680   1.894  1.8171 -1.2374  0.1957
11388TIP3    H255580   1.041   3.563   1.801 -1.3968 -1.8226  0.0128
11389TIP3   OH255581   0.618   0.576   5.887  0.1841  0.2839 -0.4494
11389TIP3    H155582   0.614   0.643   5.954  0.0577 -0.7103  0.5681
11389TIP3    H255583   0.704   0.535   5.899  0.0768 -0.0380 -0.7535
11390TIP3   OH255584   4.589   2.631  13.156  0.0894  0.8343 -0.0753
11390TIP3    H155585   4.599   2.537  13.175 -2.9759  0.8171  2.0001
11390TIP3    H255586   4.628   2.641  13.068  1.5368 -2.0964  0.0979
11391TIP3   OH255587   3.611   0.984  12.070 -0.1890 -0.2882 -0.3777
11391TIP3    H155588   3.612   0.965  12.164  1.1710  0.1976 -0.2648
11391TIP3    H255589   3.535   1.041  12.058 -0.7897 -0.9143  0.2920
11392TIP3   OH255590   5.867   0.435   3.524 -0.3429 -0.3352  0.0552
11392TIP3    H155591   5.876   0.527   3.496 -0.8548 -0.8412 -1.9373
11392TIP3    H255592   5.837   0.440   3.615  0.4602  1.4596  0.2646
11393TIP3   OH255593   4.681   6.465  12.039 -0.5857  0.4558  0.2290
11393TIP3    H155594   4.603   6.501  11.998  0.0165 -1.0510 -2.5730
11393TIP3    H255595   4.649   6.394  12.095 -1.2980  0.4954 -0.1190
11394TIP3   OH255596   0.576   0.928   3.848 -0.0130 -0.6072 -0.4995
11394TIP3    H155597   0.524   0.848   3.857  0.6926 -0.8584  2.4172
11394TIP3    H255598   0.664   0.902   3.877  0.4072  1.0352 -0.2196
11395TIP3   OH255599   2.858   2.270   2.946  0.3029 -0.1910 -0.2354
11395TIP3    H155600   2.928   2.277   3.011 -0.6975  0.3724  0.8262
11395TIP3    H255601   2.888   2.324   2.873  1.7300 -1.3427 -0.5440
11396TIP3   OH255602   3.625   2.926  17.090  0.6216 -0.4844  0.0682
11396TIP3    H155603   3.595   2.856  17.147 -0.2023 -2.0945 -2.1828
11396TIP3    H255604   3.551   2.986  17.085 -1.3457 -2.8913 -3.0590
11397TIP3   OH255605   0.331   1.600   3.645  0.3084 -0.0890 -0.7383
11397TIP3    H155606   0.389   1.584   3.719  0.7254 -0.2635 -1.0953
11397TIP3    H255607   0.381   1.658   3.588  0.2429 -0.4592 -1.1799
11398TIP3   OH255608   6.339   3.892  15.714  0.1620 -0.0861 -0.4822
11398TIP3    H155609   6.267   3.888  15.776 -1.0808 -1.1012 -1.9188
11398TIP3    H255610   6.333   3.980  15.676 -0.0484 -0.0079 -0.2673
11399TIP3   OH255611   1.691   0.847  16.078 -0.1033  0.2519  0.1054
11399TIP3    H155612   1.705   0.811  16.165 -0.1199  0.3008  0.1294
11399TIP3    H255613   1.718   0.777  16.018  1.2352  0.7284  0.1386
11400TIP3   OH255614   1.632   3.564  11.603 -0.3641  0.1867 -0.1744
11400TIP3    H155615   1.539   3.584  11.614 -0.4640 -0.2134 -0.2904
11400TIP3    H255616   1.671   3.586  11.687  0.1079  4.0152 -1.1807
11401TIP3   OH255617   1.037   0.545  13.192  0.2985  0.1942  0.6495
11401TIP3    H155618   0.988   0.554  13.110  1.3559 -2.3632 -0.3695
11401TIP3    H255619   1.122   0.584  13.173  0.2699  0.3463  0.8313
11402TIP3   OH255620   5.272   5.144  11.152  0.2717 -0.0282 -0.1044
11402TIP3    H155621   5.251   5.052  11.136 -1.8677  0.3101  0.4482
11402TIP3    H255622   5.197   5.178  11.200  2.6042  1.1209  3.1270
11403TIP3   OH255623   5.343   1.933  13.725  0.5500  0.2217  0.0549
11403TIP3    H155624   5.417   1.966  13.776  2.2305 -4.2070  1.0114
11403TIP3    H255625   5.267   1.947  13.781  0.4101  4.8916 -0.9479
11404TIP3   OH255626   2.501   6.335  13.432 -0.3068  0.1322 -0.4070
11404TIP3    H155627   2.535   6.400  13.495 -2.4322 -0.5376  1.5758
11404TIP3    H255628   2.567   6.265  13.433 -0.0001  0.4057  0.6741
11405TIP3   OH255629   1.468   1.866  11.951  0.0282 -0.0638 -0.2609
11405TIP3    H155630   1.375   1.864  11.929  0.2958 -0.9759 -1.4049
11405TIP3    H255631   1.470   1.853  12.046 -1.0391  0.8881 -0.0918
11406TIP3   OH255632   4.858   4.197   4.068 -0.8621  0.1271 -0.3755
11406TIP3    H155633   4.792   4.264   4.055  0.1389  1.1178 -0.5373
11406TIP3    H255634   4.810   4.114   4.066 -2.0454  0.8076 -0.7138
11407TIP3   OH255635   2.938   0.843  15.922 -0.2104  0.2756  0.1035
11407TIP3    H155636   2.995   0.766  15.925  0.0562  0.5000  1.2058
11407TIP3    H255637   2.852   0.808  15.900  0.3545 -0.0575 -1.6883
11408TIP3   OH255638   5.824   0.554   2.754 -0.3455  0.3100 -0.7255
11408TIP3    H155639   5.882   0.531   2.682  0.9874 -0.3385  0.5098
11408TIP3    H255640   5.864   0.514   2.831 -0.3501  3.0228  0.8067
11409TIP3   OH255641   1.254   0.633  16.178 -0.9137 -0.6174 -0.3222
11409TIP3    H155642   1.324   0.699  16.177 -1.0891 -0.4335 -1.1375
11409TIP3    H255643   1.179   0.678  16.217 -0.1428 -1.3080  2.1481
11410TIP3   OH255644   2.985   6.208   6.737 -0.0518 -0.2992 -0.2119
11410TIP3    H155645   2.914   6.273   6.728  1.1572  0.9281 -1.3018
11410TIP3    H255646   2.946   6.126   6.706 -1.0712  0.2989 -0.5742
11411TIP3   OH255647   3.501   4.683   2.592  1.0971 -0.4934 -0.5903
11411TIP3    H155648   3.475   4.719   2.677 -1.9665 -0.8111 -1.2513
11411TIP3    H255649   3.494   4.756   2.532  1.6567 -0.6443 -0.8449
11412TIP3   OH255650   3.694   1.787  12.210 -0.5904  0.6179  0.1568
11412TIP3    H155651   3.600   1.800  12.199 -1.1502 -2.1019  0.8983
11412TIP3    H255652   3.720   1.734  12.134  0.5852  2.0856 -0.5211
11413TIP3   OH255653   3.540   6.260  11.280  0.6132 -0.5147  0.0042
11413TIP3    H155654   3.521   6.179  11.327 -1.0265  0.0601  0.3836
11413TIP3    H255655   3.511   6.244  11.191  1.1497 -0.6458 -0.1527
11414TIP3   OH255656   0.575   0.370   4.839 -0.2123  1.1608  0.0054
11414TIP3    H155657   0.522   0.405   4.912 -0.2226 -1.0210  1.1381
11414TIP3    H255658   0.513   0.364   4.766 -1.2574 -0.1360  0.9398
11415TIP3   OH255659   2.291   0.131  17.201 -0.5438 -0.2365 -0.3220
11415TIP3    H155660   2.368   0.116  17.146  0.3373  2.3536  0.0773
11415TIP3    H255661   2.316   0.096  17.287  0.3446  0.8926 -0.1071
11416TIP3   OH255662   1.862   3.036   6.305 -0.2886 -0.6701 -0.2414
11416TIP3    H155663   1.927   3.095   6.342 -0.3937 -0.3922 -0.4972
11416TIP3    H255664   1.782   3.054   6.355 -0.2444 -0.7974 -0.1269
11417TIP3   OH255665   4.198   2.825   3.204  0.1785 -0.3895 -0.6628
11417TIP3    H155666   4.246   2.794   3.281  0.3510 -0.9917 -1.0029
11417TIP3    H255667   4.175   2.745   3.156  0.9033  0.0035 -1.7220
11418TIP3   OH255668   2.819   6.308  12.970 -0.4575 -0.9414  0.1663
11418TIP3    H155669   2.847   6.223  13.005  0.4551 -1.0524 -0.7973
11418TIP3    H255670   2.787   6.356  13.046  3.9015 -0.1509  1.7874
11419TIP3   OH255671   5.283   0.109  15.296  0.2159  0.3225 -0.1621
11419TIP3    H155672   5.263   0.058  15.217  1.5011  1.3694 -1.2030
11419TIP3    H255673   5.340   0.051  15.347 -1.0983 -0.5932  0.3257
11420TIP3   OH255674   6.481   4.503   1.314 -0.1483 -0.3922  0.5430
11420TIP3    H155675   6.545   4.557   1.361  1.6664 -0.7734 -1.3451
11420TIP3    H255676   6.501   4.517   1.222 -1.6024 -1.9827 -0.0625
11421TIP3   OH255677   4.312   5.876  14.334 -0.0348 -0.1003 -0.1238
11421TIP3    H155678   4.351   5.926  14.263  1.7912 -0.8202  0.3170
11421TIP3    H255679   4.294   5.942  14.402  0.6670  0.2087 -0.2309
11422TIP3   OH255680   2.971   2.114  15.522  0.4235 -0.0191 -0.0971
11422TIP3    H155681   3.046   2.115  15.582  0.6279 -0.3620 -0.3415
11422TIP3    H255682   2.978   2.030  15.477 -0.0292  0.0116 -0.2247
11423TIP3   OH255683   6.778   5.509  14.556 -0.6566  0.4369 -0.1472
11423TIP3    H155684   6.713   5.558  14.506 -1.8728  1.2995  2.1122
11423TIP3    H255685   6.748   5.517  14.647  0.7306 -2.0668  0.6106
11424TIP3   OH255686   6.525   2.964  12.941  0.1407  0.4375  0.2232
11424TIP3    H155687   6.484   2.878  12.945  1.1189 -0.2122 -2.0964
11424TIP3    H255688   6.535   2.991  13.032 -0.6108 -1.6842  0.9780
11425TIP3   OH255689   2.216   3.852   2.117  0.3563 -0.0163 -0.2506
11425TIP3    H155690   2.214   3.946   2.105 -0.1145 -0.2168 -1.9498
11425TIP3    H255691   2.124   3.825   2.111  0.1078 -0.3060  3.0844
11426TIP3   OH255692   5.000   3.079   1.263 -0.1232 -0.1700  0.3516
11426TIP3    H155693   4.953   3.114   1.188  1.3510  0.1877 -0.4178
11426TIP3    H255694   5.092   3.094   1.245  0.3124 -0.6328  1.9520
11427TIP3   OH255695   0.847   2.396  11.537 -0.4167 -0.2563 -0.2863
11427TIP3    H155696   0.852   2.403  11.633  0.5305  0.1077 -0.3533
11427TIP3    H255697   0.890   2.313  11.517 -0.3659 -0.1989 -0.4128
11428TIP3   OH255698   0.814   6.050   1.773  0.3381 -0.0973  0.1296
11428TIP3    H155699   0.853   5.997   1.843  1.2589  0.2367 -0.1200
11428TIP3    H255700   0.883   6.110   1.747  0.5046 -1.1640 -2.0726
11429TIP3   OH255701   5.766   4.637   2.670 -0.0851 -0.0846 -0.4343
11429TIP3    H155702   5.755   4.565   2.608 -0.0891  0.1926 -0.7612
11429TIP3    H255703   5.845   4.682   2.641  0.8857 -0.9628  0.7920
11430TIP3   OH255704   1.324   3.298   1.898 -0.2966 -0.2563 -0.0009
11430TIP3    H155705   1.261   3.277   1.828  1.3895 -1.9257 -1.1168
11430TIP3    H255706   1.274   3.351   1.959 -3.0881 -2.2212 -0.3643
11431TIP3   OH255707   0.018   0.844  12.708 -0.1074 -0.2917  0.0666
11431TIP3    H155708  -0.060   0.862  12.656  0.4355 -0.0417 -0.6790
11431TIP3    H255709   0.053   0.762  12.672  0.7080  0.2942 -0.4912
11432TIP3   OH255710   4.384   0.778  11.565 -0.0224  0.1131  0.4468
11432TIP3    H155711   4.420   0.849  11.618  0.5873  0.1475 -0.0032
11432TIP3    H255712   4.455   0.714  11.558 -0.9193 -1.0617  1.7501
11433TIP3   OH255713   4.342   6.710   5.194  0.4877  0.5717 -0.1606
11433TIP3    H155714   4.411   6.680   5.134  0.6273  0.6300 -0.0297
11433TIP3    H255715   4.381   6.704   5.281  0.6747  1.5659 -0.1648
11434TIP3   OH255716   0.255   2.767  11.866 -0.1659 -0.0105  0.4189
11434TIP3    H155717   0.295   2.783  11.951  1.3911 -1.6175  0.0476
11434TIP3    H255718   0.252   2.853  11.824 -0.5002  0.7198  1.8803
11435TIP3   OH255719   3.882   5.770  12.472 -0.9739  0.4366  0.0166
11435TIP3    H155720   3.787   5.770  12.472 -1.0776 -1.7465  2.2653
11435TIP3    H255721   3.907   5.712  12.400 -1.4100  0.0768  0.1522
11436TIP3   OH255722   2.080   0.493   5.379  0.2969 -0.8462  0.2656
11436TIP3    H155723   2.109   0.585   5.385 -1.9259  0.1186 -1.9970
11436TIP3    H255724   2.136   0.455   5.313 -1.9520  0.4629 -2.6317
11437TIP3   OH255725   1.528   1.372   5.368  0.1364  0.2896 -0.0073
11437TIP3    H155726   1.502   1.280   5.376 -1.5944  0.5806 -1.8015
11437TIP3    H255727   1.588   1.374   5.293  2.7255  0.2192  1.8981
11438TIP3   OH255728   3.366   4.092  16.902  0.0433 -0.4470  0.1620
11438TIP3    H155729   3.391   4.172  16.856  0.2869 -0.0038  1.0456
11438TIP3    H255730   3.358   4.026  16.833  0.0272  0.2896 -0.5534
11439TIP3   OH255731   4.911   3.863  13.712  0.0463  0.0921 -0.0466
11439TIP3    H155732   4.919   3.894  13.622 -0.2481 -0.1765 -0.1649
11439TIP3    H255733   4.832   3.905  13.746  0.0551  0.0506  0.0272
11440TIP3   OH255734   6.688   4.370  14.239 -0.2388 -0.1473 -0.8464
11440TIP3    H155735   6.662   4.419  14.317 -1.4826  0.1263 -1.4116
11440TIP3    H255736   6.778   4.344  14.256  0.6093  2.6063 -0.6575
11441TIP3   OH255737   5.528   3.789   0.365  0.3245  0.3978 -0.4315
11441TIP3    H155738   5.438   3.809   0.340 -0.2225 -0.2275  0.9822
11441TIP3    H255739   5.581   3.852   0.315 -0.8329  0.3533 -1.7644
11442TIP3   OH255740   0.667   5.112  17.092 -0.0462 -0.3220 -0.5008
11442TIP3    H155741   0.734   5.044  17.097  0.6688  0.3101 -1.1833
11442TIP3    H255742   0.605   5.091  17.162  0.6860 -1.1061 -0.0788
11443TIP3   OH255743   5.376   5.773  11.146  0.2009 -0.0218 -0.3831
11443TIP3    H155744   5.343   5.696  11.191  2.5869 -0.6458  0.4854
11443TIP3    H255745   5.298   5.818  11.112 -1.2781 -2.5732 -0.5644
11444TIP3   OH255746   1.926   1.480  15.342  0.4584 -0.4755  0.2095
11444TIP3    H155747   1.844   1.485  15.293 -0.2766 -2.2362  1.1852
11444TIP3    H255748   1.991   1.450  15.278  0.6506  1.9065 -0.8309
11445TIP3   OH255749   2.734   4.270  14.936 -0.2413 -0.0190 -0.2281
11445TIP3    H155750   2.696   4.354  14.909 -2.0685 -0.7488 -0.1337
11445TIP3    H255751   2.818   4.293  14.974  0.0492  1.5905 -1.6900
11446TIP3   OH255752   6.698   5.491  11.639  0.0737  0.2029 -0.1691
11446TIP3    H155753   6.750   5.525  11.566  0.0025 -1.0158 -0.8070
11446TIP3    H255754   6.763   5.454  11.699  0.2970  2.7315  1.2921
11447TIP3   OH255755   5.116   5.833  14.505 -0.0695  0.1750 -0.3183
11447TIP3    H155756   5.134   5.904  14.566  0.0417  0.3306 -0.5277
11447TIP3    H255757   5.056   5.775  14.551 -0.6541  0.7291 -0.3683
11448TIP3   OH255758   5.036   3.739   1.177 -0.0499  0.2815  0.4588
11448TIP3    H155759   5.073   3.706   1.095 -1.0205  1.2177 -0.3798
11448TIP3    H255760   5.074   3.826   1.187 -0.6522  0.5386  0.5242
11449TIP3   OH255761   4.685   1.761   5.612  0.2040 -0.2892 -0.5093
11449TIP3    H155762   4.768   1.718   5.635 -0.0336 -0.6240 -0.2673
11449TIP3    H255763   4.617   1.700   5.642 -0.1407  0.2979 -0.0891
11450TIP3   OH255764   4.212   0.790   1.860 -0.1161 -0.0173  0.4372
11450TIP3    H155765   4.188   0.794   1.953 -0.5574  1.1743  0.2955
11450TIP3    H255766   4.307   0.782   1.860  0.0341  1.4853  1.0062
11451TIP3   OH255767   0.435   6.102  15.274  0.0889  0.0129  0.4405
11451TIP3    H155768   0.384   6.096  15.193  1.0116 -2.1312 -0.0462
11451TIP3    H255769   0.525   6.118  15.244  0.1721  0.9968  1.1550
11452TIP3   OH255770   1.056   6.355  16.908  0.1572  0.2271 -0.2342
11452TIP3    H155771   1.128   6.381  16.965  0.2094  2.2475 -1.1470
11452TIP3    H255772   0.989   6.322  16.968  0.4824  1.6220  0.9517
11453TIP3   OH255773   3.156   5.930   0.172  0.4292 -0.8223  0.0497
11453TIP3    H155774   3.145   5.889   0.257  0.0344  1.5528  1.2287
11453TIP3    H255775   3.237   5.980   0.179 -0.2745  0.4582 -0.4623
11454TIP3   OH255776   5.346   0.794  15.225  0.3542  0.2685  0.6180
11454TIP3    H155777   5.287   0.868  15.214 -1.9558 -1.6117 -0.7683
11454TIP3    H255778   5.339   0.771  15.318 -1.2100  0.0515  0.4727
11455TIP3   OH255779   0.105   3.241  14.447  0.1793  0.2354 -0.1460
11455TIP3    H155780   0.158   3.180  14.395  2.0091  0.8218  0.9146
11455TIP3    H255781   0.168   3.308  14.474 -1.0503  0.7595  1.5309
11456TIP3   OH255782   6.066   2.840  16.071  0.2687  0.7223 -0.1570
11456TIP3    H155783   6.161   2.832  16.059  0.3406  1.1431  0.1102
11456TIP3    H255784   6.047   2.932  16.055 -0.3747  0.3064 -1.9938
11457TIP3   OH255785   4.604   0.441   2.315  0.2255 -0.3888  0.0146
11457TIP3    H155786   4.606   0.537   2.323 -1.4206 -0.1585 -1.7795
11457TIP3    H255787   4.521   0.416   2.356  0.8621 -1.1453  0.8964
11458TIP3   OH255788   6.380   4.900  17.161  0.1624  0.0850 -0.0572
11458TIP3    H155789   6.438   4.830  17.194  1.2300 -0.1923 -2.3414
11458TIP3    H255790   6.304   4.897  17.220  0.2104 -2.9374  0.0277
11459TIP3   OH255791   6.305   2.346   0.690  0.0967  0.0745 -0.3922
11459TIP3    H155792   6.400   2.335   0.684 -0.1236 -1.2628 -2.3994
11459TIP3    H255793   6.287   2.349   0.784  2.0637 -0.1191  0.0313
11460TIP3   OH255794   0.588   4.352  16.544  0.5332  0.2226 -0.2425
11460TIP3    H155795   0.669   4.345  16.494  1.0235  0.5429  0.4988
11460TIP3    H255796   0.541   4.424  16.502 -0.0310 -0.8662 -1.5649
11461TIP3   OH255797   1.740   5.754   2.570 -0.1364  0.1254 -0.0261
11461TIP3    H155798   1.718   5.750   2.477 -0.7608  1.7892  0.0173
11461TIP3    H255799   1.668   5.707   2.613  0.6781 -1.5460 -0.4125
11462TIP3   OH255800   0.409   6.490   5.742 -0.4580  0.9231  0.1894
11462TIP3    H155801   0.376   6.506   5.830  1.0516  2.8065  0.5037
11462TIP3    H255802   0.497   6.453   5.756  0.6760  3.1807 -0.3887
11463TIP3   OH255803   4.949   0.044  13.617 -0.3622 -0.1258  0.1451
11463TIP3    H155804   4.940  -0.010  13.695  1.2809 -0.3546  0.2165
11463TIP3    H255805   5.005   0.117  13.645  0.3615 -0.2800 -0.8371
11464TIP3   OH255806   3.802   5.896  13.063 -0.1795  0.2043  0.0967
11464TIP3    H155807   3.724   5.887  13.009  0.5038 -1.5418 -0.6920
11464TIP3    H255808   3.860   5.952  13.012 -0.9538  1.6609  0.7696
11465TIP3   OH255809   4.489   5.153   0.920  0.3272  0.5281  0.3557
11465TIP3    H155810   4.413   5.097   0.934  1.1554 -0.4121  1.2811
11465TIP3    H255811   4.454   5.243   0.925 -0.5980  0.1355  1.6448
11466TIP3   OH255812   5.469   0.730  14.628  0.7307  0.4949  0.4379
11466TIP3    H155813   5.559   0.699  14.613  0.1609 -1.6719  1.0666
11466TIP3    H255814   5.430   0.735  14.540  0.5763 -1.6440  0.3322
11467TIP3   OH255815   5.373   5.444  11.668  0.8505  0.0854  0.4090
11467TIP3    H155816   5.458   5.408  11.641 -0.3954 -1.5184 -1.7151
11467TIP3    H255817   5.323   5.367  11.697 -0.9544  0.4235 -1.5651
11468TIP3   OH255818   1.029   2.510   3.481 -0.3356  0.4842  0.0542
11468TIP3    H155819   0.940   2.481   3.462 -0.1262 -0.7832  0.9481
11468TIP3    H255820   1.038   2.501   3.576  0.5329  1.2482  0.0619
11469TIP3   OH255821   2.382   6.333  12.767  0.1706 -0.1689  0.7532
11469TIP3    H155822   2.378   6.428  12.775  0.9074 -0.1717  1.2713
11469TIP3    H255823   2.471   6.315  12.737 -0.1776 -0.6572 -0.0149
11470TIP3   OH255824   3.225   5.301  12.887  0.1879 -0.2843  0.5893
11470TIP3    H155825   3.202   5.217  12.926 -0.3079 -0.2968  0.2779
11470TIP3    H255826   3.313   5.320  12.920  1.6079 -2.3701 -1.6835
11471TIP3   OH255827   3.488   5.007   5.341  0.1675 -0.1917 -0.1366
11471TIP3    H155828   3.518   5.071   5.405 -0.0375 -0.8822  0.6610
11471TIP3    H255829   3.430   5.057   5.283  1.7566  0.8566 -0.8984
11472TIP3   OH255830   2.665   6.524  13.577 -0.3434 -0.1758 -0.2653
11472TIP3    H155831   2.678   6.556  13.666  1.5456  1.2094 -0.9632
11472TIP3    H255832   2.723   6.448  13.570  0.4912  0.4770 -0.6546
11473TIP3   OH255833   6.628   0.540  16.360  0.5148 -0.5811 -0.1064
11473TIP3    H155834   6.671   0.504  16.437 -1.0663 -1.3638  0.4526
11473TIP3    H255835   6.689   0.524  16.288  1.0626 -1.8245  0.6122
11474TIP3   OH255836   5.602   5.630  16.812 -0.0632  0.6111 -1.0766
11474TIP3    H155837   5.544   5.704  16.830 -4.5924 -2.6779 -0.4422
11474TIP3    H255838   5.647   5.654  16.731 -0.7053  4.2912 -0.5131
11475TIP3   OH255839   0.962   6.440   1.924 -0.2511  0.5080  0.2728
11475TIP3    H155840   0.868   6.443   1.908 -0.2457  0.9805  0.3171
11475TIP3    H255841   0.978   6.351   1.956 -0.6015  0.2692 -0.2064
11476TIP3   OH255842   0.278   3.781  14.406  0.4435 -0.7498  0.2547
11476TIP3    H155843   0.327   3.775  14.325 -0.8127  0.2500 -0.6283
11476TIP3    H255844   0.254   3.691  14.427 -1.0776 -0.8801 -1.7183
11477TIP3   OH255845   5.820   3.443   2.189  0.2533 -0.9033  0.0305
11477TIP3    H155846   5.746   3.382   2.182  0.7920 -1.4359 -1.4591
11477TIP3    H255847   5.891   3.390   2.226  0.5644 -1.0552 -0.7615
11478TIP3   OH255848   1.989   3.028  11.180  0.0002 -0.4209  0.1414
11478TIP3    H155849   2.001   2.952  11.236  0.4593 -0.5579 -0.1333
11478TIP3    H255850   2.072   3.076  11.186 -0.8676  0.9632  1.6362
11479TIP3   OH255851   5.827   0.786  15.171 -0.4409 -0.0456 -0.2018
11479TIP3    H155852   5.748   0.740  15.200  0.2027 -2.9878 -2.5513
11479TIP3    H255853   5.823   0.783  15.075  2.2830  0.0172 -0.3974
11480TIP3   OH255854   2.637   3.360   3.033  0.7749  0.6576 -0.0412
11480TIP3    H155855   2.575   3.331   3.100 -0.0256  1.5261 -0.3900
11480TIP3    H255856   2.621   3.301   2.959  0.5788  0.6901 -0.0243
11481TIP3   OH255857   2.911   3.148   1.397 -0.0005  0.4040  0.0724
11481TIP3    H155858   2.935   3.134   1.489  1.3515 -0.8118 -0.4196
11481TIP3    H255859   2.912   3.244   1.386  2.4383  0.5275  0.7279
11482TIP3   OH255860   3.961   0.801  16.499 -0.1744  0.2442  0.0537
11482TIP3    H155861   3.907   0.820  16.575 -1.3115  3.1907 -1.3495
11482TIP3    H255862   3.900   0.766  16.433 -0.0259  1.5866 -0.8346
11483TIP3   OH255863   3.766   2.835  13.109 -0.0368  0.2749 -0.3912
11483TIP3    H155864   3.787   2.770  13.042  2.2001  1.0660 -0.5405
11483TIP3    H255865   3.774   2.788  13.192 -0.3706 -0.0896 -0.5605
11484TIP3   OH255866   4.139   6.050   5.688 -0.1755  0.2506  0.1840
11484TIP3    H155867   4.169   6.137   5.715  0.3646  0.3398 -0.6773
11484TIP3    H255868   4.060   6.067   5.637  0.8294  0.4017 -1.3968
11485TIP3   OH255869   4.576   3.847  16.280  0.0034  0.1950  0.3205
11485TIP3    H155870   4.599   3.798  16.359 -1.7284  1.3161  1.5981
11485TIP3    H255871   4.489   3.814  16.256 -1.4246  2.8384  1.4879
11486TIP3   OH255872   2.268   4.084  12.953 -0.7007 -0.2694  0.5565
11486TIP3    H155873   2.351   4.083  13.001 -0.2411 -1.7533 -0.2000
11486TIP3    H255874   2.280   4.020  12.883 -1.8044  0.9058 -0.7748
11487TIP3   OH255875   0.660   5.980  12.911 -0.5563  0.1247  0.4938
11487TIP3    H155876   0.585   6.022  12.952  0.6985  1.2979  1.6465
11487TIP3    H255877   0.727   5.977  12.979  0.4109 -1.0458 -0.4590
11488TIP3   OH255878   3.344   0.407   2.652  0.1333  0.1688 -0.4794
11488TIP3    H155879   3.369   0.496   2.676  0.8514 -0.4257  1.0782
11488TIP3    H255880   3.249   0.409   2.648  0.1699  1.2416 -1.4973
11489TIP3   OH255881   0.341   1.195  12.319  0.4712 -0.0912  0.1023
11489TIP3    H155882   0.307   1.177  12.231  0.0097 -0.6112  0.3864
11489TIP3    H255883   0.385   1.280  12.310  0.9025 -0.3877 -0.7648
11490TIP3   OH255884   5.588   0.940  13.560  0.5536  0.4568  0.1643
11490TIP3    H155885   5.495   0.953  13.575  0.1206 -1.8908 -0.1044
11490TIP3    H255886   5.602   0.968  13.470  0.1724  1.0618  0.2888
11491TIP3   OH255887   2.331   3.815  12.849 -0.4809  0.4021  0.0032
11491TIP3    H155888   2.335   3.802  12.754 -2.0009 -3.7646  0.3094
11491TIP3    H255889   2.409   3.771  12.883  0.1103  1.9549  0.7640
11492TIP3   OH255890   5.363   6.346   4.717  0.8437 -0.3496 -0.3660
11492TIP3    H155891   5.441   6.301   4.684  2.2499  1.7984 -0.1246
11492TIP3    H255892   5.339   6.406   4.647  0.0805 -0.1987  0.0216
11493TIP3   OH255893   2.022   1.495  12.342 -0.7179  0.1620  0.1379
11493TIP3    H155894   2.002   1.403  12.321 -2.0286  0.2039  1.0640
11493TIP3    H255895   2.106   1.511  12.301 -0.4181 -1.4913  0.0272
11494TIP3   OH255896   4.155   2.840  14.745 -0.1388 -0.1961  0.1679
11494TIP3    H155897   4.204   2.921  14.736 -0.8885  0.1765 -0.6727
11494TIP3    H255898   4.064   2.865  14.729 -0.5701 -0.9330  1.3656
11495TIP3   OH255899   1.736   3.348   0.918  0.1839  0.6926 -0.3715
11495TIP3    H155900   1.686   3.277   0.876 -0.8911  0.7763  0.7067
11495TIP3    H255901   1.824   3.341   0.880  0.7556 -2.5855  1.2141
11496TIP3   OH255902   5.873   1.361   6.132 -0.0603 -0.1148  0.2950
11496TIP3    H155903   5.865   1.390   6.223  2.3542 -0.8343  0.8144
11496TIP3    H255904   5.859   1.266   6.135  0.5655 -0.2223  0.0212
11497TIP3   OH255905   4.856   1.685  10.679  0.3583 -0.5060  0.1260
11497TIP3    H155906   4.798   1.612  10.658 -0.4452 -0.7994  2.9599
11497TIP3    H255907   4.820   1.760  10.631 -0.2304 -1.4322 -0.9105
11498TIP3   OH255908   6.021   2.673   4.357  0.6362 -0.0524 -0.0179
11498TIP3    H155909   6.105   2.716   4.364  0.1861  0.5249  2.6431
11498TIP3    H255910   5.968   2.709   4.428 -1.4897 -1.2392 -0.8758
11499TIP3   OH255911   1.621   1.788  15.399  0.0918  0.6513 -0.3854
11499TIP3    H155912   1.650   1.865  15.349 -0.9806 -0.2586 -2.5412
11499TIP3    H255913   1.570   1.825  15.471 -0.0780  2.0010 -1.1491
11500TIP3   OH255914   5.885   4.813   4.834  0.1712  0.3219  0.3591
11500TIP3    H155915   5.880   4.865   4.914  0.0222  2.0781 -0.7510
11500TIP3    H255916   5.979   4.796   4.822  0.2692  0.8044  0.4410
11501TIP3   OH255917   3.366   4.335   5.190  0.3811 -0.0044 -0.3975
11501TIP3    H155918   3.419   4.387   5.250  1.8745 -2.0794  0.1831
11501TIP3    H255919   3.379   4.377   5.105  0.3233  1.4267  0.2683
11502TIP3   OH255920   3.772   0.412   2.061  0.4759 -0.2287 -0.1197
11502TIP3    H155921   3.715   0.479   2.099 -1.3620 -1.9283  0.3182
11502TIP3    H255922   3.858   0.453   2.056 -0.1280  1.4808  2.0184
11503TIP3   OH255923   4.316   4.183  14.712  0.0321  0.0299  0.4916
11503TIP3    H155924   4.340   4.092  14.697  0.1945  0.3356 -1.3511
11503TIP3    H255925   4.376   4.233  14.657 -0.7732  1.1899  0.6227
11504TIP3   OH255926   6.279   3.821   0.894  0.2559  0.2565 -0.2950
11504TIP3    H155927   6.278   3.746   0.834  0.4071  0.0833 -0.0847
11504TIP3    H255928   6.324   3.890   0.846  2.0144 -0.4472  0.2795
11505TIP3   OH255929   2.269   5.124   1.214 -0.2609 -0.2176  0.3350
11505TIP3    H155930   2.364   5.113   1.218 -0.2817 -0.7082 -0.3454
11505TIP3    H255931   2.251   5.145   1.122 -0.7483  0.5543  0.5909
11506TIP3   OH255932   1.888   3.300  12.249  0.3327  0.2146 -0.7707
11506TIP3    H155933   1.884   3.283  12.343 -0.9787  2.1737 -0.4132
11506TIP3    H255934   1.833   3.233  12.210 -0.2062  0.1939  0.0041
11507TIP3   OH255935   2.892   5.729  15.668 -0.0764  0.4666 -0.1796
11507TIP3    H155936   2.944   5.740  15.747 -0.2932  0.5700 -0.0474
11507TIP3    H255937   2.802   5.719  15.700 -0.2966  1.4787 -0.4507
11508TIP3   OH255938   5.482   5.521  14.434 -0.3632 -0.2350 -0.2498
11508TIP3    H155939   5.501   5.444  14.381 -0.7810 -0.6687  0.2139
11508TIP3    H255940   5.393   5.546  14.409  0.0524  0.5732 -0.9605
11509TIP3   OH255941   3.921   2.219   0.187  0.6938  0.3326  0.7126
11509TIP3    H155942   3.884   2.153   0.245  2.0873 -1.0269  0.1147
11509TIP3    H255943   3.960   2.169   0.116  2.3906  1.7658  0.5878
11510TIP3   OH255944   3.264   4.998  16.358  0.5684  0.4720  0.4898
11510TIP3    H155945   3.174   4.986  16.327  1.3399 -0.4810 -1.5315
11510TIP3    H255946   3.267   4.950  16.441 -0.8264  0.7276  0.7240
11511TIP3   OH255947   1.124   1.996   1.371  0.2399  0.0752  0.2637
11511TIP3    H155948   1.044   1.952   1.344  1.2858 -2.2247  0.6843
11511TIP3    H255949   1.151   1.949   1.450  2.4573  0.1956 -0.3628
11512TIP3   OH255950   1.200   3.689  14.940 -0.3856  0.2608  0.0090
11512TIP3    H155951   1.150   3.608  14.927  0.1103 -0.0099 -0.2536
11512TIP3    H255952   1.144   3.744  14.994 -0.2646 -0.7180  1.1705
11513TIP3   OH255953   1.492   2.633   1.520 -0.7221  0.6363 -0.3356
11513TIP3    H155954   1.572   2.590   1.490 -1.2888 -0.1722 -0.7161
11513TIP3    H255955   1.521   2.718   1.554  0.4104  0.0025  0.3333
11514TIP3   OH255956   3.744   3.295   4.707  0.3645  0.5323 -0.3061
11514TIP3    H155957   3.686   3.223   4.681  0.2141  0.9945 -1.2762
11514TIP3    H255958   3.690   3.348   4.767 -0.6564  1.6043 -2.1028
11515TIP3   OH255959   3.306   3.462   4.292 -0.4760 -0.1498 -0.3293
11515TIP3    H155960   3.253   3.419   4.225 -0.7846  1.0402 -0.8672
11515TIP3    H255961   3.370   3.395   4.318 -2.4422 -1.7849  0.6422
11516TIP3   OH255962   0.412   5.234   5.159  0.0170  0.3428  0.2755
11516TIP3    H155963   0.366   5.164   5.205  1.2261  0.6825  2.0732
11516TIP3    H255964   0.409   5.208   5.067 -1.1938 -1.0939  0.6849
11517TIP3   OH255965   3.493   6.034   4.883  0.0493  0.1023  0.0741
11517TIP3    H155966   3.517   5.988   4.802 -0.2288  0.2268 -0.0783
11517TIP3    H255967   3.558   6.104   4.890 -1.1939  1.4680 -1.2084
11518TIP3   OH255968   2.679   6.087   1.741  0.5309  0.5185  0.8532
11518TIP3    H155969   2.699   6.054   1.828  0.2046  0.5258  0.9338
11518TIP3    H255970   2.703   6.180   1.744 -0.8391  0.8716  1.4000
11519TIP3   OH255971   4.080   3.119  12.065  0.4756 -0.1748  0.3877
11519TIP3    H155972   4.132   3.108  12.144 -0.2844 -1.6585  0.7279
11519TIP3    H255973   4.040   3.033  12.051 -3.2256  1.2715  1.0937
11520TIP3   OH255974   5.205   4.657  11.733  0.4489  1.0440  0.2420
11520TIP3    H155975   5.219   4.571  11.773  0.3719  1.1233  0.4447
11520TIP3    H255976   5.288   4.679  11.691  0.5134  0.9342  0.3144
11521TIP3   OH255977   6.348   2.093   4.878  0.1109 -0.2945  0.4119
11521TIP3    H155978   6.388   2.180   4.867  0.4570 -0.0384  3.0058
11521TIP3    H255979   6.254   2.110   4.879  0.1858  0.5061  3.1935
11522TIP3   OH255980   4.670   1.087  15.874  0.7238 -0.1421 -0.0423
11522TIP3    H155981   4.620   1.168  15.881 -0.0667 -0.5787 -0.5596
11522TIP3    H255982   4.629   1.028  15.938  1.8433  0.1182  0.9655
11523TIP3   OH255983   3.373   5.854  17.194 -0.6207  0.2676  0.0941
11523TIP3    H155984   3.453   5.816  17.159 -0.0879  1.4074  0.0659
11523TIP3    H255985   3.304   5.794  17.165  0.3344 -1.5813  1.3666
11524TIP3   OH255986   5.413   1.197  13.666  0.1534 -0.3218  0.0228
11524TIP3    H155987   5.500   1.226  13.692 -0.3684  0.2393  1.1712
11524TIP3    H255988   5.369   1.277  13.637 -0.2682 -0.4708  0.2587
11525TIP3   OH255989   4.206   0.537  15.669  0.5347 -0.7726  0.1803
11525TIP3    H155990   4.275   0.580  15.719  1.1912 -2.4808  0.8237
11525TIP3    H255991   4.248   0.459  15.632 -0.3383 -0.3819 -1.7936
11526TIP3   OH255992   0.223   4.126  13.843  0.6600 -0.3391 -0.2956
11526TIP3    H155993   0.282   4.115  13.918 -1.1315 -2.6678  0.8872
11526TIP3    H255994   0.254   4.063  13.778  0.1884 -0.7341 -0.1403
11527TIP3   OH255995   0.962   1.263   2.858 -0.0635 -0.8201 -0.3717
11527TIP3    H155996   0.907   1.237   2.932 -2.1010  2.2727 -0.6174
11527TIP3    H255997   0.977   1.182   2.811 -2.1877 -2.2663  1.2083
11528TIP3   OH255998   6.153   1.449  15.335 -0.4137 -0.3126 -0.7749
11528TIP3    H155999   6.078   1.406  15.293 -0.7606  1.3260 -1.9242
11528TIP3    H256000   6.115   1.520  15.387  0.0288 -2.1576  2.3289
11529TIP3   OH256001   1.883   2.183   3.031 -0.0219  0.0281 -0.0654
11529TIP3    H156002   1.842   2.107   3.072 -1.3204  0.5289 -0.3813
11529TIP3    H256003   1.864   2.173   2.938  3.2405 -1.3045 -0.6946
11530TIP3   OH256004   4.227   0.779  16.006  0.4774 -0.5325  0.5303
11530TIP3    H156005   4.144   0.734  16.015 -0.9721  1.4332 -1.6733
11530TIP3    H256006   4.264   0.745  15.924  1.7973 -1.2566  1.3923
11531TIP3   OH256007   6.716   6.492  11.978  0.3473  0.0577  0.0049
11531TIP3    H156008   6.694   6.486  12.071  0.1246  3.0707  0.2534
11531TIP3    H256009   6.800   6.448  11.970 -0.9808 -2.9339  0.9700
11532TIP3   OH256010   2.148   0.969  14.892  0.0259 -0.3635 -0.7855
11532TIP3    H156011   2.083   1.037  14.874 -0.0335 -0.4967 -1.0906
11532TIP3    H256012   2.217   1.013  14.941 -1.1142 -0.6109  1.1222
11533TIP3   OH256013   0.948   0.579  12.332 -0.3199  0.1949 -0.2056
11533TIP3    H156014   0.938   0.642  12.261 -0.2998 -0.0536 -0.4289
11533TIP3    H256015   0.859   0.566  12.365 -0.1961  1.0827  0.4850
11534TIP3   OH256016   2.010   5.301  11.152  0.3046  0.8247  0.3292
11534TIP3    H156017   2.033   5.253  11.232 -1.0720 -1.8534 -0.7668
11534TIP3    H256018   2.032   5.241  11.081 -1.6477  1.7301 -1.1394
11535TIP3   OH256019   1.685   1.462  13.828  0.3022  0.0369 -0.6713
11535TIP3    H156020   1.682   1.550  13.865  2.5536  0.3403 -1.0491
11535TIP3    H256021   1.620   1.413  13.879 -1.9666  2.1596 -1.3098
11536TIP3   OH256022   0.922   0.277   5.461 -0.3423  0.0910  0.0586
11536TIP3    H156023   0.987   0.344   5.483 -0.3973  0.4851 -0.9259
11536TIP3    H256024   0.855   0.325   5.411 -1.1096 -0.4179  0.5955
11537TIP3   OH256025   1.670   0.679   0.147  0.9423  0.3750  0.4395
11537TIP3    H156026   1.582   0.700   0.178  0.5371 -1.1773  0.4196
11537TIP3    H256027   1.718   0.761   0.153 -1.2214  2.0065 -2.1390
11538TIP3   OH256028   3.065   0.067   4.592  0.4384  0.3611 -0.1767
11538TIP3    H156029   2.995   0.026   4.643  0.3989 -0.1692 -0.6486
11538TIP3    H256030   3.083   0.005   4.522  2.0162  0.0557  0.4537
11539TIP3   OH256031   6.451   5.879   5.709 -0.3948 -0.3769  0.1098
11539TIP3    H156032   6.359   5.858   5.692 -0.2806 -2.7329  1.9664
11539TIP3    H256033   6.447   5.948   5.775 -0.9483 -2.3550  2.2686
11540TIP3   OH256034   4.651   0.460  14.495 -0.6694 -0.3938 -0.8078
11540TIP3    H156035   4.714   0.390  14.476 -0.5223  0.0521 -2.0282
11540TIP3    H256036   4.657   0.472  14.590  1.8461  0.3262 -0.9763
11541TIP3   OH256037   0.719   5.620  14.819  0.2184 -0.0024 -0.0389
11541TIP3    H156038   0.698   5.529  14.839 -1.0104 -0.0050 -1.2052
11541TIP3    H256039   0.783   5.615  14.748  0.6628  0.0522  0.3513
11542TIP3   OH256040   4.906   6.276   1.046  0.1478 -0.0056 -0.1119
11542TIP3    H156041   4.857   6.244   0.970  1.2705 -0.1510 -0.7911
11542TIP3    H256042   4.953   6.198   1.078  2.6788  0.8196 -1.5974
11543TIP3   OH256043   4.849   1.990  14.885 -0.1095 -0.2437 -0.2509
11543TIP3    H156044   4.917   2.029  14.830 -1.0164 -2.1718 -2.9646
11543TIP3    H256045   4.767   2.019  14.844 -0.8727 -0.6639  0.9425
11544TIP3   OH256046   1.412   2.379  14.553  0.7459 -0.3228 -0.4044
11544TIP3    H156047   1.486   2.324  14.530  0.8166 -0.6706  0.5999
11544TIP3    H256048   1.335   2.330  14.523  0.7149 -1.6306  1.5937
11545TIP3   OH256049   0.288   1.558  13.533  0.3560 -0.0812  0.2875
11545TIP3    H156050   0.366   1.559  13.588  0.1613  1.9893  0.6153
11545TIP3    H256051   0.215   1.570  13.595  0.0945  1.6801 -0.2812
11546TIP3   OH256052   2.284   6.025  13.172  0.2523  0.1417 -0.4452
11546TIP3    H156053   2.284   5.947  13.117  2.6985 -0.1318 -0.1782
11546TIP3    H256054   2.349   6.083  13.130 -1.3129  1.9709 -0.5075
11547TIP3   OH256055   5.374   1.510  12.763 -0.0501  0.2457  0.3386
11547TIP3    H156056   5.320   1.538  12.689  1.3630  0.8792 -0.4863
11547TIP3    H256057   5.410   1.591  12.799  0.7808 -0.1927  0.5277
11548TIP3   OH256058   6.758   0.121  13.253  0.2046 -0.0802  0.1646
11548TIP3    H156059   6.787   0.203  13.294 -1.7312  0.9177 -0.3407
11548TIP3    H256060   6.768   0.055  13.321 -2.4851  1.4428  2.2360
11549TIP3   OH256061   3.632   4.338  12.864 -0.1393 -0.2259 -0.1625
11549TIP3    H156062   3.635   4.402  12.794  0.4042 -1.1197 -0.9892
11549TIP3    H256063   3.719   4.342  12.904 -0.4891  0.3703  0.5454
11550TIP3   OH256064   3.368   0.363  12.355 -0.4123 -0.0308 -0.2374
11550TIP3    H156065   3.354   0.420  12.431 -0.0632 -0.1823 -0.0565
11550TIP3    H256066   3.411   0.286  12.391 -0.4023 -0.1779 -0.5651
11551TIP3   OH256067   0.106   1.773  14.701 -0.3729  0.1819 -0.5319
11551TIP3    H156068   0.138   1.683  14.701  0.1362  0.3620 -0.8834
11551TIP3    H256069   0.072   1.787  14.613  1.1271  0.8810 -1.0338
11552TIP3   OH256070   3.839   6.402   6.266  0.6038  0.1224 -0.3226
11552TIP3    H156071   3.914   6.416   6.324  0.4526 -0.8591  0.1205
11552TIP3    H256072   3.828   6.307   6.263  0.3137  0.1751 -1.5898
11553TIP3   OH256073   0.443   4.909   3.097  0.0626 -0.7770  0.0033
11553TIP3    H156074   0.423   5.002   3.087  1.0312 -0.6559 -0.9667
11553TIP3    H256075   0.368   4.864   3.058  0.6126 -0.3584 -1.6214
11554TIP3   OH256076   5.316   1.439   5.122  0.2538  0.7564  0.4743
11554TIP3    H156077   5.240   1.401   5.078  1.2170 -0.9818  0.2262
11554TIP3    H256078   5.322   1.393   5.205  1.0165  0.8766  0.4991
11555TIP3   OH256079   3.813   1.827  15.051  0.1685  0.0221  0.6081
11555TIP3    H156080   3.858   1.912  15.044 -2.5137  1.5950  0.9934
11555TIP3    H256081   3.802   1.798  14.960 -0.0158  0.7622  0.3824
11556TIP3   OH256082   6.531   0.706   1.392 -0.1621 -0.3179 -0.2315
11556TIP3    H156083   6.491   0.620   1.398 -0.1756 -0.3159 -0.3011
11556TIP3    H256084   6.506   0.750   1.473  1.9973 -1.3140  1.0761
11557TIP3   OH256085   5.318   5.188   3.877  0.3394  0.1619  0.5523
11557TIP3    H156086   5.339   5.098   3.901 -1.7786 -0.3845  0.5136
11557TIP3    H256087   5.352   5.197   3.788  0.4322 -0.6621  0.4929
11558TIP3   OH256088   1.550   0.982  13.102 -0.0719  0.3643 -0.1907
11558TIP3    H156089   1.629   0.960  13.051 -0.1983 -0.9233  0.1178
11558TIP3    H256090   1.485   0.919  13.072 -1.0669  1.5702 -0.6039
11559TIP3   OH256091   2.642   5.748  13.971 -0.0923 -0.0262  0.0982
11559TIP3    H156092   2.583   5.701  13.911 -0.5857  0.4900  0.1685
11559TIP3    H256093   2.616   5.840  13.963  0.7865  0.2297  0.0438
11560TIP3   OH256094   5.486   2.320   1.513  0.0970  0.1116  0.0327
11560TIP3    H156095   5.438   2.260   1.456 -0.9480 -0.5310  1.5186
11560TIP3    H256096   5.438   2.317   1.596 -0.2183  3.2835  0.0851
11561TIP3   OH256097   4.969   4.899   4.154 -0.1933  0.1305 -0.4242
11561TIP3    H156098   5.004   4.979   4.194 -1.2821  0.3308  0.1688
11561TIP3    H256099   4.895   4.874   4.210 -0.0933 -1.1002 -0.8002
11562TIP3   OH256100   0.301   1.454  13.266 -0.0835  0.0220  0.5060
11562TIP3    H156101   0.334   1.505  13.339 -1.3941 -0.7149  1.6740
11562TIP3    H256102   0.207   1.445  13.283 -0.7551  1.1275 -2.0852
11563TIP3   OH256103   4.658   2.032  13.568  0.1096  0.2119 -0.1717
11563TIP3    H156104   4.613   2.111  13.597 -0.0573  0.4883 -1.1496
11563TIP3    H256105   4.647   2.031  13.473  0.9642 -0.4591 -0.2839
11564TIP3   OH256106   1.518   2.814  16.161 -0.7441  0.3492  0.0786
11564TIP3    H156107   1.486   2.752  16.227 -2.7209  0.1049 -1.0222
11564TIP3    H256108   1.462   2.798  16.085  0.7512  1.3741 -1.2981
11565TIP3   OH256109   6.158   0.789   5.329 -0.2619  0.2741  0.1789
11565TIP3    H156110   6.251   0.809   5.319 -0.4752  1.3081  0.1837
11565TIP3    H256111   6.155   0.694   5.331  0.8309  0.2281  0.5150
11566TIP3   OH256112   0.702   3.082  13.467  0.0604  0.2620  0.3520
11566TIP3    H156113   0.730   3.080  13.558  0.4246  2.5147  0.3603
11566TIP3    H256114   0.783   3.088  13.416 -0.1831  0.6071 -0.0076
11567TIP3   OH256115   4.502   0.424  15.203 -0.1362 -0.6265  0.9198
11567TIP3    H156116   4.510   0.498  15.263 -1.8187 -0.4530  0.9678
11567TIP3    H256117   4.481   0.465  15.119 -0.7410 -1.0143  0.8759
11568TIP3   OH256118   6.335   5.471   5.141  0.6198  0.1636  0.2221
11568TIP3    H156119   6.368   5.549   5.186 -1.0358  1.5503 -0.8649
11568TIP3    H256120   6.347   5.490   5.048  1.7121 -1.6277 -0.0646
11569TIP3   OH256121   0.134   6.537   5.006 -0.0149 -0.1789 -0.4520
11569TIP3    H156122   0.105   6.539   4.914  0.2026  1.2596 -0.5170
11569TIP3    H256123   0.229   6.543   5.000  0.2379 -2.7853 -0.1749
11570TIP3   OH256124   2.818   5.005   4.146 -0.0983  0.0466  0.1103
11570TIP3    H156125   2.857   4.926   4.182  1.1703  1.2104  1.4139
11570TIP3    H256126   2.799   4.983   4.054  0.1517 -1.7559  0.4542
11571TIP3   OH256127   5.706   0.016  10.846  0.1597 -0.2615 -0.1653
11571TIP3    H156128   5.778   0.077  10.864 -0.3449  0.4347 -0.4742
11571TIP3    H256129   5.641   0.035  10.914 -0.4715  0.3128 -0.9125
11572TIP3   OH256130   3.393   2.785  16.469  0.7996  0.3981  0.0849
11572TIP3    H156131   3.326   2.831  16.419  2.2059  1.1993 -1.1583
11572TIP3    H256132   3.347   2.750  16.545 -1.0170  0.8361 -0.7685
11573TIP3   OH256133   5.492   6.527   0.251  0.8312 -0.8705 -0.2292
11573TIP3    H156134   5.495   6.509   0.345 -0.0082  1.2361  0.2546
11573TIP3    H256135   5.471   6.620   0.245  1.7298 -0.7489 -2.5134
11574TIP3   OH256136   1.456   0.905  16.547  0.5063 -1.1411  0.3812
11574TIP3    H156137   1.465   0.869  16.636 -0.4144  1.4065  1.6033
11574TIP3    H256138   1.368   0.943  16.546  0.4532 -1.1992 -1.7003
11575TIP3   OH256139   1.815   3.526   6.252  0.2566 -0.4884 -0.9318
11575TIP3    H156140   1.754   3.555   6.320  2.9863  1.3820  0.8945
11575TIP3    H256141   1.796   3.582   6.176  0.5518  1.0262  0.0754
11576TIP3   OH256142   2.569   2.973   0.490  0.9656  0.6384 -0.0625
11576TIP3    H156143   2.586   3.041   0.424  2.2953 -0.5803 -1.0440
11576TIP3    H256144   2.645   2.914   0.484  0.5845 -0.1248  1.8059
11577TIP3   OH256145   4.831   6.298  15.528 -0.7294  0.0227  0.0046
11577TIP3    H156146   4.900   6.295  15.593 -0.7685  1.9915  0.1796
11577TIP3    H256147   4.857   6.367  15.468 -1.2914 -0.9410 -1.4156
11578TIP3   OH256148   1.367   3.611  13.478 -0.1105 -0.3993 -0.1875
11578TIP3    H156149   1.454   3.650  13.472 -0.5540  0.7087  0.2845
11578TIP3    H256150   1.381   3.528  13.524  0.5017  0.5225  1.3887
11579TIP3   OH256151   6.134   2.974   3.583 -0.0184  0.1601 -0.8889
11579TIP3    H156152   6.188   3.035   3.534  0.6998 -0.5452 -1.0067
11579TIP3    H256153   6.083   2.928   3.516  0.3763 -0.2471 -0.9146
11580TIP3   OH256154   6.319   2.059  16.547  0.2443 -0.1400  0.1547
11580TIP3    H156155   6.350   2.131  16.602  2.3723 -1.8890  1.4004
11580TIP3    H256156   6.398   2.024  16.507 -0.6472 -2.1377  0.0442
11581TIP3   OH256157   4.075   6.406   3.136 -0.2223  0.6226  0.9477
11581TIP3    H156158   4.074   6.454   3.053  0.5871 -1.2590 -0.1996
11581TIP3    H256159   3.987   6.368   3.143  0.1667 -0.4355  0.1942
11582TIP3   OH256160   2.866   5.258  13.594 -0.6056  0.1814 -0.2922
11582TIP3    H156161   2.940   5.208  13.627  0.1287  1.1821 -0.3815
11582TIP3    H256162   2.801   5.191  13.571  0.1471 -0.6978  0.0504
11583TIP3   OH256163   2.920   5.977  16.613 -0.5430  1.4962  0.4983
11583TIP3    H156164   2.922   5.965  16.518 -0.6265  2.0962  0.4181
11583TIP3    H256165   3.009   6.004  16.636 -0.0202 -0.3745  0.8375
11584TIP3   OH256166   0.886   1.402  14.301  0.2944  0.0370 -0.1835
11584TIP3    H156167   0.923   1.489  14.288  2.6830 -0.6587  1.4612
11584TIP3    H256168   0.892   1.361  14.214 -1.5233  1.6530 -1.1589
11585TIP3   OH256169   3.215   0.594   2.294  1.1210  0.3303  0.2154
11585TIP3    H156170   3.174   0.628   2.214  1.5933  0.7384  0.1412
11585TIP3    H256171   3.309   0.589   2.272  1.1998  0.0496  0.6085
11586TIP3   OH256172   1.607   6.499  16.295  0.2551  1.1460  0.2696
11586TIP3    H156173   1.683   6.510  16.238 -1.1301  1.4853 -1.6267
11586TIP3    H256174   1.579   6.409  16.281 -0.9700  1.6460 -0.8578
11587TIP3   OH256175   3.745   2.687   2.226 -0.2057 -0.3291  0.3132
11587TIP3    H156176   3.763   2.662   2.317 -0.8499 -1.1195  0.2307
11587TIP3    H256177   3.782   2.775   2.218  0.5166 -0.5431  1.1246
11588TIP3   OH256178   4.029   2.515   4.415 -0.0080 -0.1068  0.7731
11588TIP3    H156179   3.949   2.498   4.365  0.5268 -1.3287  0.2962
11588TIP3    H256180   4.023   2.608   4.438 -1.0450  0.0876 -0.1652
11589TIP3   OH256181   4.559   2.798  12.056 -0.0024 -0.7117  0.2055
11589TIP3    H156182   4.593   2.804  12.146 -1.2605 -0.7648  0.6969
11589TIP3    H256183   4.479   2.746  12.064  0.8886 -2.4009 -1.2472
11590TIP3   OH256184   6.196   4.638  10.952 -0.1046 -0.1369  0.4470
11590TIP3    H156185   6.248   4.654  11.031  1.8297  0.0047 -0.7803
11590TIP3    H256186   6.138   4.566  10.976  1.8665 -1.5065  1.4318
11591TIP3   OH256187   5.368   3.323  11.863  0.8249  0.0350 -0.5562
11591TIP3    H156188   5.400   3.353  11.778  0.6394 -0.8342 -0.9454
11591TIP3    H256189   5.389   3.230  11.865  0.0607 -0.1383 -0.0213
11592TIP3   OH256190   1.211   0.722   1.832  0.1090 -0.0184 -0.2298
11592TIP3    H156191   1.173   0.767   1.908  0.5516  0.0159 -0.0251
11592TIP3    H256192   1.182   0.773   1.757  0.1765  0.3067 -0.0374
11593TIP3   OH256193   4.272   4.303   1.292  0.0278 -0.1845 -0.0812
11593TIP3    H156194   4.281   4.228   1.351  1.7751 -0.2202 -0.3203
11593TIP3    H256195   4.323   4.372   1.334 -0.9880  0.6628 -0.2179
11594TIP3   OH256196   0.324   2.456  11.844 -0.0764 -0.5909 -0.2454
11594TIP3    H156197   0.377   2.536  11.843 -0.3627 -0.3562  1.1430
11594TIP3    H256198   0.317   2.431  11.752  3.0819 -1.0722 -0.4823
11595TIP3   OH256199   0.971   6.378   4.915 -0.2615  0.1257 -0.0939
11595TIP3    H156200   0.971   6.284   4.899  1.5840 -0.2861  1.8801
11595TIP3    H256201   1.056   6.408   4.881  0.2209  0.6016  1.4735
11596TIP3   OH256202   1.168   1.175  11.543 -0.3839 -0.6473  0.1473
11596TIP3    H156203   1.113   1.197  11.468 -0.0502 -0.9265 -0.1831
11596TIP3    H256204   1.110   1.183  11.618 -0.6586 -0.1262 -0.1151
11597TIP3   OH256205   6.515   0.584  12.992 -0.5834 -0.2755  0.5704
11597TIP3    H156206   6.425   0.601  13.021 -0.8202 -0.3011 -0.1354
11597TIP3    H256207   6.512   0.496  12.955 -0.2802 -0.2549  0.4943
11598TIP3   OH256208   3.940   5.402  14.207 -0.5011  0.0607 -0.0179
11598TIP3    H156209   3.907   5.333  14.150  1.6167 -0.5298 -0.6214
11598TIP3    H256210   3.925   5.370  14.295 -1.1614 -0.3373 -0.2687
11599TIP3   OH256211   1.286   4.906  15.746 -0.0982  0.0692 -0.0118
11599TIP3    H156212   1.305   4.826  15.697 -1.2170 -0.3140  0.1566
11599TIP3    H256213   1.227   4.956  15.689  0.9598  1.0050 -0.3206
11600TIP3   OH256214   6.097   2.807  12.387 -0.1050 -0.3345 -0.0430
11600TIP3    H156215   6.030   2.871  12.363 -0.2110 -0.7809 -0.9939
11600TIP3    H256216   6.179   2.847  12.358 -0.2621 -1.0024 -1.5092
11601TIP3   OH256217   1.821   5.445   6.476  0.1524  0.3428 -0.6650
11601TIP3    H156218   1.756   5.514   6.470 -1.6674 -1.0467  1.3519
11601TIP3    H256219   1.891   5.483   6.530 -1.0300  0.5334  0.8007
11602TIP3   OH256220   2.784   0.240  13.772  0.2405  0.2877 -0.6463
11602TIP3    H156221   2.722   0.252  13.701  0.7272  1.2202 -0.9180
11602TIP3    H256222   2.864   0.208  13.729  1.1901  2.7185 -0.8165
11603TIP3   OH256223   2.900   4.360   4.016 -0.0634 -0.4446  0.0279
11603TIP3    H156224   2.927   4.397   4.099 -0.0595 -0.3067 -0.0351
11603TIP3    H256225   2.979   4.318   3.981  0.2815  0.6078 -0.5126
11604TIP3   OH256226   2.639   0.413   2.771 -0.4303  0.0490 -0.8389
11604TIP3    H156227   2.597   0.460   2.843  1.3289  0.7557 -0.2411
11604TIP3    H256228   2.705   0.358   2.812  1.8689  1.7965 -1.9648
11605TIP3   OH256229   5.908   3.571   5.828  0.3412 -0.4129 -0.0323
11605TIP3    H156230   5.826   3.587   5.782 -0.2766 -1.3521  0.6801
11605TIP3    H256231   5.882   3.518   5.904  1.6844 -1.2319 -0.1201
11606TIP3   OH256232   1.198   1.840   4.957  0.0894  0.7323 -1.0581
11606TIP3    H156233   1.277   1.852   5.009  0.4280 -0.5188 -1.2546
11606TIP3    H256234   1.208   1.901   4.883  0.8164  0.6494 -1.0292
11607TIP3   OH256235   2.089   4.312  11.123  0.3467  0.0198 -0.5182
11607TIP3    H156236   2.167   4.319  11.178 -0.5095  0.9555  0.6216
11607TIP3    H256237   2.111   4.361  11.044  1.5843 -1.3183 -1.0583
11608TIP3   OH256238   1.450   4.988   3.943 -0.2021  0.2707  0.9141
11608TIP3    H156239   1.432   4.917   3.883 -2.3525  0.9376  0.6776
11608TIP3    H256240   1.536   5.021   3.918  0.8183 -2.1727  1.0149
11609TIP3   OH256241   2.849   6.195  15.670 -0.1046  0.1475  0.2444
11609TIP3    H156242   2.847   6.165  15.761  1.3642 -0.5393  0.0753
11609TIP3    H256243   2.789   6.270  15.668 -0.4282 -0.0456  1.6840
11610TIP3   OH256244   2.606   1.046   1.929  0.0540  0.0080  0.4468
11610TIP3    H156245   2.558   0.967   1.903  0.3039 -0.1155  0.3660
11610TIP3    H256246   2.671   1.059   1.860  0.8358 -0.4151  1.0857
11611TIP3   OH256247   0.209   0.567  11.568 -0.2661 -0.1268  0.9509
11611TIP3    H156248   0.291   0.523  11.545 -1.6390 -1.9608 -0.7464
11611TIP3    H256249   0.226   0.607  11.653  1.7710 -2.1552  1.5714
11612TIP3   OH256250   5.198   5.141  15.999 -0.3768  0.4188  0.9038
11612TIP3    H156251   5.115   5.181  15.975 -0.9882 -1.5814 -0.6623
11612TIP3    H256252   5.264   5.191  15.951 -0.3599  3.1265  3.4853
11613TIP3   OH256253   2.912   3.197   2.487 -0.1180 -0.3544 -0.6518
11613TIP3    H156254   3.003   3.223   2.504  0.0551 -1.1175 -0.3859
11613TIP3    H256255   2.876   3.269   2.436 -0.5482  1.8822  2.5375
11614TIP3   OH256256   3.572   2.646   2.674  0.4075  0.1281 -0.4475
11614TIP3    H156257   3.640   2.708   2.699  1.6880 -1.0350 -0.9163
11614TIP3    H256258   3.581   2.637   2.579 -0.1593 -0.3143 -0.4671
11615TIP3   OH256259   6.232   2.752   3.257  0.2465  0.7256  0.2376
11615TIP3    H156260   6.156   2.808   3.272 -0.4032  0.1387 -0.8048
11615TIP3    H256261   6.297   2.809   3.217  0.4462  1.2717  1.2901
11616TIP3   OH256262   3.620   0.128   1.040  0.1633 -0.0131 -0.0608
11616TIP3    H156263   3.648   0.087   0.958 -0.8991  1.5568 -1.2822
11616TIP3    H256264   3.683   0.199   1.054 -1.4879  1.8532 -1.4086
11617TIP3   OH256265   5.744   6.578   1.342 -0.1788  0.2760  0.1547
11617TIP3    H156266   5.745   6.484   1.356  2.2634 -0.1108 -1.8577
11617TIP3    H256267   5.804   6.613   1.408  0.8426  0.0763 -0.6405
11618TIP3   OH256268   0.591   4.343   3.090 -0.2110  0.3976 -0.0872
11618TIP3    H156269   0.634   4.258   3.082  0.9404  1.0454 -1.2601
11618TIP3    H256270   0.609   4.386   3.006 -1.4227  1.4998  0.1970
11619TIP3   OH256271   5.499   4.794   6.035  0.1642 -0.2832  0.2252
11619TIP3    H156272   5.432   4.856   6.006 -0.6051  0.0391  2.4808
11619TIP3    H256273   5.582   4.840   6.026 -0.1847  0.2735 -0.1621
11620TIP3   OH256274   2.781   0.854  12.911 -0.1175 -0.2768 -0.0203
11620TIP3    H156275   2.870   0.846  12.877  0.2332  1.7928  0.2904
11620TIP3    H256276   2.768   0.774  12.962  1.1517 -1.1174 -0.9440
11621TIP3   OH256277   5.940   4.777  11.489  0.4845 -0.0100  0.3858
11621TIP3    H156278   5.943   4.866  11.524  1.3849  0.2048 -0.1952
11621TIP3    H256279   5.862   4.776  11.433 -0.6257 -0.1787  1.8706
11622TIP3   OH256280   3.072   1.472   3.516 -0.0552  0.2046 -0.1989
11622TIP3    H156281   3.028   1.525   3.450  1.6608 -1.3543 -2.7768
11622TIP3    H256282   3.162   1.504   3.516  0.0345  0.0356  1.3031
11623TIP3   OH256283   2.098   0.360   1.660  0.0018  0.0073 -0.2138
11623TIP3    H156284   2.079   0.338   1.569  1.9254 -2.5631 -0.0991
11623TIP3    H256285   2.043   0.301   1.711  0.7102 -0.2846  0.2286
11624TIP3   OH256286   5.134   1.104   2.184  0.1148 -0.2518  0.6889
11624TIP3    H156287   5.147   1.009   2.192 -0.6861 -0.4617 -0.3600
11624TIP3    H256288   5.123   1.134   2.274  1.0796 -1.0396  1.0955
11625TIP3   OH256289   5.748   2.985   1.186 -0.4621  0.9277 -0.0988
11625TIP3    H156290   5.785   3.071   1.207 -0.5619  1.4211 -1.8062
11625TIP3    H256291   5.703   2.997   1.103 -0.7533 -0.7086 -0.2227
11626TIP3   OH256292   6.094   2.292   1.989 -0.6096  0.5822  0.2170
11626TIP3    H156293   6.118   2.210   2.031  0.8780  0.9250  0.0825
11626TIP3    H256294   6.000   2.299   2.003 -0.8168 -1.2748 -0.0117
11627TIP3   OH256295   5.796   6.230   3.519 -0.0861 -0.1872  0.9325
11627TIP3    H156296   5.881   6.189   3.538 -0.4879 -1.2656  0.5144
11627TIP3    H256297   5.779   6.207   3.427  0.0258  1.6117  0.4319
11628TIP3   OH256298   5.925   0.969   1.897 -0.2923  0.6269  0.3296
11628TIP3    H156299   6.018   0.976   1.918 -0.1495 -0.5346  0.1644
11628TIP3    H256300   5.896   1.059   1.884  1.0709  0.9345 -0.7228
11629TIP3   OH256301   1.209   5.009   2.956  0.2200  0.0809 -0.3083
11629TIP3    H156302   1.254   4.970   2.881  1.0630  0.4642 -0.0172
11629TIP3    H256303   1.273   5.005   3.027  0.1050  1.4024 -0.1092
11630TIP3   OH256304   0.537   0.276  17.155 -0.1094  0.2431  0.0133
11630TIP3    H156305   0.562   0.184  17.150 -0.1467  0.2054  0.4478
11630TIP3    H256306   0.442   0.276  17.139 -0.3667  0.0399  1.4370
11631TIP3   OH256307   3.492   5.778  16.254 -0.0133 -0.0472 -0.6022
11631TIP3    H156308   3.497   5.702  16.311  1.0546 -0.1216 -0.7870
11631TIP3    H256309   3.449   5.745  16.175  1.3759 -0.7286 -1.0983
11632TIP3   OH256310   3.983   3.367   0.590  0.3375  0.3970  0.0265
11632TIP3    H156311   4.075   3.367   0.618  0.0859 -0.7410  0.9259
11632TIP3    H256312   3.984   3.410   0.505  1.7270  0.2828 -0.0339
11633TIP3   OH256313   1.278   1.154  17.149  0.7097  0.0664  0.0836
11633TIP3    H156314   1.206   1.185  17.094  0.1469  0.7074  1.1311
11633TIP3    H256315   1.234   1.110  17.223  1.3835  0.4078  0.7024
11634TIP3   OH256316   6.427   0.991   3.921 -0.4849  0.3010  0.1317
11634TIP3    H156317   6.416   1.011   4.014 -1.6568 -0.8056  0.2669
11634TIP3    H256318   6.521   0.979   3.909 -0.4736 -1.2838  1.5633
11635TIP3   OH256319   0.045   4.545   1.201 -0.3732  0.6004 -0.5012
11635TIP3    H156320  -0.018   4.579   1.138 -0.8427  1.1851  0.2496
11635TIP3    H256321   0.045   4.611   1.271  2.1809  1.3977 -1.1557
11636TIP3   OH256322   2.417   3.036   0.729  0.2023  0.7056 -0.0107
11636TIP3    H156323   2.438   3.126   0.754 -1.3131  1.2019 -0.3987
11636TIP3    H256324   2.479   3.016   0.658  0.9548  1.2123  0.4912
11637TIP3   OH256325   2.925   0.561   5.522 -0.0988  0.3566  0.1439
11637TIP3    H156326   2.858   0.628   5.526 -0.2822  0.2329 -0.7656
11637TIP3    H256327   2.879   0.482   5.495  0.2804  0.0809  0.2880
11638TIP3   OH256328   4.298   4.656  10.619  0.6457  0.3006 -0.4885
11638TIP3    H156329   4.274   4.741  10.582  1.8208  1.8769  2.0853
11638TIP3    H256330   4.390   4.665  10.642 -0.1617 -0.0914  3.6300
11639TIP3   OH256331   2.514   2.898   0.961 -0.5730 -0.4463 -0.0742
11639TIP3    H156332   2.511   2.974   0.903  0.7403  0.9468  1.5868
11639TIP3    H256333   2.458   2.833   0.918 -2.5451  1.7568 -1.1003
11640TIP3   OH256334   3.052   0.576   0.159  0.1678 -0.4442  0.3684
11640TIP3    H156335   3.144   0.553   0.165 -0.0204 -1.6197 -0.6856
11640TIP3    H256336   3.051   0.672   0.158  1.4271 -0.4155 -0.1798
11641TIP3   OH256337   2.712   3.566  15.295 -0.2209 -0.8259 -0.0012
11641TIP3    H156338   2.623   3.569  15.261 -0.3607 -1.2714  0.3200
11641TIP3    H256339   2.706   3.606  15.382  0.1999  0.6375 -0.6115
11642TIP3   OH256340   2.197   6.382  16.272  0.1231 -0.5073  1.1767
11642TIP3    H156341   2.111   6.416  16.298 -0.5783 -1.5441  0.2877
11642TIP3    H256342   2.259   6.443  16.312 -1.0574  1.5307  0.1051
11643TIP3   OH256343   1.162   0.916  13.347 -0.6338  0.1495  0.4783
11643TIP3    H156344   1.090   0.943  13.404 -2.8888 -3.5691 -0.2342
11643TIP3    H256345   1.118   0.884  13.268  2.1979  2.0603 -2.0607
11644TIP3   OH256346   5.696   0.029  16.301  0.2419  0.4173 -0.0201
11644TIP3    H156347   5.662   0.116  16.321 -1.1248 -0.1970  0.4705
11644TIP3    H256348   5.710  -0.012  16.386 -0.1835 -0.2292 -0.2560
11645TIP3   OH256349   5.218   6.567   1.397  0.3442  0.5586 -0.2812
11645TIP3    H156350   5.294   6.514   1.420  0.2275  0.7355  0.5520
11645TIP3    H256351   5.181   6.525   1.320  1.6532  0.8368 -1.0862
11646TIP3   OH256352   1.830   4.478   0.393 -0.8284  0.2615  0.0140
11646TIP3    H156353   1.858   4.408   0.452  1.7408  0.9409 -0.2788
11646TIP3    H256354   1.780   4.432   0.325 -0.6640 -1.0382  0.7257
11647TIP3   OH256355   2.468   0.622   2.573  0.2400  0.1444  0.2232
11647TIP3    H156356   2.465   0.527   2.557  0.5857  0.1350  0.2270
11647TIP3    H256357   2.548   0.636   2.623 -0.8892  0.1373  2.1575
11648TIP3   OH256358   0.171   1.772   4.866  0.4682 -0.0309  0.2809
11648TIP3    H156359   0.090   1.804   4.828  0.8623  1.8489  0.8881
11648TIP3    H256360   0.240   1.807   4.809  0.8868 -1.8804 -0.4240
11649TIP3   OH256361   0.513   0.260  15.720 -0.5069 -0.2996  0.3517
11649TIP3    H156362   0.477   0.186  15.768  2.5578 -0.1556  3.2723
11649TIP3    H256363   0.601   0.231  15.694  0.0720  1.6392 -0.0279
11650TIP3   OH256364   1.135   6.616  14.124  0.0067 -0.1114  0.5011
11650TIP3    H156365   1.070   6.546  14.126 -2.1138  1.7677  1.3870
11650TIP3    H256366   1.192   6.593  14.051 -1.4301 -2.0248 -0.1131
11651TIP3   OH256367   2.025   2.704  12.759 -0.1620  0.3221 -0.1600
11651TIP3    H156368   2.049   2.786  12.716  0.2375  0.7022  0.7707
11651TIP3    H256369   2.095   2.687  12.822  0.1970 -1.1784 -0.9088
11652TIP3   OH256370   5.565   1.639   5.693 -0.0034  0.1216  0.2017
11652TIP3    H156371   5.570   1.635   5.789 -0.0636  2.4768  0.3707
11652TIP3    H256372   5.471   1.630   5.674 -0.0801  0.4329  0.4234
11653TIP3   OH256373   2.283   4.516   5.013 -0.3879  0.1447  0.6375
11653TIP3    H156374   2.251   4.606   5.003  0.3706  0.3004 -0.5722
11653TIP3    H256375   2.334   4.499   4.933  0.5731 -0.9104  1.4382
11654TIP3   OH256376   4.398   2.185   5.597  0.0179  0.5329  0.4320
11654TIP3    H156377   4.334   2.168   5.528  0.1311  0.4586  0.3439
11654TIP3    H256378   4.350   2.235   5.663 -0.9232 -1.9130  1.7111
11655TIP3   OH256379   6.131   1.473   6.061 -0.1031  0.0916  0.0890
11655TIP3    H156380   6.157   1.382   6.076 -1.6563 -0.3553  0.3042
11655TIP3    H256381   6.035   1.470   6.060 -0.1754  1.5498 -1.0364
11656TIP3   OH256382   2.037   3.208   2.815  0.2722  0.1613  0.9695
11656TIP3    H156383   1.980   3.280   2.842  0.0759  0.3992 -0.0633
11656TIP3    H256384   1.981   3.151   2.763  1.0691  0.6314 -0.4358
11657TIP3   OH256385   1.494   5.724   2.708  0.0557 -0.1939  0.3632
11657TIP3    H156386   1.399   5.737   2.699 -0.0906 -1.8076 -0.9121
11657TIP3    H256387   1.522   5.791   2.771 -1.8693  0.5251  0.5123
11658TIP3   OH256388   0.033   4.619   2.224 -0.3287  0.1087  0.1170
11658TIP3    H156389   0.053   4.586   2.136  3.0710  0.4611  0.6316
11658TIP3    H256390   0.067   4.552   2.283  0.6242  1.4498  1.1436
11659TIP3   OH256391   4.631   2.837  14.471 -0.1901 -0.3235 -0.0916
11659TIP3    H156392   4.600   2.921  14.438  0.0024  0.3850  1.4614
11659TIP3    H256393   4.558   2.804  14.523  0.4663 -0.1437  0.9667
11660TIP3   OH256394   5.076   5.560  12.579  0.1216  0.0323 -0.1965
11660TIP3    H156395   5.071   5.475  12.534 -0.6103 -0.6713  1.1556
11660TIP3    H256396   5.162   5.561  12.620 -0.5168 -0.8875  1.2743
11661TIP3   OH256397   4.213   4.260  12.870 -0.4620  0.2050  0.0414
11661TIP3    H156398   4.304   4.267  12.842 -0.7226 -0.2741 -0.9566
11661TIP3    H256399   4.207   4.173  12.909 -0.8921 -0.4850 -1.4905
11662TIP3   OH256400   4.831   1.654  12.166 -0.3164 -0.5653 -0.0115
11662TIP3    H156401   4.808   1.712  12.239 -0.9094 -1.6169  0.6586
11662TIP3    H256402   4.837   1.712  12.090 -0.6321  0.4072  0.6873
11663TIP3   OH256403   6.231   1.564  14.501  0.1821  0.0268 -0.5051
11663TIP3    H156404   6.237   1.610  14.585  0.1341 -2.2169  0.7968
11663TIP3    H256405   6.234   1.634  14.436  1.1540  1.8014  1.3127
11664TIP3   OH256406   2.726   1.141   4.600 -0.0417 -1.1098 -0.5040
11664TIP3    H156407   2.739   1.235   4.611 -0.2172 -1.1457  0.0556
11664TIP3    H256408   2.687   1.132   4.514 -2.1012 -0.4720  0.3111
11665TIP3   OH256409   6.200   1.133  15.116  0.6516 -0.5037  0.2758
11665TIP3    H156410   6.156   1.134  15.201  0.3803  0.2745  0.1326
11665TIP3    H256411   6.175   1.216  15.075  4.0670  1.1048  1.1122
11666TIP3   OH256412   6.286   5.298   3.991  0.5568  0.0945 -0.1361
11666TIP3    H156413   6.373   5.289   3.952  1.3810  1.3821  1.2948
11666TIP3    H256414   6.251   5.379   3.953 -0.0480 -0.4188 -0.7070
11667TIP3   OH256415   4.641   3.575  12.783 -0.1696 -0.1951 -0.2462
11667TIP3    H156416   4.689   3.626  12.848 -0.1835  0.6541 -0.8835
11667TIP3    H256417   4.553   3.566  12.819  0.0261 -0.3924  0.1942
11668TIP3   OH256418   6.425   3.558   2.125 -0.3721 -0.1035  0.3383
11668TIP3    H156419   6.354   3.615   2.095 -0.8706 -0.9781 -0.1751
11668TIP3    H256420   6.380   3.487   2.171 -0.0304 -1.7855 -1.7707
11669TIP3   OH256421   1.988   5.654   3.423  0.5034 -0.0816  0.2537
11669TIP3    H156422   2.025   5.675   3.337  0.7308  0.4507  0.4775
11669TIP3    H256423   1.963   5.739   3.459  0.6618 -0.2795  0.8305
11670TIP3   OH256424   6.256   1.433   4.019  0.2498  0.2673 -0.6243
11670TIP3    H156425   6.213   1.381   4.087  0.2164  0.0339 -0.8225
11670TIP3    H256426   6.345   1.448   4.052  0.6049 -0.8357 -1.0466
11671TIP3   OH256427   3.789   3.154   4.190  0.3378 -0.3332 -0.1348
11671TIP3    H156428   3.718   3.102   4.229  0.7746 -0.4079  0.5816
11671TIP3    H256429   3.860   3.149   4.254  0.5153  0.8652 -0.2223
11672TIP3   OH256430   0.697   2.233  16.597  0.6852 -0.3432 -0.9069
11672TIP3    H156431   0.748   2.279  16.664  0.6010 -1.6446  0.0788
11672TIP3    H256432   0.763   2.201  16.536  1.2224 -2.6271  0.7291
11673TIP3   OH256433   5.435   3.058  15.317 -0.1789  0.5799 -0.5812
11673TIP3    H156434   5.525   3.076  15.288  0.2846  0.7620  0.8520
11673TIP3    H256435   5.389   3.140  15.302  0.4138  1.1293  0.4562
11674TIP3   OH256436   3.793   1.080  14.919 -0.0711  0.4048 -0.6100
11674TIP3    H156437   3.819   0.989  14.909 -1.1302 -0.1344  1.1444
11674TIP3    H256438   3.803   1.118  14.832 -0.6659 -1.6520 -1.6244
11675TIP3   OH256439   2.642   3.827  12.948  0.4170  0.1894 -0.0159
11675TIP3    H156440   2.674   3.871  13.026  1.0941  1.2658 -0.8693
11675TIP3    H256441   2.588   3.755  12.981 -1.0775  1.8820  1.4451
11676TIP3   OH256442   6.509   4.654   2.836  0.3098  0.3784  0.6064
11676TIP3    H156443   6.507   4.575   2.889 -0.5815 -0.3476 -0.4481
11676TIP3    H256444   6.422   4.658   2.797  1.4328 -0.1579 -2.2065
11677TIP3   OH256445   4.640   0.446  11.629 -0.3708  0.2627 -0.3053
11677TIP3    H156446   4.640   0.536  11.595 -0.1739  0.1747 -0.5450
11677TIP3    H256447   4.605   0.394  11.556  1.6633 -0.1641 -1.0398
11678TIP3   OH256448   0.650   5.395  11.649 -0.3481  0.1781  0.3331
11678TIP3    H156449   0.646   5.383  11.554 -0.1785 -1.0797  0.4625
11678TIP3    H256450   0.735   5.437  11.664  1.2733 -2.7896  0.1572
11679TIP3   OH256451   1.746   5.162   3.426 -0.7166  0.0858  0.2878
11679TIP3    H156452   1.655   5.158   3.397 -0.4707 -2.1754 -0.3913
11679TIP3    H256453   1.751   5.241   3.479 -2.9907  0.4311  0.0863
11680TIP3   OH256454   4.771   1.627  13.071 -0.0859  0.5388  0.0733
11680TIP3    H156455   4.722   1.686  13.129  1.2187  1.3266  0.4460
11680TIP3    H256456   4.862   1.656  13.081  0.7923 -2.2609  1.1211
11681TIP3   OH256457   5.926   1.334  13.168  0.1386  0.1603  0.4422
11681TIP3    H156458   5.954   1.265  13.108 -0.5811 -0.0060  0.2971
11681TIP3    H256459   5.965   1.414  13.131 -0.2750  0.0549 -0.2308
11682TIP3   OH256460   0.116   1.045  12.882 -0.0450 -0.2511  0.0180
11682TIP3    H156461   0.177   0.994  12.936 -1.1573 -1.4901  0.1546
11682TIP3    H256462   0.064   0.979  12.836 -1.1468  0.7788 -0.2602
11683TIP3   OH256463   4.859   4.180   4.829 -0.2500 -0.0071 -0.1092
11683TIP3    H156464   4.862   4.176   4.734  0.3617 -1.2049 -0.0670
11683TIP3    H256465   4.767   4.197   4.850 -0.1458  1.7936 -0.9177
11684TIP3   OH256466   3.734   1.908   3.008 -0.1660  0.7271 -0.1103
11684TIP3    H156467   3.801   1.851   2.970 -1.1646 -0.0435 -0.7404
11684TIP3    H256468   3.752   1.994   2.969 -0.2740  0.2643 -1.2335
11685TIP3   OH256469   3.076   1.376   2.877 -0.4646  0.1480 -0.1233
11685TIP3    H156470   3.015   1.357   2.805 -0.2331  1.1211 -0.5927
11685TIP3    H256471   3.028   1.349   2.956 -0.4422 -1.6266 -0.6568
11686TIP3   OH256472   6.151   5.646   3.108  0.2260  0.5572 -0.3714
11686TIP3    H156473   6.092   5.630   3.181  1.3891  0.1676  0.5318
11686TIP3    H256474   6.166   5.559   3.071  0.9021  0.5243 -0.0366
11687TIP3   OH256475   3.838   5.064   5.329  0.1522  0.1271 -0.2001
11687TIP3    H156476   3.794   4.988   5.291  0.8244 -0.9949  1.1859
11687TIP3    H256477   3.786   5.139   5.300 -0.1616 -0.7911 -2.1124
11688TIP3   OH256478   1.086   1.596   3.719  0.0368 -0.2503 -0.6525
11688TIP3    H156479   1.177   1.575   3.696 -0.1569 -2.0086  0.0649
11688TIP3    H256480   1.050   1.636   3.641  0.7371 -1.7579 -1.7964
11689TIP3   OH256481   3.109   4.321   1.215  0.2466  0.1151  0.4002
11689TIP3    H156482   3.082   4.404   1.254  2.8232  0.9500  0.5971
11689TIP3    H256483   3.132   4.343   1.125  0.2700 -0.5351  0.2437
11690TIP3   OH256484   2.346   5.160  15.281 -0.2179 -0.2022 -0.2293
11690TIP3    H156485   2.284   5.091  15.256 -0.2900 -0.0481 -0.4762
11690TIP3    H256486   2.425   5.140  15.232 -0.2360 -0.1129 -0.2943
11691TIP3   OH256487   0.226   6.394  15.840  0.2507 -0.2519 -0.1602
11691TIP3    H156488   0.219   6.302  15.815 -0.8445 -0.2518  0.1126
11691TIP3    H256489   0.188   6.442  15.767 -0.8568 -0.1246  0.4887
11692TIP3   OH256490   6.150   0.178   5.755 -0.3850  0.2137  0.2999
11692TIP3    H156491   6.128   0.182   5.848 -2.6495  3.3093 -0.1878
11692TIP3    H256492   6.218   0.244   5.743 -0.5023  0.2419 -0.2868
11693TIP3   OH256493   6.099   5.785   1.339  0.3180  0.2457  0.6901
11693TIP3    H156494   6.085   5.849   1.409  0.0441  0.8387  0.1115
11693TIP3    H256495   6.012   5.774   1.299  0.2870 -0.7682  1.0070
11694TIP3   OH256496   5.331   1.660   6.117  0.1291  0.1383  0.0130
11694TIP3    H156497   5.405   1.680   6.174 -0.1652 -0.1445  0.5029
11694TIP3    H256498   5.257   1.648   6.177 -0.0958 -0.5823 -0.3943
11695TIP3   OH256499   1.241   1.659   6.856  0.0386 -0.3220 -0.1115
11695TIP3    H156500   1.324   1.613   6.864 -0.0140 -0.4591 -0.3572
11695TIP3    H256501   1.208   1.636   6.769 -0.5874 -0.8262  0.2466
11696TIP3   OH256502   0.203   1.420   3.171 -0.6224 -0.8492  0.6217
11696TIP3    H156503   0.167   1.443   3.086  0.4692  0.6975  0.5369
11696TIP3    H256504   0.128   1.421   3.231 -1.0611  0.1162  0.0645
11697TIP3   OH256505   5.709   0.888  11.461 -0.5586 -0.1447  0.9168
11697TIP3    H156506   5.756   0.806  11.476  0.2472  0.3032  0.9136
11697TIP3    H256507   5.750   0.925  11.383 -1.8918 -0.4286  0.0574
11698TIP3   OH256508   0.587   3.622   2.472  0.5099  0.3649 -0.9703
11698TIP3    H156509   0.529   3.616   2.396 -0.3915 -1.9576 -0.1914
11698TIP3    H256510   0.529   3.645   2.545  0.9546  0.3466 -0.6029
11699TIP3   OH256511   0.440   4.527  16.164  0.3034 -0.1561 -0.1445
11699TIP3    H156512   0.495   4.490  16.095 -1.2302 -1.1480 -0.8868
11699TIP3    H256513   0.380   4.457  16.187  1.5314 -0.3286  3.1470
11700TIP3   OH256514   0.520   4.984   1.301  0.0484  0.2307 -0.2621
11700TIP3    H156515   0.464   4.908   1.314  0.0440  0.0946 -1.0627
11700TIP3    H256516   0.597   4.950   1.257 -0.4194  0.8501 -1.6080
11701TIP3   OH256517   2.398   6.097   0.409  0.7272  0.1749  0.6575
11701TIP3    H156518   2.360   6.058   0.487  0.4292  1.5425  1.2255
11701TIP3    H256519   2.406   6.024   0.347 -1.2470 -0.4808  1.0959
11702TIP3   OH256520   1.778   0.689  16.549  0.2106 -0.2540  0.5039
11702TIP3    H156521   1.684   0.670  16.553  0.6847 -2.9568  1.1805
11702TIP3    H256522   1.802   0.715  16.638  0.1804  0.0407  0.4258
11703TIP3   OH256523   0.631   4.038  11.107 -0.0976 -0.2479  0.2012
11703TIP3    H156524   0.692   4.034  11.033  1.9004 -2.2753  1.8187
11703TIP3    H256525   0.631   4.131  11.132  2.0676 -0.0866 -0.1230
11704TIP3   OH256526   1.245   3.389   3.708  0.3563  0.4721  0.1664
11704TIP3    H156527   1.326   3.430   3.740  0.7011  0.7008 -0.9473
11704TIP3    H256528   1.271   3.299   3.685 -0.0479  0.0923  1.1750
11705TIP3   OH256529   5.102   6.765   4.628 -0.2375 -0.2613  0.1694
11705TIP3    H156530   5.052   6.708   4.686  0.3185 -0.8329  0.0967
11705TIP3    H256531   5.142   6.829   4.687  2.0864 -2.1046  0.7690
11706TIP3   OH256532   6.439   0.240  11.505  0.2098  0.2194  0.6889
11706TIP3    H156533   6.473   0.308  11.447  0.6246 -1.9721 -1.8482
11706TIP3    H256534   6.512   0.179  11.516 -0.9236 -1.2064  0.5844
11707TIP3   OH256535   6.470   2.674   2.027  0.9757 -0.3136  0.7312
11707TIP3    H156536   6.397   2.728   2.055 -0.1964 -0.7337 -1.2676
11707TIP3    H256537   6.473   2.602   2.090 -0.8615 -0.6900  0.4482
11708TIP3   OH256538   5.470   0.509   2.717 -0.1509 -0.5333  0.0453
11708TIP3    H156539   5.387   0.555   2.732 -0.0034 -0.1419 -0.3299
11708TIP3    H256540   5.521   0.568   2.663 -0.4538 -1.6488 -1.5437
11709TIP3   OH256541   6.427   4.490   0.691  0.4074 -0.5090 -0.0897
11709TIP3    H156542   6.340   4.492   0.730  0.3042 -1.7624 -0.2067
11709TIP3    H256543   6.482   4.447   0.756  0.8397 -0.1601 -0.2172
11710TIP3   OH256544   4.639   2.289   0.231 -0.3950 -0.1551 -0.3473
11710TIP3    H156545   4.715   2.324   0.277 -0.0673  1.5955 -2.0666
11710TIP3    H256546   4.675   2.222   0.173  0.4418  2.4605 -3.1286
11711TIP3   OH256547   6.188   0.502   5.458 -0.6360 -0.4381  0.0189
11711TIP3    H156548   6.268   0.535   5.499 -1.1980  0.0411  0.7480
11711TIP3    H256549   6.143   0.456   5.528 -0.4066 -1.8299 -0.7002
11712TIP3   OH256550   5.801   1.939  15.157 -0.1465 -0.2804 -0.4122
11712TIP3    H156551   5.708   1.918  15.160 -0.5748  1.5466  0.4854
11712TIP3    H256552   5.826   1.927  15.065 -0.3055 -4.3391 -0.1167
11713TIP3   OH256553   1.981   4.848   0.532  0.2016 -0.5013 -0.3081
11713TIP3    H156554   2.068   4.884   0.515  0.7287 -1.8130 -0.4745
11713TIP3    H256555   1.995   4.782   0.600 -0.4365 -1.6386 -1.2370
11714TIP3   OH256556   4.415   5.536  13.342 -0.0351 -0.5811 -0.6928
11714TIP3    H156557   4.408   5.441  13.348 -1.2879 -0.4326  0.7884
11714TIP3    H256558   4.344   5.562  13.283 -0.5466 -0.4708 -0.0364
11715TIP3   OH256559   0.706   4.189   5.836 -0.6539  0.2425  0.9251
11715TIP3    H156560   0.735   4.257   5.776 -2.1546 -0.0813 -0.2422
11715TIP3    H256561   0.623   4.221   5.871 -1.9758 -1.4017 -0.5124
11716TIP3   OH256562   1.888   4.047   0.355 -0.3127 -0.4102  0.2234
11716TIP3    H156563   1.900   4.029   0.262  0.6942 -1.6378  0.5687
11716TIP3    H256564   1.797   4.075   0.363 -0.1092  0.8069 -1.2790
11717TIP3   OH256565   6.523   3.787  12.650 -0.5067 -0.2623  0.0415
11717TIP3    H156566   6.602   3.775  12.597 -0.4448  2.6153 -0.6911
11717TIP3    H256567   6.468   3.712  12.629  0.8513 -0.8541 -1.6209
11718TIP3   OH256568   3.901   1.980   2.081 -0.2458  0.2082  0.4857
11718TIP3    H156569   3.990   1.963   2.110 -0.0956  0.3003  0.0842
11718TIP3    H256570   3.875   1.902   2.033 -0.4885  0.0625  0.8453
11719TIP3   OH256571   4.438   2.190   1.136 -0.3816  0.0887 -0.5545
11719TIP3    H156572   4.417   2.162   1.225  1.2815  2.0121  0.5420
11719TIP3    H256573   4.357   2.232   1.105 -0.3413  1.4166  0.9772
11720TIP3   OH256574   4.418   6.452  13.261 -0.0128 -0.4850  0.2467
11720TIP3    H156575   4.409   6.547  13.267 -0.4177 -0.5061  0.0153
11720TIP3    H256576   4.473   6.428  13.336  2.2904  0.2142 -1.1043
11721TIP3   OH256577   0.216   2.520  12.693  0.0833 -0.1924  0.4260
11721TIP3    H156578   0.238   2.427  12.694  0.6247 -0.0722  1.7982
11721TIP3    H256579   0.301   2.564  12.685 -0.0841  0.1968  0.7952
11722TIP3   OH256580   0.965   1.131   3.650  0.0587 -0.4679 -0.2130
11722TIP3    H156581   0.922   1.206   3.607  0.1802  0.6117  1.4389
11722TIP3    H256582   0.987   1.164   3.737  0.2042 -2.4293  0.5333
11723TIP3   OH256583   2.900   1.490  16.287 -0.2486 -0.3961  0.0272
11723TIP3    H156584   2.813   1.465  16.317 -0.3181  0.2212  0.3501
11723TIP3    H256585   2.903   1.585  16.298  0.5536 -0.4424  0.2497
11724TIP3   OH256586   4.381   6.453   3.814  0.6114  0.0235  0.3073
11724TIP3    H156587   4.300   6.412   3.844  0.5375  0.4908  0.7431
11724TIP3    H256588   4.436   6.379   3.787 -0.8258 -0.2022 -2.2903
11725TIP3   OH256589   6.321   0.518   2.627  0.6170  0.7054  0.0966
11725TIP3    H156590   6.341   0.595   2.573  1.0229 -0.2878 -1.2124
11725TIP3    H256591   6.330   0.444   2.568 -1.4503 -0.2436  0.8868
11726TIP3   OH256592   5.592   3.480   1.195 -0.2236 -0.4138  0.2615
11726TIP3    H156593   5.601   3.426   1.116 -2.4527  1.5515 -1.4818
11726TIP3    H256594   5.500   3.472   1.218  0.4230 -1.0934  2.8853
11727TIP3   OH256595   0.716   4.550  14.806 -0.2827  0.4838 -0.1491
11727TIP3    H156596   0.769   4.581  14.879 -0.3493  1.3053 -0.4321
11727TIP3    H256597   0.625   4.561  14.835 -0.3348  1.8109 -0.7148
11728TIP3   OH256598   1.259   5.548  10.592  0.4427 -0.5046 -0.4004
11728TIP3    H156599   1.322   5.538  10.664  0.6820 -1.2636 -0.6979
11728TIP3    H256600   1.220   5.634  10.605  0.7978 -0.4562  0.3905
11729TIP3   OH256601   4.031   1.107   5.758 -0.7822  0.4460 -0.7476
11729TIP3    H156602   4.015   1.021   5.719 -1.6750  0.0152  0.5012
11729TIP3    H256603   3.954   1.158   5.735 -1.3336  0.1779  0.4188
11730TIP3   OH256604   3.434   0.212   2.187  0.3409  0.0835  0.0607
11730TIP3    H156605   3.372   0.221   2.259 -0.6202  0.7594 -0.8290
11730TIP3    H256606   3.392   0.255   2.113  2.0353  0.9192 -0.4766
11731TIP3   OH256607   2.466   4.473  15.823  0.2341 -0.0110 -0.4005
11731TIP3    H156608   2.537   4.409  15.831  0.1463 -0.3230 -1.9696
11731TIP3    H256609   2.430   4.460  15.736  1.9760  3.9804 -1.9800
11732TIP3   OH256610   3.922   2.711   0.697  0.0715  0.2631 -0.2468
11732TIP3    H156611   3.914   2.723   0.791 -2.5471  0.0384 -0.3700
11732TIP3    H256612   3.974   2.786   0.667 -0.7767  1.4601  1.1515
11733TIP3   OH256613   1.758   6.232   3.134  0.0773 -1.0210 -0.3888
11733TIP3    H156614   1.734   6.198   3.048 -2.1790 -1.2553  0.2820
11733TIP3    H256615   1.832   6.177   3.161 -0.4257 -2.2259 -1.3623
11734TIP3   OH256616   6.304   5.541   2.151  0.6130  0.3105 -0.5131
11734TIP3    H156617   6.350   5.579   2.077  0.2738  1.9332  0.0679
11734TIP3    H256618   6.365   5.549   2.224  1.0047 -1.4104 -0.6150
11735TIP3   OH256619   4.131   6.532   2.831 -0.1203  0.4866 -0.7436
11735TIP3    H156620   4.072   6.531   2.756 -1.4389  1.6714  0.2176
11735TIP3    H256621   4.161   6.623   2.838  2.4923 -0.2134 -1.6475
11736TIP3   OH256622   5.154   0.988  16.975 -0.0898  0.1837 -0.9408
11736TIP3    H156623   5.119   0.899  16.978  0.0526  0.1523  0.5093
11736TIP3    H256624   5.194   0.995  16.888 -2.5848 -0.1779 -2.2201
11737TIP3   OH256625   1.985   6.302  11.596  0.5059  0.2005 -0.1349
11737TIP3    H156626   2.021   6.371  11.651  0.3649  0.8359 -0.8305
11737TIP3    H256627   1.949   6.347  11.520 -0.3055 -0.5610 -0.2307
11738TIP3   OH256628   1.149   4.061  12.241 -0.0937 -0.6023 -0.1668
11738TIP3    H156629   1.141   4.081  12.147 -1.0689  2.0594  0.4118
11738TIP3    H256630   1.205   4.131  12.275 -0.5991 -0.9536  1.4384
11739TIP3   OH256631   5.823   3.676  14.252  0.6020 -0.0985 -0.2336
11739TIP3    H156632   5.831   3.653  14.160  2.6002 -1.4799  0.2249
11739TIP3    H256633   5.762   3.611  14.288  0.5516 -0.1282 -0.3717
11740TIP3   OH256634   1.323   3.175  12.821  0.0888  0.2009  0.0342
11740TIP3    H156635   1.279   3.251  12.782 -0.6929 -0.5640 -0.5952
11740TIP3    H256636   1.327   3.195  12.914 -1.1586  0.4972  0.0398
11741TIP3   OH256637   2.031   4.048   0.882 -0.4668  0.1629 -0.1984
11741TIP3    H156638   2.035   4.059   0.787  0.8571  0.2512 -0.1562
11741TIP3    H256639   2.099   4.107   0.916 -1.4218  0.6962  0.8583
11742TIP3   OH256640   2.616   3.150   2.789 -0.6369 -0.6384 -0.1647
11742TIP3    H156641   2.558   3.096   2.735 -0.6154 -1.0978  0.2668
11742TIP3    H256642   2.653   3.089   2.853 -0.7232 -0.0932  0.4195
11743TIP3   OH256643   5.385   5.754  15.286  0.4883  0.2750 -0.6708
11743TIP3    H156644   5.383   5.662  15.258 -0.5749 -0.5044  1.6940
11743TIP3    H256645   5.341   5.801  15.215  0.2902 -1.1531 -1.5499
11744TIP3   OH256646   4.951   5.400   5.839  0.5698 -0.7419  0.1090
11744TIP3    H156647   4.987   5.376   5.924 -0.3460 -1.1867  0.3748
11744TIP3    H256648   4.864   5.360   5.837  1.2724 -2.3249 -1.7786
11745TIP3   OH256649   5.412   5.797  14.161 -0.1652  0.3844  0.1796
11745TIP3    H156650   5.392   5.738  14.088  0.9664  1.7641 -1.3049
11745TIP3    H256651   5.392   5.885  14.127  2.6611  1.3000  0.5930
11746TIP3   OH256652   0.014   1.507  15.010  0.0329  0.2104 -0.3544
11746TIP3    H156653  -0.026   1.545  14.932 -0.2948 -0.9456 -0.7745
11746TIP3    H256654   0.059   1.428  14.979  1.2492  0.5834  0.3791
11747TIP3   OH256655   1.189   3.567  15.354 -0.1811 -0.7498 -0.4754
11747TIP3    H156656   1.192   3.656  15.318  1.2779 -0.5019  0.2099
11747TIP3    H256657   1.219   3.512  15.281 -1.2582 -0.7239 -0.9591
11748TIP3   OH256658   5.556   4.555   5.538  0.0601  0.2401 -0.0872
11748TIP3    H156659   5.575   4.568   5.445 -1.9737  1.2481 -0.4243
11748TIP3    H256660   5.468   4.592   5.550 -0.3374 -1.1812  1.9323
11749TIP3   OH256661   2.713   1.463  16.649  0.5021 -0.1552  0.2881
11749TIP3    H156662   2.693   1.447  16.742 -4.4248 -0.8617 -0.6139
11749TIP3    H256663   2.648   1.527  16.621  0.3011 -1.6390 -3.1625
11750TIP3   OH256664   4.037   4.237  11.950  0.3795  0.2599  0.2752
11750TIP3    H156665   4.095   4.272  12.017  0.5971 -0.2443  0.3554
11750TIP3    H256666   4.009   4.314  11.900 -1.1669  0.8879  1.9952
11751TIP3   OH256667   1.507   2.383  12.186 -0.0349 -0.0788  0.1160
11751TIP3    H156668   1.502   2.471  12.222 -0.5175  0.0604 -0.2858
11751TIP3    H256669   1.554   2.332  12.253 -0.2126  0.3596  0.5749
11752TIP3   OH256670   2.011   0.301   4.761 -0.5013  0.6010 -0.4007
11752TIP3    H156671   1.953   0.376   4.752 -0.3861  0.5781 -1.5121
11752TIP3    H256672   1.955   0.226   4.741 -0.2810  0.5127 -0.6908
11753TIP3   OH256673   5.945   0.223   4.105 -0.0945 -0.0615 -0.4758
11753TIP3    H156674   6.025   0.274   4.121  0.1263 -0.2839 -0.8628
11753TIP3    H256675   5.976   0.135   4.086 -0.5479 -0.8146  1.9267
11754TIP3   OH256676   1.410   4.459  17.189 -0.1295  0.2030 -0.7501
11754TIP3    H156677   1.364   4.538  17.162 -0.1934  0.2013 -0.6481
11754TIP3    H256678   1.501   4.473  17.163  0.3668  1.3436  1.3528
11755TIP3   OH256679   1.241   1.383   4.433  0.2932 -0.4840 -0.1697
11755TIP3    H156680   1.211   1.293   4.426 -0.0139 -0.3697 -0.3806
11755TIP3    H256681   1.302   1.383   4.506  1.4070 -1.1528 -1.0771
11756TIP3   OH256682   5.401   1.143  14.036 -0.0091 -0.0374  0.0983
11756TIP3    H156683   5.319   1.094  14.030  1.2968 -2.2093 -1.8582
11756TIP3    H256684   5.377   1.234  14.017 -2.0337 -0.4671  0.3888
11757TIP3   OH256685   1.784   3.307   2.875 -0.4323 -0.2797  0.0367
11757TIP3    H156686   1.818   3.301   2.965 -1.2655  0.2285  0.4028
11757TIP3    H256687   1.711   3.247   2.873  1.5263 -2.8066 -1.3013
11758TIP3   OH256688   5.420   6.709   1.732  0.7239  0.6230 -0.2058
11758TIP3    H156689   5.396   6.796   1.699  3.4401  1.1972 -0.8996
11758TIP3    H256690   5.473   6.727   1.809 -0.8553 -0.5715  1.2429
11759TIP3   OH256691   5.827   0.959  13.270 -0.0231  0.4503 -0.1472
11759TIP3    H156692   5.921   0.958  13.289 -0.0318  1.6371  0.0131
11759TIP3    H256693   5.820   1.002  13.185 -0.2375 -2.1057 -1.5264
11760TIP3   OH256694   3.698   1.969  16.054  0.1507 -0.0454 -0.2330
11760TIP3    H156695   3.720   1.911  15.980  0.6151 -0.5018  0.2534
11760TIP3    H256696   3.698   1.911  16.130  2.3547  0.8900  0.5488
11761TIP3   OH256697   4.078   0.610   0.758 -0.3136  0.3949  0.3579
11761TIP3    H156698   4.062   0.638   0.849  2.4373  0.9679  0.7501
11761TIP3    H256699   4.019   0.665   0.706 -0.1828  1.8411  1.6412
11762TIP3   OH256700   6.213   4.457   2.157 -0.2919  0.5833  0.3776
11762TIP3    H156701   6.214   4.387   2.091 -2.8188  2.6933 -2.1685
11762TIP3    H256702   6.304   4.481   2.168  0.4172 -1.3945 -0.6003
11763TIP3   OH256703   4.801   6.025   3.400  0.0690  0.3470 -0.7436
11763TIP3    H156704   4.760   6.093   3.455 -0.1955 -0.0067 -0.5020
11763TIP3    H256705   4.895   6.037   3.413  0.1439  2.0615 -2.3440
11764TIP3   OH256706   5.694   0.445   3.764 -0.6843 -0.1533  0.0677
11764TIP3    H156707   5.603   0.469   3.781 -0.6533 -1.1230  1.9378
11764TIP3    H256708   5.715   0.383   3.834  0.2408 -2.9551 -2.4907
11765TIP3   OH256709   0.299   1.084  14.730  0.4791 -0.0138  0.7091
11765TIP3    H156710   0.210   1.060  14.758  0.5940 -1.4690 -0.0711
11765TIP3    H256711   0.357   1.042  14.793  0.6561 -1.0548 -0.1150
11766TIP3   OH256712   5.956   4.034   4.398  0.0420 -0.1606 -0.1478
11766TIP3    H156713   5.999   4.050   4.482 -0.8891 -0.9277  0.5014
11766TIP3    H256714   6.008   3.964   4.357  1.1727  0.9952 -0.7520
11767TIP3   OH256715   2.042   2.098   4.640 -0.2248 -0.4106  0.4502
11767TIP3    H156716   2.021   2.006   4.658  0.2027 -0.3610  1.2192
11767TIP3    H256717   2.138   2.101   4.639 -0.1441 -0.5860 -2.8020
11768TIP3   OH256718   0.977   1.181  11.330  0.3642 -0.2380 -0.5636
11768TIP3    H156719   1.026   1.170  11.248 -0.1262 -0.3719 -0.8422
11768TIP3    H256720   0.942   1.094  11.348  1.9102 -0.6299  0.7233
11769TIP3   OH256721   3.607   2.391  14.520  0.3687  0.2002  0.4228
11769TIP3    H156722   3.635   2.434  14.601  2.1680  0.8467 -0.4965
11769TIP3    H256723   3.598   2.463  14.457 -1.7875 -0.1935  0.1872
11770TIP3   OH256724   3.611   0.479  15.418 -0.3932 -0.7344 -0.2516
11770TIP3    H156725   3.624   0.394  15.376 -1.1425 -0.8166 -0.3345
11770TIP3    H256726   3.689   0.529  15.396  0.5855 -1.7691  0.7266
11771TIP3   OH256727   1.051   4.609   2.202  0.2802  0.3765 -0.5004
11771TIP3    H156728   1.014   4.690   2.167  3.7024  2.3253 -0.0623
11771TIP3    H256729   1.094   4.568   2.127  0.2515 -0.0092 -0.3082
11772TIP3   OH256730   0.103   2.706   3.932  0.4496 -0.5782  0.4636
11772TIP3    H156731   0.104   2.616   3.900 -1.0706 -0.8455  1.0822
11772TIP3    H256732   0.016   2.738   3.912  0.0718 -0.1287  2.5442
11773TIP3   OH256733   0.646   6.753  11.789 -0.1029 -0.0069 -0.0122
11773TIP3    H156734   0.683   6.691  11.726  1.4174  1.6562 -0.8326
11773TIP3    H256735   0.687   6.730  11.872  0.4537 -0.0944 -0.3107
11774TIP3   OH256736   0.341   5.853   4.023  0.1306  0.2385  0.3446
11774TIP3    H156737   0.388   5.786   3.973  0.8113  2.0143 -1.5008
11774TIP3    H256738   0.383   5.935   3.999 -2.1718  1.6189  0.7406
11775TIP3   OH256739   4.915   1.244  17.103  0.1910  0.0725  0.0670
11775TIP3    H156740   4.873   1.213  17.183 -0.7082  0.9769 -0.0329
11775TIP3    H256741   4.955   1.327  17.128  0.0839  0.2587 -0.3750
11776TIP3   OH256742   1.658   6.434  11.768  0.3322 -0.6139  0.2773
11776TIP3    H156743   1.569   6.465  11.783  0.2173 -1.1420  0.7003
11776TIP3    H256744   1.653   6.385  11.685  0.0907 -1.1767  0.6200
11777TIP3   OH256745   2.328   4.833   2.372 -0.3580 -0.4116  0.1579
11777TIP3    H156746   2.422   4.821   2.361 -0.5471 -2.1135  0.0343
11777TIP3    H256747   2.305   4.776   2.445 -1.4329 -0.7819 -0.4477
11778TIP3   OH256748   4.104   1.921   4.997 -0.6791 -0.7960 -0.0093
11778TIP3    H156749   4.079   1.875   4.917 -1.0170  0.6673 -0.7803
11778TIP3    H256750   4.175   1.979   4.970  0.0161 -1.1298  1.0301
11779TIP3   OH256751   5.117   4.519   3.822 -0.4218  0.1094  0.0753
11779TIP3    H156752   5.129   4.557   3.909  1.3519  0.7956 -0.4022
11779TIP3    H256753   5.024   4.501   3.815 -0.7426  0.9842  1.7342
11780TIP3   OH256754   5.002   0.318   0.773  0.0179 -0.5752 -0.3312
11780TIP3    H156755   5.048   0.397   0.745  0.3736 -0.0816  1.4709
11780TIP3    H256756   4.917   0.350   0.805 -1.0209 -1.3021 -2.2324
11781TIP3   OH256757   6.121   0.901  16.524 -0.2154 -0.2364 -0.1085
11781TIP3    H156758   6.204   0.925  16.484 -1.1791 -0.0942 -2.1123
11781TIP3    H256759   6.055   0.945  16.472 -1.7275 -2.7646 -0.4877
11782TIP3   OH256760   3.950   2.758   4.640 -0.8184 -0.0473 -0.1594
11782TIP3    H156761   3.883   2.718   4.696 -0.0911  0.2415  0.9512
11782TIP3    H256762   4.033   2.733   4.681 -0.2583 -0.0249 -1.2654
11783TIP3   OH256763   2.580   2.192   4.762 -0.6440  0.1524  0.4855
11783TIP3    H156764   2.675   2.205   4.763 -0.6472  0.1442  1.1649
11783TIP3    H256765   2.567   2.105   4.800 -0.9876  0.6187  1.4504
11784TIP3   OH256766   4.267   1.628  14.323  0.1168 -0.4756  0.3185
11784TIP3    H156767   4.324   1.705  14.333 -0.9029  0.4191 -0.4907
11784TIP3    H256768   4.230   1.637  14.235 -3.2818  0.3958  1.6840
11785TIP3   OH256769   4.637   1.831   0.878  0.3142 -0.3952  0.3614
11785TIP3    H156770   4.681   1.880   0.808 -0.8539  0.2825  0.0603
11785TIP3    H256771   4.635   1.741   0.847  1.2068 -0.3909  0.2529
11786TIP3   OH256772   2.527   6.463   4.384 -0.6246  0.2671 -0.6484
11786TIP3    H156773   2.480   6.532   4.338  1.0344  0.2332 -2.5144
11786TIP3    H256774   2.478   6.383   4.367 -1.1000  0.5683 -0.6869
11787TIP3   OH256775   5.135   3.727   4.233  0.5925  0.1730  0.4624
11787TIP3    H156776   5.061   3.784   4.252 -0.5349 -0.3473 -1.9614
11787TIP3    H256777   5.141   3.668   4.308 -1.6894  0.0164  0.5779
11788TIP3   OH256778   4.732   4.111  16.157 -0.6721 -0.0801 -0.4756
11788TIP3    H156779   4.662   4.046  16.160 -0.2971 -0.4742  1.9459
11788TIP3    H256780   4.811   4.062  16.179 -0.5105  1.2247  2.2825
11789TIP3   OH256781   5.434   4.313  14.390 -0.1624 -0.5179 -0.3880
11789TIP3    H156782   5.432   4.311  14.294 -2.6128  0.2243 -0.4131
11789TIP3    H256783   5.368   4.250  14.417  0.4587 -0.6718  0.8165
11790TIP3   OH256784   1.755   5.142  15.455  0.7251  0.0312 -0.1954
11790TIP3    H156785   1.804   5.207  15.506  1.1867 -0.0063 -0.5883
11790TIP3    H256786   1.755   5.176  15.366 -0.3828  0.2714 -0.1218
11791TIP3   OH256787   4.129   6.317   2.070 -0.2562 -0.1376  0.6142
11791TIP3    H156788   4.140   6.257   2.145  1.6032 -0.3723  0.1909
11791TIP3    H256789   4.076   6.389   2.105 -0.1393 -0.6553  1.9243
11792TIP3   OH256790   0.346   2.296  13.794  0.0296  0.5252  0.2934
11792TIP3    H156791   0.272   2.354  13.810 -0.5584 -0.4397  1.2308
11792TIP3    H256792   0.307   2.217  13.756  0.8147  0.7183 -0.9967
11793TIP3   OH256793   5.369   4.609  12.929 -0.2927  0.3923  0.0655
11793TIP3    H156794   5.403   4.666  12.860 -0.5391 -0.1634 -0.5312
11793TIP3    H256795   5.297   4.561  12.887 -0.3852 -0.0244  0.6800
11794TIP3   OH256796   3.091   1.926   5.190  0.4558 -0.0673  0.8506
11794TIP3    H156797   3.016   1.977   5.218  0.1133 -0.6047  0.9320
11794TIP3    H256798   3.158   1.991   5.169 -0.1158  0.4308  0.5267
11795TIP3   OH256799   2.985   2.991  16.717  0.0589  0.5721 -0.2355
11795TIP3    H156800   2.978   2.913  16.661 -1.4166  0.0851  0.5838
11795TIP3    H256801   2.897   3.029  16.715 -0.0580  0.5052  1.7711
11796TIP3   OH256802   2.183   4.071  16.028  0.2734 -0.4794  0.8344
11796TIP3    H156803   2.272   4.079  15.995  0.4276  0.9572  1.5240
11796TIP3    H256804   2.131   4.128  15.972 -0.5129 -2.3886 -0.4697
11797TIP3   OH256805   6.312   0.402   3.754  0.0624 -0.0233 -0.1114
11797TIP3    H156806   6.371   0.401   3.679 -1.3156  1.0171 -1.2670
11797TIP3    H256807   6.225   0.394   3.716 -0.8340  2.4466  1.1854
11798TIP3   OH256808   2.269   4.304   1.588 -0.2526  0.4284  0.0912
11798TIP3    H156809   2.179   4.318   1.618 -0.0902  1.3614  0.1630
11798TIP3    H256810   2.323   4.355   1.649  0.3830 -0.5767  0.3967
11799TIP3   OH256811   3.777   5.276  12.933  0.0758  0.1261  0.3352
11799TIP3    H156812   3.784   5.362  12.890 -0.6384 -0.0507 -0.1545
11799TIP3    H256813   3.796   5.213  12.863  1.8334 -0.0945  0.9821
11800TIP3   OH256814   2.035   5.975  11.925  0.2708  0.4504 -0.4799
11800TIP3    H156815   1.996   5.891  11.901 -3.4923  1.6822  0.6284
11800TIP3    H256816   1.982   6.040  11.879  0.0434  2.3473  2.2418
11801TIP3   OH256817   1.501   5.258  15.272 -0.1809  0.1428 -0.5287
11801TIP3    H156818   1.498   5.354  15.267  0.3215  0.1828 -0.0848
11801TIP3    H256819   1.576   5.233  15.219  0.1099  0.0433 -0.0792
11802TIP3   OH256820   3.354   0.537   3.775 -0.6585  0.0948  0.3886
11802TIP3    H156821   3.449   0.548   3.781 -0.6366 -0.5393  1.4452
11802TIP3    H256822   3.328   0.503   3.861 -1.8648  0.4055  0.1699
11803TIP3   OH256823   3.013   5.038   6.541 -0.2306  0.0633 -0.0354
11803TIP3    H156824   2.985   4.998   6.459  1.0878 -0.2377 -0.3637
11803TIP3    H256825   2.932   5.071   6.581 -0.9939 -0.5508 -1.0350
11804TIP3   OH256826   3.129   2.278   3.808 -0.1246 -0.2771 -0.0247
11804TIP3    H156827   3.142   2.215   3.879 -0.2992 -1.4848 -1.0098
11804TIP3    H256828   3.034   2.291   3.805 -0.1006 -0.0678  0.0821
11805TIP3   OH256829   2.142   6.099  14.789  0.2326  0.1239 -0.5470
11805TIP3    H156830   2.075   6.035  14.768 -0.3375  0.9760 -1.3752
11805TIP3    H256831   2.095   6.174  14.825  0.4170  1.6941 -3.3120
11806TIP3   OH256832   3.010   3.766  12.025 -0.5045 -0.0920 -0.6352
11806TIP3    H156833   3.054   3.712  11.958  1.4277  1.2138 -0.5074
11806TIP3    H256834   3.017   3.855  11.992  0.1274  0.5426  1.1022
11807TIP3   OH256835   2.972   1.700  13.490  0.6458  0.3485 -0.1464
11807TIP3    H156836   3.046   1.749  13.527 -0.7542  3.2513 -0.8647
11807TIP3    H256837   2.948   1.750  13.412 -0.8291 -1.6682 -1.0445
11808TIP3   OH256838   1.639   4.345   3.030 -0.1311  0.1632 -0.7270
11808TIP3    H156839   1.633   4.360   2.936 -1.0452  1.2658 -0.5282
11808TIP3    H256840   1.563   4.391   3.066  1.8938  2.5833  0.8356
11809TIP3   OH256841   5.299   6.119  11.822 -0.6566 -0.1777 -0.2165
11809TIP3    H156842   5.381   6.077  11.848  0.2757  2.1172  0.8596
11809TIP3    H256843   5.232   6.076  11.876 -0.0532 -1.4956 -0.4943
11810TIP3   OH256844   2.050   2.312  15.413 -0.1327 -0.2997  0.1477
11810TIP3    H156845   2.016   2.227  15.440 -2.7515 -0.5328 -3.1890
11810TIP3    H256846   1.995   2.376  15.458 -1.6339 -0.5870 -1.1708
11811TIP3   OH256847   5.487   0.996  11.949 -0.3512 -0.3208  0.0462
11811TIP3    H156848   5.477   1.083  11.988 -0.0298 -0.5483  0.6684
11811TIP3    H256849   5.543   0.949  12.011  0.6091 -0.5402 -0.9634
11812TIP3   OH256850   1.718   2.145  15.000 -0.3874  0.5882 -0.5243
11812TIP3    H156851   1.783   2.196  15.048  1.4143  0.4854 -2.6601
11812TIP3    H256852   1.709   2.191  14.916 -1.7459 -0.4147 -0.9640
11813TIP3   OH256853   5.528   3.670  13.438 -0.3349  0.8071 -0.4648
11813TIP3    H156854   5.602   3.656  13.497 -1.6199  0.2529  1.0487
11813TIP3    H256855   5.561   3.643  13.352  0.8365 -0.6371  0.3942
11814TIP3   OH256856   2.974   4.469   5.818  0.0913 -0.2158  0.0581
11814TIP3    H156857   2.899   4.492   5.873 -0.1590  1.7913 -1.0536
11814TIP3    H256858   2.936   4.455   5.731  0.5096 -3.1455  0.2334
11815TIP3   OH256859   4.755   4.551  11.378  0.3849  1.0342  0.8390
11815TIP3    H156860   4.696   4.584  11.311 -0.3681  0.5979  1.2765
11815TIP3    H256861   4.801   4.478  11.335 -1.9325 -0.9667  1.4921
11816TIP3   OH256862   2.643   0.190  15.493 -0.1706  0.5496 -0.3457
11816TIP3    H156863   2.706   0.120  15.505  0.3793  1.3444  1.9930
11816TIP3    H256864   2.695   0.263  15.458 -0.8277 -0.2562 -3.2256
11817TIP3   OH256865   1.467   5.307   4.388  0.5376 -0.0164  0.2588
11817TIP3    H156866   1.424   5.276   4.308  0.5388  0.2412  0.1602
11817TIP3    H256867   1.401   5.360   4.432  1.0659  1.1649 -0.3578
11818TIP3   OH256868   3.120   5.228   5.590 -0.2827 -0.2968 -0.4987
11818TIP3    H156869   3.182   5.298   5.611 -0.0172 -0.5997 -0.2612
11818TIP3    H256870   3.109   5.234   5.495 -1.0051  0.6827 -0.3697
11819TIP3   OH256871   3.759   6.467   5.256 -0.1739  0.0543  0.1284
11819TIP3    H156872   3.765   6.561   5.275 -0.7949  0.4253 -1.3479
11819TIP3    H256873   3.775   6.425   5.340  1.4916  1.4306  0.5650
11820TIP3   OH256874   3.616   4.516  12.625 -0.3475  0.2345  0.1373
11820TIP3    H156875   3.593   4.440  12.572 -0.0309  0.9955 -1.1338
11820TIP3    H256876   3.536   4.567  12.631 -0.4277  0.0629  0.5505
11821TIP3   OH256877   3.442   3.556  17.211 -0.8286 -0.2918  0.0327
11821TIP3    H156878   3.375   3.583  17.148 -1.7281 -1.0928  0.6315
11821TIP3    H256879   3.402   3.485  17.261  0.5246 -0.9141  0.2909
11822TIP3   OH256880   2.472   2.203  15.390  0.4259 -1.0632  0.3468
11822TIP3    H156881   2.408   2.157  15.443 -0.2386 -0.3885  0.1567
11822TIP3    H256882   2.420   2.260  15.333  1.1955 -0.4502  0.2314
11823TIP3   OH256883   5.163   4.844   1.569 -0.1414  0.4493 -0.0650
11823TIP3    H156884   5.249   4.872   1.537  0.7315 -0.8085  1.0641
11823TIP3    H256885   5.100   4.885   1.509  1.2943  0.3285 -1.7211
11824TIP3   OH256886   2.736   0.926   2.687 -0.4976  0.5173  0.1775
11824TIP3    H156887   2.657   0.969   2.652 -0.0152 -0.1425 -1.8758
11824TIP3    H256888   2.796   0.923   2.613  0.8094 -0.5683  1.2283
11825TIP3   OH256889   1.461   5.204  15.007 -0.3389  0.1567 -0.6976
11825TIP3    H156890   1.437   5.224  15.097 -0.0838  2.9387 -1.1639
11825TIP3    H256891   1.417   5.121  14.989 -0.9190 -0.1608  1.7570
11826TIP3   OH256892   4.123   2.107   2.829 -0.2588  0.6657 -0.1153
11826TIP3    H156893   4.197   2.056   2.861 -0.7029  0.6390  0.9184
11826TIP3    H256894   4.145   2.127   2.738 -0.5563 -2.2937 -0.9356
11827TIP3   OH256895   3.876   1.361   1.664  0.0804  0.3672  0.0192
11827TIP3    H156896   3.795   1.359   1.612 -1.1074  2.2680  1.6279
11827TIP3    H256897   3.942   1.395   1.604 -0.7752  0.6193 -0.8158
11828TIP3   OH256898   3.733   0.609   0.603  0.0433 -0.4448  0.8322
11828TIP3    H156899   3.714   0.570   0.518  0.1869  0.3504  0.4280
11828TIP3    H256900   3.648   0.614   0.648 -0.5704  1.8356 -0.4273
11829TIP3   OH256901   2.044   3.069   2.437  0.4847 -0.3966 -0.1697
11829TIP3    H156902   2.081   2.985   2.409  0.7695 -0.2538 -0.2283
11829TIP3    H256903   1.963   3.046   2.481 -0.7765 -0.5399 -2.4175
11830TIP3   OH256904   4.171   2.381   3.657 -0.0680  0.2661  0.1867
11830TIP3    H156905   4.227   2.327   3.712  0.8587 -2.3132 -2.9944
11830TIP3    H256906   4.101   2.410   3.716  0.7566 -2.3501  2.7041
11831TIP3   OH256907   1.055   1.373  12.829  0.1489  0.2737 -0.7841
11831TIP3    H156908   1.146   1.403  12.823  0.5022 -0.6424 -0.2563
11831TIP3    H256909   1.017   1.426  12.899 -0.0493  1.4215 -1.7387
11832TIP3   OH256910   4.620   1.577   0.696 -0.2636  0.4663 -0.7667
11832TIP3    H156911   4.541   1.527   0.717  1.5778 -2.3456  0.0115
11832TIP3    H256912   4.588   1.654   0.650 -3.6882  0.9444  1.9589
11833TIP3   OH256913   2.456   0.516   0.364 -0.0874  0.3933  0.1632
11833TIP3    H156914   2.369   0.532   0.399 -0.3678  0.5439 -0.6039
11833TIP3    H256915   2.498   0.461   0.430 -1.9122 -2.6331 -1.0075
11834TIP3   OH256916   1.122   0.234   4.053  0.2395 -0.0710  0.2352
11834TIP3    H156917   1.199   0.279   4.090 -0.0313 -0.4747  1.3306
11834TIP3    H256918   1.054   0.302   4.051  0.3314  0.0223  0.2184
11835TIP3   OH256919   2.686   0.745  11.810 -0.0043 -0.4865  0.0644
11835TIP3    H156920   2.603   0.759  11.764  0.4729 -1.2439 -1.0745
11835TIP3    H256921   2.666   0.678  11.876 -0.7687  0.8311  1.2197
11836TIP3   OH256922   6.565   1.446   2.939  0.4846 -0.0431  0.6711
11836TIP3    H156923   6.541   1.371   2.993 -3.0861 -0.2127 -0.8602
11836TIP3    H256924   6.584   1.409   2.853  0.0145  0.6674  0.2512
11837TIP3   OH256925   3.465   3.928  13.339  0.2552  1.0970 -0.0852
11837TIP3    H156926   3.530   3.873  13.384 -0.9106  0.6644  1.1210
11837TIP3    H256927   3.406   3.957  13.408 -1.1675  1.0437 -1.2314
11838TIP3   OH256928   6.527   0.335  12.764 -0.1570  0.1198  0.3788
11838TIP3    H156929   6.599   0.354  12.705  0.0534  1.3087  1.0066
11838TIP3    H256930   6.569   0.302  12.844 -0.2186  1.7613  1.1186
11839TIP3   OH256931   1.342   2.787   1.826 -0.1459  0.0323 -0.1741
11839TIP3    H156932   1.390   2.715   1.867  0.9400  1.2460  0.7428
11839TIP3    H256933   1.316   2.752   1.740 -3.1341 -2.8753  1.6523
11840TIP3   OH256934   3.866   0.986   3.808  0.2784 -0.0999 -0.5110
11840TIP3    H156935   3.954   0.995   3.845 -1.2294 -2.7312  4.8030
11840TIP3    H256936   3.833   1.076   3.801  2.3528  0.7848  0.4013
11841TIP3   OH256937   5.014   5.829  14.957  0.5950 -0.0481 -0.6448
11841TIP3    H156938   4.921   5.852  14.970  1.1265  1.0294  2.0595
11841TIP3    H256939   5.025   5.826  14.862 -1.9251  1.0428 -1.0616
11842TIP3   OH256940   3.618   1.008   5.268  0.2453 -0.3170 -0.1278
11842TIP3    H156941   3.672   1.014   5.189  2.2486  0.5787  1.2381
11842TIP3    H256942   3.584   1.097   5.280 -0.0658 -0.4536  0.0043
11843TIP3   OH256943   3.600   3.337  14.513  0.5207  0.0272  0.0058
11843TIP3    H156944   3.575   3.246  14.501 -1.6002  0.7346 -1.5199
11843TIP3    H256945   3.687   3.344  14.475 -0.3270 -0.8707 -2.2485
11844TIP3   OH256946   4.501   0.713   4.838 -0.2042 -0.3030  0.2753
11844TIP3    H156947   4.485   0.694   4.746  0.5249 -0.1801  0.1189
11844TIP3    H256948   4.503   0.808   4.843 -2.4844 -0.2361  0.8229
11845TIP3   OH256949   2.403   0.635   5.771  0.0714  0.2187 -0.3203
11845TIP3    H156950   2.452   0.717   5.763  1.6177 -0.4755  1.2037
11845TIP3    H256951   2.430   0.600   5.856 -1.6027 -1.2125 -0.3185
11846TIP3   OH256952   3.964   3.450   1.877 -0.3993 -0.2330  0.1166
11846TIP3    H156953   3.877   3.420   1.904 -0.7631  0.2701 -0.4650
11846TIP3    H256954   4.019   3.437   1.954 -0.8710 -1.0434  0.3266
11847TIP3   OH256955   2.256   2.730   4.896  0.3935  0.4247  0.1161
11847TIP3    H156956   2.200   2.788   4.948 -2.6887 -1.1979 -1.1104
11847TIP3    H256957   2.259   2.770   4.810 -0.4453 -0.3671 -0.3041
11848TIP3   OH256958   2.873   1.660  12.647 -0.4257 -0.1201  0.1192
11848TIP3    H156959   2.793   1.706  12.622  0.5844  0.1068 -3.1121
11848TIP3    H256960   2.884   1.592  12.580  1.8842 -0.3943  0.6924
11849TIP3   OH256961   5.433   1.206   4.433 -0.8377 -0.5962 -0.0371
11849TIP3    H156962   5.487   1.153   4.492  0.5138 -0.5689 -1.1871
11849TIP3    H256963   5.354   1.224   4.482 -0.4535 -1.9696  1.1424
11850TIP3   OH256964   4.881   0.122   5.781  0.6628 -0.1668 -0.4760
11850TIP3    H156965   4.960   0.160   5.742  0.9085 -1.2278 -1.0259
11850TIP3    H256966   4.809   0.174   5.744  1.0551  0.5209 -0.3044
11851TIP3   OH256967   0.454   1.638   2.280 -0.6355 -0.2462 -0.1172
11851TIP3    H156968   0.459   1.548   2.246 -0.2433 -0.7444  1.1928
11851TIP3    H256969   0.492   1.632   2.367  0.3903  1.4216 -0.4061
11852TIP3   OH256970   4.106   3.807   6.011  0.5707 -0.1042  0.4361
11852TIP3    H156971   4.140   3.759   6.087  0.5614  0.2905  0.6898
11852TIP3    H256972   4.175   3.870   5.990  1.1875 -1.1180 -0.7407
11853TIP3   OH256973   0.598   2.297  13.154  0.3693 -0.3160 -0.2485
11853TIP3    H156974   0.538   2.295  13.229 -0.2479 -1.0891 -0.7515
11853TIP3    H256975   0.565   2.369  13.099  0.8286  0.2580  0.2194
11854TIP3   OH256976   0.969   2.318   3.084 -0.2648  0.6647 -0.7376
11854TIP3    H156977   0.929   2.340   3.000 -0.2453 -1.3010 -1.3128
11854TIP3    H256978   0.900   2.273   3.133  0.6019 -0.9198 -0.9225
11855TIP3   OH256979   0.062   0.064   5.351 -0.0343  0.0228  0.3824
11855TIP3    H156980   0.015   0.081   5.433  0.7679 -3.3274  1.7477
11855TIP3    H256981  -0.006   0.045   5.287 -0.7694 -3.0782  1.8884
11856TIP3   OH256982   3.217   6.044  12.805 -0.1703  0.4366 -0.5826
11856TIP3    H156983   3.238   6.035  12.713 -1.1830  2.9825 -1.1476
11856TIP3    H256984   3.249   5.963  12.845  3.1919  0.5964 -2.5878
11857TIP3   OH256985   1.089   1.306  15.964  0.3861  0.4971 -0.3936
11857TIP3    H156986   1.092   1.384  15.909 -0.3910  0.2154 -0.8667
11857TIP3    H256987   1.175   1.265  15.954 -0.4129 -0.7377 -3.2428
11858TIP3   OH256988   3.233   3.695  14.448  0.5087  0.4083 -0.2673
11858TIP3    H156989   3.293   3.644  14.395  0.4460 -0.6353  0.6149
11858TIP3    H256990   3.152   3.643  14.450  0.2068  0.8746  0.0783
11859TIP3   OH256991   0.437   6.306  13.852  0.3321  0.0533 -0.1706
11859TIP3    H156992   0.370   6.340  13.911 -0.0756  0.6674 -0.9765
11859TIP3    H256993   0.439   6.367  13.778  2.2604  0.4449  0.1379
11860TIP3   OH256994   4.728   3.814   1.275 -0.0564  0.0219  0.3730
11860TIP3    H156995   4.815   3.817   1.235 -0.1669  2.6738  0.1479
11860TIP3    H256996   4.744   3.782   1.364  0.8785 -1.1549 -0.1875
11861TIP3   OH256997   3.333   0.553  15.767 -0.1355  0.3048  0.2313
11861TIP3    H156998   3.428   0.550  15.762 -0.0875  1.4304  0.0801
11861TIP3    H256999   3.303   0.485  15.706  0.5624 -0.0682  0.2938
11862TIP3   OH257000   3.217   5.291  13.644 -0.0666  0.2172 -0.2025
11862TIP3    H157001   3.299   5.330  13.612  0.2945 -1.4321 -1.4524
11862TIP3    H257002   3.211   5.320  13.735  2.2032 -0.0284  0.0866
11863TIP3   OH257003   1.122   3.086  15.922 -0.1675  0.1688 -0.6172
11863TIP3    H157004   1.068   3.141  15.866 -0.8359 -1.3387 -1.5326
11863TIP3    H257005   1.209   3.124  15.918 -1.0498  2.5949  0.7796
11864TIP3   OH257006   1.404   0.215  14.006  0.3420  0.4786  0.4874
11864TIP3    H157007   1.442   0.127  14.002  0.2436  0.4161  0.9500
11864TIP3    H257008   1.475   0.269  14.041 -0.4041  0.1187  2.6861
11865TIP3   OH257009   1.277   0.021   5.175  0.1648  0.1058  0.1472
11865TIP3    H157010   1.255  -0.035   5.249 -2.3375 -1.5931 -1.7053
11865TIP3    H257011   1.215   0.094   5.181 -1.4304 -1.0711 -1.2788
11866TIP3   OH257012   5.950   1.871  15.665  0.3615  0.7138  0.2642
11866TIP3    H157013   6.036   1.913  15.667 -0.0431  1.6162 -0.5920
11866TIP3    H257014   5.910   1.894  15.749  1.3314 -0.5768  1.1166
11867TIP3   OH257015   3.117   6.698   4.308  0.0952  0.5073  0.3928
11867TIP3    H157016   3.050   6.674   4.244 -0.2720 -1.0291  1.3027
11867TIP3    H257017   3.200   6.682   4.265 -0.1231  1.0013 -0.2265
11868TIP3   OH257018   6.564   6.273   4.134  0.1103  0.0302 -0.3886
11868TIP3    H157019   6.489   6.280   4.193 -1.3127 -0.1454 -2.0822
11868TIP3    H257020   6.631   6.228   4.185 -1.0458 -0.0951  1.0809
11869TIP3   OH257021   5.249   3.094  16.108 -0.1199 -0.0627  0.4416
11869TIP3    H157022   5.208   3.008  16.116 -0.8295  0.3923  1.8593
11869TIP3    H257023   5.265   3.123  16.198 -1.5722  2.0641  0.1093
11870TIP3   OH257024   6.194   0.112  11.867  0.3309  0.1860  0.1805
11870TIP3    H157025   6.195   0.112  11.963  0.5499  1.2228  0.1891
11870TIP3    H257026   6.264   0.052  11.843  0.5257  0.2051  0.6755
11871TIP3   OH257027   1.665   0.237   4.326 -0.1296  0.1813  0.3127
11871TIP3    H157028   1.599   0.212   4.261 -0.8449  0.8215  0.7667
11871TIP3    H257029   1.614   0.271   4.399  0.6796 -0.2707  1.1002
11872TIP3   OH257030   0.444   2.809   5.618 -0.5160  0.1287 -0.3281
11872TIP3    H157031   0.514   2.746   5.598  0.3503  1.0024 -0.1095
11872TIP3    H257032   0.401   2.773   5.695 -1.5197 -1.3684 -1.5134
11873TIP3   OH257033   1.894   1.619   1.079 -1.1044 -0.0607 -0.6429
11873TIP3    H157034   1.843   1.575   1.011 -0.0771 -0.6883 -1.0389
11873TIP3    H257035   1.923   1.548   1.137 -1.8563  0.4513  0.3914
11874TIP3   OH257036   2.807   3.497   5.718  0.0855  0.1010  0.0556
11874TIP3    H157037   2.743   3.558   5.681  2.0787  2.4747  0.2743
11874TIP3    H257038   2.834   3.538   5.800 -1.9863 -3.5361  2.8484
11875TIP3   OH257039   4.132   5.288   6.006 -0.4154 -0.7191 -0.3830
11875TIP3    H157040   4.212   5.291   5.953  0.5932 -1.4827  1.0538
11875TIP3    H257041   4.073   5.232   5.955 -0.3706  0.5002 -1.8541
11876TIP3   OH257042   4.445   5.164  11.579  0.3322  0.6721 -0.2309
11876TIP3    H157043   4.375   5.103  11.552  1.3482 -1.7319  2.1798
11876TIP3    H257044   4.404   5.218  11.646  0.9638 -1.6604  2.2118
11877TIP3   OH257045   3.284   5.145  16.111  0.4501 -0.2717  0.1351
11877TIP3    H157046   3.253   5.076  16.169 -2.5193 -0.6560 -1.6755
11877TIP3    H257047   3.349   5.102  16.055  1.6772 -0.4543  1.6301
11878TIP3   OH257048   6.698   0.346   4.539  0.6733 -0.3196  0.1166
11878TIP3    H157049   6.694   0.418   4.603  0.3052  0.3545 -0.6436
11878TIP3    H257050   6.780   0.360   4.493  1.5428 -1.5199  1.2310
11879TIP3   OH257051   6.245   0.975   4.726  0.1328 -0.4181 -0.2076
11879TIP3    H157052   6.294   1.058   4.725  0.4203 -0.5811  0.1269
11879TIP3    H257053   6.169   0.992   4.671  0.2743  0.0194 -0.2760
11880TIP3   OH257054   3.681   3.368  15.319  0.6429  0.2220  0.1412
11880TIP3    H157055   3.635   3.375  15.236  0.3481  2.0062  0.4179
11880TIP3    H257056   3.613   3.347  15.383  1.0748 -2.7030 -0.2123
11881TIP3   OH257057   3.294   0.274   1.622 -0.0431  0.3051  0.2849
11881TIP3    H157058   3.244   0.192   1.621  0.3674 -0.1167 -4.1055
11881TIP3    H257059   3.230   0.341   1.601  0.2692  0.5632  0.1534
11882TIP3   OH257060   5.857   1.578   5.054  0.5694  0.3129  0.3059
11882TIP3    H157061   5.932   1.604   5.107  0.4776 -1.0571  1.1529
11882TIP3    H257062   5.889   1.585   4.963  2.0668 -1.1599  0.6652
11883TIP3   OH257063   5.737   6.631   0.466 -0.1838 -0.4409 -0.8119
11883TIP3    H157064   5.713   6.546   0.502  0.0556  0.1832  0.9299
11883TIP3    H257065   5.817   6.614   0.416 -0.2105 -1.2687 -0.5890
11884TIP3   OH257066   3.841   3.187  13.865  0.5894  0.4718  0.4146
11884TIP3    H157067   3.909   3.169  13.801  0.6781  0.8385  0.4094
11884TIP3    H257068   3.759   3.178  13.816  0.6129 -0.3028  0.4991
11885TIP3   OH257069   4.515   5.458  12.683  0.1914  0.3653 -0.5064
11885TIP3    H157070   4.527   5.373  12.725 -0.1836 -0.0351 -1.2035
11885TIP3    H257071   4.473   5.512  12.750  0.4866  0.0303 -0.0426
11886TIP3   OH257072   2.589   2.714  17.209 -0.1727  0.3198  0.0921
11886TIP3    H157073   2.616   2.706  17.117 -0.6283  1.1911 -0.1252
11886TIP3    H257074   2.551   2.802  17.216  0.2922  0.4476  1.2337
11887TIP3   OH257075   4.916   6.140   3.139 -0.1119  0.1445 -0.0283
11887TIP3    H157076   4.946   6.192   3.213  2.1553 -0.2687 -0.5853
11887TIP3    H257077   4.840   6.188   3.105 -0.0546  1.3162  1.4115
11888TIP3   OH257078   1.649   1.599  16.272  0.0553 -0.6070 -0.3504
11888TIP3    H157079   1.682   1.680  16.308  0.6578 -1.4679  1.0994
11888TIP3    H257080   1.726   1.555  16.235 -0.1739 -0.7772 -0.6345
11889TIP3   OH257081   6.389   2.590   0.500  0.0246 -0.6033 -0.7016
11889TIP3    H157082   6.313   2.551   0.542 -0.0734 -1.4236 -1.5927
11889TIP3    H257083   6.362   2.679   0.478  0.1744 -0.0555  1.1606
11890TIP3   OH257084   1.524   1.385  14.884  0.3161 -0.4853  0.0653
11890TIP3    H157085   1.546   1.343  14.967  2.5753 -0.5432 -0.4907
11890TIP3    H257086   1.598   1.443  14.866 -0.9296  0.8320 -1.0819
11891TIP3   OH257087   3.166   4.114   0.270  0.2599  0.4868 -0.0472
11891TIP3    H157088   3.216   4.196   0.275  1.0646  0.0189 -0.2822
11891TIP3    H257089   3.096   4.125   0.335 -0.1789  1.7130 -0.6919
11892TIP3   OH257090   1.029   3.014  17.274 -0.2401  0.2572  0.5864
11892TIP3    H157091   1.064   3.099  17.302 -0.9601  1.0658 -0.8668
11892TIP3    H257092   1.107   2.962  17.255  0.2010  0.8304  0.7924
11893TIP3   OH257093   1.233   5.482   4.458  0.3266  0.1299  0.1477
11893TIP3    H157094   1.181   5.562   4.457  0.2240  0.0892  1.1776
11893TIP3    H257095   1.187   5.423   4.398 -0.1440  0.5052  0.1313
11894TIP3   OH257096   4.067   0.832   5.867  0.1388  0.1309  0.2642
11894TIP3    H157097   4.161   0.846   5.855  0.1991 -0.0522  0.5128
11894TIP3    H257098   4.059   0.737   5.881 -0.2953 -0.1784 -1.7901
11895TIP3   OH257099   5.831   3.856  15.283  0.0685  0.9552 -0.2387
11895TIP3    H157100   5.830   3.946  15.317 -0.8618  0.0677  2.3278
11895TIP3    H257101   5.909   3.853  15.227  1.8663  2.5867  1.9710
11896TIP3   OH257102   2.211   5.989  17.003 -0.3642 -0.0388  0.2892
11896TIP3    H157103   2.295   5.942  17.000 -0.7461 -0.7079  0.0016
11896TIP3    H257104   2.231   6.075  16.966  0.3509  0.0543  0.8548
11897TIP3   OH257105   5.799   2.443  15.958 -0.0641 -0.4306 -0.5944
11897TIP3    H157106   5.825   2.534  15.975 -1.4719 -0.1744  0.3457
11897TIP3    H257107   5.880   2.393  15.968  0.9210  0.7931 -1.9633
11898TIP3   OH257108   0.475   4.942  15.037  0.1670 -0.0335 -0.1018
11898TIP3    H157109   0.462   4.898  15.121  0.0498  0.1139 -0.0402
11898TIP3    H257110   0.401   5.003  15.031  0.1874 -0.0303 -0.3021
11899TIP3   OH257111   5.681   3.266   4.817 -0.4081  0.1193  0.1210
11899TIP3    H157112   5.667   3.321   4.739  0.2928  0.5644  0.2991
11899TIP3    H257113   5.676   3.327   4.890 -0.1817 -0.1528  0.3622
11900TIP3   OH257114   6.584   3.301   5.884 -0.0099 -0.0606 -0.2213
11900TIP3    H157115   6.496   3.283   5.851  0.3332 -1.7805 -0.2603
11900TIP3    H257116   6.583   3.265   5.973  0.4941  0.3919 -0.0319
11901TIP3   OH257117   0.617   3.092   1.127 -0.0161 -0.2342 -0.2301
11901TIP3    H157118   0.618   3.178   1.168 -1.5617  1.1341 -2.8113
11901TIP3    H257119   0.528   3.059   1.142 -0.2849 -0.1553 -1.5144
11902TIP3   OH257120   1.215   0.610   3.308  1.1473  0.5400 -0.1531
11902TIP3    H157121   1.166   0.549   3.362  0.6922  0.8789 -0.1705
11902TIP3    H257122   1.148   0.651   3.253  1.5186  0.6636 -0.5144
11903TIP3   OH257123   2.471   0.716  14.851  0.1300 -0.1352 -0.3038
11903TIP3    H157124   2.381   0.700  14.826  0.4053 -0.3047 -1.2109
11903TIP3    H257125   2.489   0.651  14.919 -0.0088 -1.0287 -1.1085
11904TIP3   OH257126   3.789   4.712  16.957  0.0246 -0.2973 -0.0713
11904TIP3    H157127   3.701   4.741  16.979  0.7466  2.1318 -0.0626
11904TIP3    H257128   3.793   4.715  16.861 -0.4728 -2.4159 -0.2074
11905TIP3   OH257129   1.346   4.117  14.356  0.6938  0.0840  1.0085
11905TIP3    H157130   1.373   4.083  14.270  0.7571  1.1285  0.5974
11905TIP3    H257131   1.420   4.168  14.386 -0.0536  1.3773  0.7517
11906TIP3   OH257132   4.232   3.864  17.171  0.7111 -0.7550 -0.2715
11906TIP3    H157133   4.325   3.841  17.167  0.3980 -2.4022  0.7748
11906TIP3    H257134   4.193   3.816  17.099  0.4047 -1.6515  0.4722
11907TIP3   OH257135   0.581   5.728  15.175 -0.4374  0.4108 -0.1267
11907TIP3    H157136   0.621   5.770  15.251  0.5318 -1.0020  0.1802
11907TIP3    H257137   0.571   5.798  15.111  2.4402  0.8693 -0.1842
11908TIP3   OH257138   4.329   5.824  17.295 -0.3793  0.2120 -0.3736
11908TIP3    H157139   4.408   5.774  17.271 -0.4293 -0.5583  1.0024
11908TIP3    H257140   4.356   5.875  17.371 -1.3902 -0.5894  0.5417
11909TIP3   OH257141   4.192   5.056  15.366 -0.5782 -0.1613  0.2342
11909TIP3    H157142   4.230   5.126  15.313  0.1255 -0.4024  0.4204
11909TIP3    H257143   4.198   4.978  15.311 -1.7843 -0.0032 -0.1583
11910TIP3   OH257144   4.554   6.095   2.505  0.1164 -0.1068  0.0858
11910TIP3    H157145   4.505   6.078   2.425  0.1814 -0.6908  0.1666
11910TIP3    H257146   4.555   6.190   2.513 -1.8202 -0.0985  0.5974
11911TIP3   OH257147   4.057   2.321  16.791  0.0016  0.4615 -0.1626
11911TIP3    H157148   4.003   2.363  16.724  0.4906 -1.8054 -2.1101
11911TIP3    H257149   3.998   2.261  16.836  0.5970 -1.4463 -1.7759
11912TIP3   OH257150   0.270   0.451   2.721  0.5979 -0.0643  0.2745
11912TIP3    H157151   0.235   0.466   2.808  0.2301  1.1053 -0.0598
11912TIP3    H257152   0.200   0.404   2.675  0.8898 -0.9068  0.6643
11913TIP3   OH257153   6.613   1.270   6.120 -0.0956  0.3197  0.1134
11913TIP3    H157154   6.591   1.250   6.029 -1.2884  1.5738  0.0951
11913TIP3    H257155   6.687   1.213   6.139 -0.6420 -0.9236 -1.2237
11914TIP3   OH257156   4.631   0.521  16.533  0.4799 -0.3462  0.6195
11914TIP3    H157157   4.545   0.479  16.533  0.9612 -1.3709  0.7271
11914TIP3    H257158   4.649   0.538  16.625  0.4557 -0.2717  0.6106
11915TIP3   OH257159   4.827   6.450   5.209  0.0967  0.3274  0.4884
11915TIP3    H157160   4.812   6.366   5.165  0.5780 -1.1156  2.8663
11915TIP3    H257161   4.740   6.475   5.242  0.3424 -0.6165  1.9581
11916TIP3   OH257162   3.482   4.338  14.999 -0.0869  0.2344 -0.0840
11916TIP3    H157163   3.535   4.260  15.016 -0.1957  0.0822 -0.4368
11916TIP3    H257164   3.545   4.410  14.996  0.1854 -0.0433 -1.1900
11917TIP3   OH257165   0.905   0.141   3.587  0.1001 -0.0589 -0.4163
11917TIP3    H157166   0.946   0.157   3.671  0.6533  0.6573 -0.8128
11917TIP3    H257167   0.836   0.207   3.581  0.0946 -0.0753 -0.5422
11918TIP3   OH257168   0.237   4.627  10.671 -0.1364 -0.3957 -0.0606
11918TIP3    H157169   0.319   4.590  10.703  0.2313 -0.2378 -0.7828
11918TIP3    H257170   0.254   4.722  10.667 -1.5417  0.1018  3.1744
11919TIP3   OH257171   1.795   0.268  15.672 -0.5253 -0.1864 -0.2299
11919TIP3    H157172   1.834   0.247  15.588 -0.5565  0.3543 -0.3831
11919TIP3    H257173   1.869   0.290  15.729 -0.4788 -0.8343 -0.0226
11920TIP3   OH257174   4.237   5.012  11.471  0.1010 -0.1678  0.2958
11920TIP3    H157175   4.181   5.060  11.410  0.3059  0.1745  0.3707
11920TIP3    H257176   4.199   5.029  11.557  1.2773  1.4893  0.5457
11921TIP3   OH257177   3.825   3.428  16.835  0.3422  0.8562 -0.5067
11921TIP3    H157178   3.877   3.496  16.793  1.7965  0.6111  0.8013
11921TIP3    H257179   3.854   3.347  16.793 -0.0083  0.8531 -0.7454
11922TIP3   OH257180   3.145   4.402   4.926 -0.0469 -0.0548  0.4270
11922TIP3    H157181   3.231   4.421   4.963  0.2168  0.5991 -0.4781
11922TIP3    H257182   3.163   4.374   4.836 -0.7378 -0.5226  0.4232
11923TIP3   OH257183   5.838   1.614  15.622  0.1409 -0.2341  0.3901
11923TIP3    H157184   5.814   1.664  15.544 -1.2599 -1.2777  0.1220
11923TIP3    H257185   5.909   1.665  15.662 -0.7637  1.5963 -0.2417
11924TIP3   OH257186   1.525   4.467  12.645 -0.3038  0.3949  0.3914
11924TIP3    H157187   1.567   4.544  12.682  0.3094  1.4562 -2.2966
11924TIP3    H257188   1.542   4.473  12.551 -4.0185 -0.6240 -0.5127
11925TIP3   OH257189   0.334   1.243  11.313  0.5195  0.2619 -0.2161
11925TIP3    H157190   0.248   1.256  11.354  0.2614 -1.2170 -0.2027
11925TIP3    H257191   0.397   1.278  11.376  0.0188 -0.3426  0.6535
11926TIP3   OH257192   3.806   6.083  13.776  0.0597 -0.2233 -0.5041
11926TIP3    H157193   3.846   6.118  13.696  2.4851  1.5820  1.3591
11926TIP3    H257194   3.865   6.012  13.803  0.2171  0.2959  0.5510
11927TIP3   OH257195   2.248   3.341   2.703 -0.1098 -0.4058  0.6016
11927TIP3    H157196   2.218   3.336   2.612 -1.4532 -0.8267  1.0414
11927TIP3    H257197   2.184   3.289   2.752 -0.6132  1.4638  2.0676
11928TIP3   OH257198   3.497   6.591   1.903  0.0544 -0.1051 -0.1178
11928TIP3    H157199   3.505   6.531   1.829 -1.3817 -1.3052  0.6467
11928TIP3    H257200   3.405   6.585   1.929  0.0577  1.8524  0.4851
11929TIP3   OH257201   3.633   0.095  11.456 -0.8901 -0.3316 -0.9166
11929TIP3    H157202   3.671   0.078  11.370 -1.5920 -1.1078 -1.0845
11929TIP3    H257203   3.611   0.188  11.454  3.8093  1.0543  0.3308
11930TIP3   OH257204   6.065   1.627  13.922 -0.0009 -0.1173 -0.0011
11930TIP3    H157205   6.156   1.614  13.949  0.2668  0.8678 -0.4088
11930TIP3    H257206   6.014   1.577  13.985  0.6057  1.9505  2.2619
11931TIP3   OH257207   2.295   1.075   2.445 -0.4932  0.1849  0.1959
11931TIP3    H157208   2.313   1.076   2.351 -3.1948  3.3938 -0.4843
11931TIP3    H257209   2.212   1.028   2.453 -0.8872  0.9474  0.7649
11932TIP3   OH257210   1.739   2.246   5.712  0.4459 -0.5893  0.1303
11932TIP3    H157211   1.762   2.260   5.804 -0.4667  1.8693  0.0698
11932TIP3    H257212   1.697   2.328   5.686 -2.0574 -2.2991 -1.6566
11933TIP3   OH257213   6.062   2.259   5.724  0.4680  0.8411 -0.2589
11933TIP3    H157214   6.071   2.354   5.737  1.1013  0.8564 -0.7139
11933TIP3    H257215   5.972   2.247   5.694  0.7582  1.4704 -1.4766
11934TIP3   OH257216   5.672   2.055  11.772 -0.0807 -0.0007  0.1614
11934TIP3    H157217   5.616   2.008  11.711  0.0414  1.5631 -1.2350
11934TIP3    H257218   5.653   2.147  11.756  2.0647  0.5395  0.4367
11935TIP3   OH257219   0.576   2.081  16.833 -0.2645  0.5298 -0.1526
11935TIP3    H157220   0.662   2.082  16.874 -1.5237  0.7410  2.7232
11935TIP3    H257221   0.581   2.147  16.764  1.8388  0.5319 -0.0425
11936TIP3   OH257222   0.957   5.066  16.667  0.4046 -0.1101 -0.0017
11936TIP3    H157223   0.937   5.063  16.573 -0.5498  0.7787  0.1556
11936TIP3    H257224   0.911   5.144  16.699 -0.5233 -1.2105  1.4917
11937TIP3   OH257225   6.127   3.262   5.567  0.1391 -0.3013  0.5928
11937TIP3    H157226   6.037   3.233   5.584  0.2703 -2.0135 -1.2848
11937TIP3    H257227   6.148   3.225   5.482  3.0399 -0.9408  1.4876
11938TIP3   OH257228   3.334   2.921   0.229  0.1352 -0.0706 -0.2845
11938TIP3    H157229   3.351   2.969   0.309 -0.5092  0.4671 -0.4573
11938TIP3    H257230   3.245   2.946   0.204 -1.2215 -3.1255  0.8770
11939TIP3   OH257231   6.046   1.446  12.768 -0.4705 -0.1984  0.1851
11939TIP3    H157232   6.024   1.451  12.675 -0.8565 -0.4759  0.2577
11939TIP3    H257233   5.978   1.390  12.806  0.6938 -1.5957  0.3040
11940TIP3   OH257234   3.779   1.507   2.791 -0.2892  0.0721  0.1247
11940TIP3    H157235   3.717   1.569   2.830  1.1129  0.9883  1.0634
11940TIP3    H257236   3.733   1.467   2.718 -1.4489  1.8572 -0.1764
11941TIP3   OH257237   5.699   1.919  13.183  0.8157 -0.4467 -0.1172
11941TIP3    H157238   5.680   2.012  13.168  0.5762 -0.8227 -2.5515
11941TIP3    H257239   5.673   1.876  13.102  2.2030 -2.4624  0.4335
11942TIP3   OH257240   0.525   2.032  11.268 -0.0449  0.4762  0.1513
11942TIP3    H157241   0.479   1.993  11.193  0.8304 -1.1371  0.4132
11942TIP3    H257242   0.558   2.116  11.235 -0.9849  0.4901 -0.7978
11943TIP3   OH257243   1.361   2.617  15.546  0.3490 -0.5391 -0.6753
11943TIP3    H157244   1.367   2.531  15.590  1.2350  0.3308  0.9964
11943TIP3    H257245   1.284   2.609  15.490 -0.8612 -1.7641  1.0307
11944TIP3   OH257246   1.752   3.979  11.195  0.8332 -0.9383 -0.3196
11944TIP3    H157247   1.742   3.932  11.277  1.1290 -0.8682 -0.2432
11944TIP3    H257248   1.748   4.071  11.219 -2.1713 -0.8592 -0.7442
11945TIP3   OH257249   1.652   0.168  15.918  0.2767  0.3143  0.0348
11945TIP3    H157250   1.615   0.195  16.002  1.7041  0.0228  0.7809
11945TIP3    H257251   1.687   0.249  15.880 -0.2264  0.4181 -0.2161
11946TIP3   OH257252   4.838   5.679  15.524  0.3054 -0.0879 -0.9074
11946TIP3    H157253   4.927   5.648  15.544  0.0727 -0.7490 -0.8784
11946TIP3    H257254   4.838   5.770  15.553  0.0646 -0.9031  1.8942
11947TIP3   OH257255   5.645   5.401   4.946  0.4338  0.2003  0.0213
11947TIP3    H157256   5.593   5.326   4.974 -0.0089 -0.4161 -2.2628
11947TIP3    H257257   5.734   5.382   4.976  0.2472 -1.0572 -0.1958
11948TIP3   OH257258   3.686   3.940  15.001  0.1620 -0.3934  0.0226
11948TIP3    H157259   3.721   3.851  15.007  1.4111  0.1124  0.7092
11948TIP3    H257260   3.759   3.992  14.965  0.8631  1.0502  3.1843
11949TIP3   OH257261   1.821   1.344   5.551 -0.5268  0.3266  0.1572
11949TIP3    H157262   1.885   1.341   5.480 -0.5743 -0.4229  0.1359
11949TIP3    H257263   1.736   1.335   5.507 -0.5364 -0.5112  0.3285
11950TIP3   OH257264   1.853   3.679   2.782 -0.5157 -0.0133  0.1283
11950TIP3    H157265   1.913   3.728   2.838 -1.4420  2.0084 -0.5319
11950TIP3    H257266   1.890   3.688   2.694 -1.3648  0.6863 -0.1865
11951TIP3   OH257267   6.566   5.932   0.512 -0.3177  0.0129 -0.2935
11951TIP3    H157268   6.490   5.877   0.533 -0.3418 -0.0988 -0.6695
11951TIP3    H257269   6.562   5.943   0.417 -0.8496  1.4646 -0.1173
11952TIP3   OH257270   0.259   0.533  12.972 -0.1955 -0.5187  0.0419
11952TIP3    H157271   0.202   0.575  13.037  1.5235 -1.6818  2.4491
11952TIP3    H257272   0.223   0.446  12.961 -0.9815 -0.0412 -1.2653
11953TIP3   OH257273   1.391   4.535  13.206 -0.9544 -0.7294  0.4145
11953TIP3    H157274   1.350   4.449  13.200  0.1961 -1.2168 -1.1737
11953TIP3    H257275   1.414   4.557  13.116  0.9045  0.1641  1.0406
11954TIP3   OH257276   4.913   4.328  16.300  0.1315  0.0799  0.1880
11954TIP3    H157277   4.920   4.347  16.394  2.3756  2.1073 -0.2960
11954TIP3    H257278   4.863   4.402  16.265 -1.0954 -0.9011 -0.2006
11955TIP3   OH257279   5.930   0.686  16.970 -0.4466 -0.4263  0.2840
11955TIP3    H157280   5.993   0.625  16.931  0.3216 -1.4191  2.8142
11955TIP3    H257281   5.980   0.730  17.040 -1.5692  1.5973 -0.1081
11956TIP3   OH257282   5.318   4.350   3.870  0.2813  0.0958  0.6826
11956TIP3    H157283   5.268   4.306   3.939 -0.3924 -0.6248 -0.2442
11956TIP3    H257284   5.256   4.411   3.831  0.8417  0.9529  1.1044
11957TIP3   OH257285   4.315   5.950  13.456  0.1499 -0.3320  0.1439
11957TIP3    H157286   4.244   5.910  13.406 -0.9776  0.2507  1.2305
11957TIP3    H257287   4.310   5.910  13.542  0.9850 -0.0884  0.3185
11958TIP3   OH257288   5.908   0.401  15.645  0.1896 -0.5802 -0.6346
11958TIP3    H157289   5.972   0.426  15.711  0.0177 -0.3018 -0.5708
11958TIP3    H257290   5.944   0.321  15.606 -0.5567 -1.7876  1.0066
11959TIP3   OH257291   3.432   0.290   5.679  0.1942 -0.3436 -0.1396
11959TIP3    H157292   3.373   0.299   5.604 -2.2380 -1.3608  1.5127
11959TIP3    H257293   3.518   0.271   5.641 -0.4595  1.3187 -2.6822
11960TIP3   OH257294   4.142   0.425   0.368  0.1436  0.3504 -0.0128
11960TIP3    H157295   4.204   0.439   0.296  0.4978 -1.4819 -0.1360
11960TIP3    H257296   4.063   0.391   0.325  0.3715 -0.7878  0.4395
11961TIP3   OH257297   6.551   2.575   3.527 -0.1335  0.0411  0.2304
11961TIP3    H157298   6.529   2.524   3.449 -0.1836 -0.7264  0.7351
11961TIP3    H257299   6.466   2.592   3.569 -0.0604  0.0124  0.3894
11962TIP3   OH257300   0.031   3.829   1.042 -0.2621 -0.1375 -0.0070
11962TIP3    H157301   0.108   3.881   1.022 -0.2307  0.0847  0.6659
11962TIP3    H257302   0.044   3.800   1.133 -1.6914  1.2111  0.6672
11963TIP3   OH257303   2.554   3.443  16.862 -0.2746  0.8148 -0.1148
11963TIP3    H157304   2.519   3.531  16.847 -2.6299  0.0407  0.4148
11963TIP3    H257305   2.487   3.399  16.914 -0.1039 -1.9215 -1.9928
11964TIP3   OH257306   4.309   6.126   4.075 -0.3478 -0.0526  0.1858
11964TIP3    H157307   4.349   6.043   4.102 -0.0755  0.1075  0.2690
11964TIP3    H257308   4.300   6.118   3.980  0.6393  0.2419  0.0547
11965TIP3   OH257309   6.467   2.681  13.028 -0.4476  0.2377  0.5283
11965TIP3    H157310   6.525   2.661  12.955  0.1936  1.1513  0.7730
11965TIP3    H257311   6.423   2.598  13.047  0.8608 -0.5116  0.4174
11966TIP3   OH257312   5.433   2.657  17.094 -0.3996  1.0738 -0.0587
11966TIP3    H157313   5.458   2.697  17.177  0.8765 -0.1800  0.2176
11966TIP3    H257314   5.342   2.630  17.106  0.3049 -0.7651  1.6752
11967TIP3   OH257315   2.836   3.141  13.795 -0.4755  0.7995 -0.5294
11967TIP3    H157316   2.867   3.169  13.709  0.3306 -0.2374 -0.5987
11967TIP3    H257317   2.804   3.052  13.782 -1.2300  0.9695  0.0610
11968TIP3   OH257318   4.339   4.211   5.693 -0.0833  0.2672 -0.4857
11968TIP3    H157319   4.405   4.142   5.703 -1.5550 -1.7048 -3.0834
11968TIP3    H257320   4.383   4.291   5.723  1.8895 -1.6504  2.1415
11969TIP3   OH257321   1.045   6.387   2.909  0.2120 -0.2295 -0.2642
11969TIP3    H157322   1.016   6.317   2.850  0.1614 -0.4776  0.0511
11969TIP3    H257323   0.965   6.428   2.940  0.2511  0.2313 -0.7541
11970TIP3   OH257324   3.325   6.647  16.556 -0.7168  0.0945 -0.4116
11970TIP3    H157325   3.366   6.654  16.470 -1.0079 -1.6044 -0.7252
11970TIP3    H257326   3.314   6.553  16.570 -2.2558  0.4032  0.7347
11971TIP3   OH257327   0.836   1.291   3.473 -0.3175  0.9073 -0.5243
11971TIP3    H157328   0.788   1.360   3.517 -1.7782 -0.5140  0.2017
11971TIP3    H257329   0.775   1.256   3.408 -0.2573 -0.8233  0.2925
11972TIP3   OH257330   2.460   5.931  13.425 -0.7632 -0.4962 -0.8644
11972TIP3    H157331   2.383   5.914  13.479 -1.0093 -0.6533 -1.2656
11972TIP3    H257332   2.426   5.948  13.338 -0.2911 -1.4244 -1.2398
11973TIP3   OH257333   2.846   6.512  17.045  0.0193 -0.7833  0.3889
11973TIP3    H157334   2.776   6.577  17.041  0.4786 -0.0814  2.2415
11973TIP3    H257335   2.803   6.432  17.075 -0.4009 -1.1150 -1.0406
11974TIP3   OH257336   4.355   5.902  15.083 -0.2491 -0.5283 -0.2953
11974TIP3    H157337   4.378   5.930  14.994 -2.7662  0.6411 -0.6733
11974TIP3    H257338   4.278   5.846  15.071 -0.2009 -0.9285  1.1157
11975TIP3   OH257339   3.711   5.943  14.462 -0.2290  0.2055  0.0289
11975TIP3    H157340   3.653   5.877  14.501 -0.3052  1.2740  1.8292
11975TIP3    H257341   3.799   5.908  14.476 -0.2976  0.1364  0.2910
11976TIP3   OH257342   0.222   2.200   6.041  0.3693 -0.2007 -0.2425
11976TIP3    H157343   0.225   2.104   6.043  1.6321 -0.1935 -1.0716
11976TIP3    H257344   0.229   2.226   6.133 -2.2104 -0.9128  0.2436
11977TIP3   OH257345   3.446   6.396   5.884  0.2770 -0.7382 -0.0488
11977TIP3    H157346   3.384   6.396   5.958  0.1525  1.6007 -0.0676
11977TIP3    H257347   3.412   6.464   5.826  3.1739  1.1217  0.2555
11978TIP3   OH257348   0.196   0.919   6.016 -0.2444 -0.5457 -0.1797
11978TIP3    H157349   0.162   0.990   6.071 -0.6259  0.0272 -1.1241
11978TIP3    H257350   0.193   0.842   6.072 -0.9100 -0.0377  0.5098
11979TIP3   OH257351   6.502   0.288  11.142 -0.0200  0.0961  0.5622
11979TIP3    H157352   6.517   0.205  11.186  2.1803 -1.4702 -2.7184
11979TIP3    H257353   6.416   0.280  11.101 -0.3521 -0.0215  1.2747
11980TIP3   OH257354   5.180   4.928  11.773  0.1957  0.2882  0.5078
11980TIP3    H157355   5.235   4.949  11.849 -1.8939  1.2956  1.8442
11980TIP3    H257356   5.180   4.832  11.769  1.1166  0.2468  1.1723
11981TIP3   OH257357   4.911   1.609   2.758 -0.2523  0.1543  0.5628
11981TIP3    H157358   4.950   1.695   2.742 -1.0400  0.2464 -1.1725
11981TIP3    H257359   4.829   1.627   2.802  0.9079  0.0428  2.9575
11982TIP3   OH257360   4.348   4.740   0.148  0.5267  0.2000 -0.1678
11982TIP3    H157361   4.302   4.657   0.158  0.1326  0.1267 -2.1304
11982TIP3    H257362   4.347   4.756   0.053  0.6035  2.4386  0.1669
11983TIP3   OH257363   6.767   5.128   4.968 -0.5325 -0.1707 -0.2636
11983TIP3    H157364   6.770   5.215   4.929 -0.5617 -0.0013  0.1119
11983TIP3    H257365   6.790   5.141   5.060 -0.3269 -0.5875 -0.2505
11984TIP3   OH257366   0.273   0.864   0.582 -0.0760 -0.1627  0.2131
11984TIP3    H157367   0.297   0.916   0.659 -2.2752  1.3763 -0.0464
11984TIP3    H257368   0.185   0.832   0.602  0.0368 -1.2685 -0.9345
11985TIP3   OH257369   6.222   5.668  12.307 -0.3837 -0.6164 -0.3747
11985TIP3    H157370   6.239   5.698  12.396 -1.9814  1.0352 -0.5619
11985TIP3    H257371   6.239   5.745  12.252 -0.4013 -1.3146 -1.3864
11986TIP3   OH257372   4.861   1.814  17.267  0.2699 -0.1467 -0.3505
11986TIP3    H157373   4.955   1.820  17.283  0.5496  0.0530 -1.9106
11986TIP3    H257374   4.843   1.882  17.203 -1.1021  0.3207  0.4742
11987TIP3   OH257375   3.807   6.169  12.176  0.2570 -0.2041 -0.0861
11987TIP3    H157376   3.716   6.189  12.156  0.6732  0.9799 -0.9277
11987TIP3    H257377   3.822   6.208  12.262 -0.1111 -0.6721  0.1905
11988TIP3   OH257378   0.897   0.823  11.002  0.1882  0.3759  0.2368
11988TIP3    H157379   0.964   0.890  10.994  0.0046  0.7287  1.4441
11988TIP3    H257380   0.814   0.871  11.002  0.0706  0.2234  1.5392
11989TIP3   OH257381   2.863   2.415   5.182  0.3957  0.0563  0.3894
11989TIP3    H157382   2.798   2.346   5.193 -0.7079  0.9751 -0.1997
11989TIP3    H257383   2.832   2.466   5.107  0.7629  1.6650  1.2953
11990TIP3   OH257384   1.906   0.732   3.004 -0.0906 -0.2736  0.0457
11990TIP3    H157385   2.000   0.715   2.995 -0.1788 -0.4625 -0.5489
11990TIP3    H257386   1.870   0.649   3.035  0.3187  0.5794  3.1094
11991TIP3   OH257387   1.109   6.353   5.580  0.3813 -0.3186  0.3265
11991TIP3    H157388   1.032   6.310   5.616  3.6076 -3.9720  3.8275
11991TIP3    H257389   1.127   6.308   5.497 -0.4755 -0.3391  0.1519
11992TIP3   OH257390   4.708   2.612  14.355 -0.1140 -0.0334  0.6220
11992TIP3    H157391   4.647   2.554  14.399 -0.9095  0.7196  0.5445
11992TIP3    H257392   4.677   2.700  14.376 -1.4732  0.3944 -2.6214
11993TIP3   OH257393   4.988   5.264   2.313 -0.1059  1.0358 -0.7682
11993TIP3    H157394   4.982   5.184   2.261 -2.4945  0.7175 -0.1306
11993TIP3    H257395   5.062   5.250   2.372  1.6434  0.7537 -2.9287
11994TIP3   OH257396   1.823   6.726  16.250  0.2795 -0.2722  0.3392
11994TIP3    H157397   1.857   6.747  16.163  1.8037 -4.2417 -0.2259
11994TIP3    H257398   1.887   6.765  16.310  1.9696 -1.5790 -0.5405
11995TIP3   OH257399   5.711   1.191   0.625  0.1044 -0.4189 -0.5534
11995TIP3    H157400   5.775   1.128   0.592 -1.7503 -1.5712 -2.1515
11995TIP3    H257401   5.633   1.139   0.642 -0.4712  0.9666  1.2530
11996TIP3   OH257402   1.897   5.448  15.824 -0.4903  0.2054 -0.0400
11996TIP3    H157403   1.810   5.444  15.864 -0.4073 -1.4794  0.0520
11996TIP3    H257404   1.956   5.417  15.893 -0.0796 -0.6142 -0.7341
11997TIP3   OH257405   3.312   2.041   4.086  0.0021 -0.8443  0.6515
11997TIP3    H157406   3.358   2.050   4.003 -0.2668 -1.9052  0.3667
11997TIP3    H257407   3.379   2.051   4.153 -0.2115  3.0783  0.4889
11998TIP3   OH257408   3.146   2.101  12.516  1.0161 -0.0231  0.4559
11998TIP3    H157409   3.120   2.178  12.466  1.9482 -0.5484 -0.8851
11998TIP3    H257410   3.063   2.064  12.547  0.5864  2.0194  1.9734
11999TIP3   OH257411   0.500   4.266   0.021  0.0461 -0.3174 -0.4341
11999TIP3    H157412   0.474   4.190  -0.031 -2.6189 -0.1816  0.5179
11999TIP3    H257413   0.526   4.230   0.106 -0.5205 -0.2435 -0.2226
12000TIP3   OH257414   4.089   5.673   0.795  0.8248  0.0977  0.1094
12000TIP3    H157415   4.164   5.713   0.839  1.6427  0.0147 -1.1518
12000TIP3    H257416   4.016   5.733   0.810  1.4671  0.8557  0.2404
12001TIP3   OH257417   4.899   1.624   1.780 -0.4884 -0.0695 -0.1912
12001TIP3    H157418   4.917   1.580   1.863  0.3716 -0.5519 -0.6071
12001TIP3    H257419   4.812   1.593   1.754  0.5324 -2.4972 -1.0216
12002TIP3   OH257420   0.091   1.665   3.523 -0.2839 -0.1243  0.9091
12002TIP3    H157421   0.084   1.734   3.457 -0.6122 -1.5907 -0.6610
12002TIP3    H257422   0.180   1.672   3.556  0.2065  0.0385 -0.4034
12003TIP3   OH257423   6.049   2.932   2.918  0.2645  0.1521 -0.1249
12003TIP3    H157424   6.128   2.973   2.882 -0.6671  1.0471 -1.1925
12003TIP3    H257425   6.023   2.869   2.852  1.2239 -1.6797  1.1491
12004TIP3   OH257426   1.468   3.823   0.694  0.0672  0.5670 -0.0863
12004TIP3    H157427   1.407   3.765   0.741 -0.4591  1.2580  0.0961
12004TIP3    H257428   1.489   3.775   0.614 -1.6663  0.8229 -0.7445
12005TIP3   OH257429   5.714   2.419   5.867  0.4532  0.1126 -0.1224
12005TIP3    H157430   5.628   2.416   5.826 -0.1498 -0.4533  1.1418
12005TIP3    H257431   5.756   2.496   5.829 -0.9908  0.9776 -0.0247
12006TIP3   OH257432   1.532   6.727   5.432 -0.2696 -0.2031 -1.0796
12006TIP3    H157433   1.460   6.729   5.495  2.4903  0.1680  2.3584
12006TIP3    H257434   1.547   6.634   5.416 -0.7363 -0.3163 -0.8966
12007TIP3   OH257435   1.678   2.396  10.490 -0.4993  0.4645  0.0876
12007TIP3    H157436   1.616   2.335  10.452  0.0455  0.4974 -0.8964
12007TIP3    H257437   1.624   2.463  10.532 -1.1106  0.0355 -0.0124
12008TIP3   OH257438   5.733   4.159  13.897 -0.1581 -0.2161  0.0845
12008TIP3    H157439   5.687   4.092  13.946 -1.0672  0.3046 -0.0451
12008TIP3    H257440   5.759   4.115  13.815 -1.7545 -0.1036 -0.5023
12009TIP3   OH257441   0.618   0.710  14.656  0.1568 -0.0322  0.2906
12009TIP3    H157442   0.628   0.618  14.679 -0.6343  0.4026  2.7565
12009TIP3    H257443   0.562   0.710  14.579  0.3231 -1.6121  0.1355
12010TIP3   OH257444   3.534   2.010  14.605 -0.1849 -0.1471 -0.3375
12010TIP3    H157445   3.554   2.016  14.512 -2.6706  0.5023 -0.9158
12010TIP3    H257446   3.519   1.917  14.621 -0.5971 -0.1652 -0.8072
12011TIP3   OH257447   1.028   4.783  13.854 -0.0919  0.0222  0.3654
12011TIP3    H157448   1.003   4.758  13.765 -0.7637  3.2925 -0.4992
12011TIP3    H257449   0.947   4.777  13.904 -0.3338  0.7231  0.0729
12012TIP3   OH257450   1.708   2.047  11.300 -0.1546 -0.2698 -0.2506
12012TIP3    H157451   1.680   2.138  11.301  0.3870 -0.0209 -2.3180
12012TIP3    H257452   1.643   2.003  11.245  0.6500 -0.6988 -0.8834
12013TIP3   OH257453   4.345   3.364   2.833 -0.1260 -0.4946  0.7680
12013TIP3    H157454   4.435   3.363   2.867 -1.0037  0.7188  3.3595
12013TIP3    H257455   4.328   3.272   2.811  1.1914 -1.0530  1.8616
12014TIP3   OH257456   1.333   4.271  13.749  0.0357 -0.3189 -0.0258
12014TIP3    H157457   1.360   4.360  13.727  1.8754 -1.1481 -1.4098
12014TIP3    H257458   1.266   4.250  13.684 -0.5726  0.1165  0.4498
12015TIP3   OH257459   4.735   6.747   1.425 -0.1279 -0.5323  0.1211
12015TIP3    H157460   4.818   6.794   1.419 -0.0085 -0.8447 -0.9490
12015TIP3    H257461   4.704   6.743   1.334 -2.6753  1.9839  0.7027
12016TIP3   OH257462   6.433   2.917   0.897 -0.3564 -0.2459 -0.6099
12016TIP3    H157463   6.418   3.011   0.885  0.8383 -0.1563 -1.6036
12016TIP3    H257464   6.378   2.876   0.831 -1.6199 -0.3219  0.4545
12017TIP3   OH257465   2.939   5.957  16.335  0.3281  0.4062 -0.2552
12017TIP3    H157466   2.870   5.990  16.279  0.6953  0.3030 -0.7717
12017TIP3    H257467   3.014   5.944  16.277  0.6222  0.0224  0.1993
12018TIP3   OH257468   6.544   4.983  16.415 -0.3398  0.3784  0.3841
12018TIP3    H157469   6.449   4.987  16.417 -0.3799 -0.6081  1.4082
12018TIP3    H257470   6.572   5.047  16.482 -0.2317  1.3794 -0.5843
12019TIP3   OH257471   4.736   3.738   4.794  0.1032  0.6420 -0.0403
12019TIP3    H157472   4.823   3.711   4.822 -0.5267 -0.8502  0.6052
12019TIP3    H257473   4.750   3.779   4.709  1.2261 -1.5508 -1.0049
12020TIP3   OH257474   5.724   3.676  16.516 -0.2410 -0.2334 -0.6276
12020TIP3    H157475   5.690   3.677  16.605 -1.2892  1.2022 -1.0081
12020TIP3    H257476   5.662   3.729  16.465  1.6720  1.1579 -1.6943
12021TIP3   OH257477   6.357   4.180   2.254 -0.1024 -0.4670  0.2602
12021TIP3    H157478   6.365   4.251   2.317 -0.5487  0.9730 -1.2446
12021TIP3    H257479   6.445   4.141   2.251  0.5224  0.8993  0.1276
12022TIP3   OH257480   6.458   2.592  15.534 -0.0986 -0.3318 -0.0650
12022TIP3    H157481   6.452   2.566  15.442 -1.2636 -0.5521  0.0591
12022TIP3    H257482   6.370   2.622  15.556  0.2959  0.1860  0.8475
12023TIP3   OH257483   5.230   3.595   2.672  0.7722  0.0985  0.0791
12023TIP3    H157484   5.163   3.538   2.635  0.4467 -0.4925  1.5250
12023TIP3    H257485   5.295   3.604   2.602 -1.1884  1.4207 -1.6927
12024TIP3   OH257486   0.636   1.330  11.859  0.0973 -0.4519 -0.5267
12024TIP3    H157487   0.706   1.330  11.924 -0.0609 -0.4649 -0.3569
12024TIP3    H257488   0.556   1.346  11.909 -0.0035 -0.2838 -0.7380
12025TIP3   OH257489   3.837   3.835  16.195  0.3939  0.1918 -0.8224
12025TIP3    H157490   3.754   3.881  16.180  0.1004  0.0394  0.2234
12025TIP3    H257491   3.896   3.902  16.228 -0.0688 -0.1594  0.8166
12026TIP3   OH257492   1.265   6.535   2.937 -0.2674  0.0545  0.2376
12026TIP3    H157493   1.338   6.479   2.963  0.4065  1.0870  0.6685
12026TIP3    H257494   1.187   6.480   2.946  0.4644 -1.0947 -0.3242
12027TIP3   OH257495   1.918   2.953  15.903 -0.5364  0.2887 -0.1922
12027TIP3    H157496   1.997   2.919  15.945  0.7123  1.1853 -1.6984
12027TIP3    H257497   1.918   3.047  15.925 -1.4643  0.2092  0.1959
12028TIP3   OH257498   4.227   6.332   5.808  0.6578 -0.4861  0.0930
12028TIP3    H157499   4.159   6.335   5.875 -1.9596  2.0889 -2.3726
12028TIP3    H257500   4.281   6.410   5.825 -1.1605  1.2722 -1.6968
12029TIP3   OH257501   2.812   4.991  13.413 -0.2848  0.2972 -0.0555
12029TIP3    H157502   2.813   5.049  13.337 -1.1996  0.2312 -0.1358
12029TIP3    H257503   2.730   5.012  13.459 -0.5668 -0.8051 -0.0104
12030TIP3   OH257504   4.097   3.162  11.759 -0.4311  0.1640 -0.1221
12030TIP3    H157505   4.105   3.257  11.751  0.2151  0.1575  0.4415
12030TIP3    H257506   4.158   3.138  11.828 -2.0868 -0.4207  1.2075
12031TIP3   OH257507   6.337   4.792   5.289  0.0718  0.6568  0.1867
12031TIP3    H157508   6.296   4.730   5.229  0.3165  0.0390  0.6541
12031TIP3    H257509   6.271   4.810   5.355 -0.2436  1.4379 -0.3209
12032TIP3   OH257510   3.707   5.293  11.140  0.0678 -0.2615  0.1956
12032TIP3    H157511   3.716   5.200  11.162  1.3407  0.2512  2.1134
12032TIP3    H257512   3.631   5.322  11.191 -0.5640 -0.2984 -0.6951
12033TIP3   OH257513   4.245   4.412  15.624 -0.1165 -0.0416  0.1485
12033TIP3    H157514   4.257   4.500  15.659 -2.4046  0.3391  0.1514
12033TIP3    H257515   4.197   4.365  15.692  0.6805 -1.1830 -0.0339
12034TIP3   OH257516   6.352   1.367  14.757  0.0298 -0.8517 -0.0727
12034TIP3    H157517   6.375   1.305  14.826  1.9409 -1.0747 -0.8604
12034TIP3    H257518   6.328   1.312  14.682  1.2524 -0.6627 -0.6195
12035TIP3   OH257519   4.934   1.767  13.427  0.0116 -0.5720 -0.1016
12035TIP3    H157520   4.868   1.720  13.477  0.4467 -1.7314 -0.5953
12035TIP3    H257521   5.015   1.756  13.477 -0.1223  0.8512  0.5062
12036TIP3   OH257522   3.245   3.144  11.085  0.2271  0.0878  0.3642
12036TIP3    H157523   3.294   3.223  11.062 -2.2329  1.8509  0.8239
12036TIP3    H257524   3.201   3.118  11.004 -0.2820  0.1650  0.6165
12037TIP3   OH257525   1.145   4.079  15.006  0.1740 -0.0812  0.0780
12037TIP3    H157526   1.054   4.051  15.018  0.2998 -0.4194  0.2771
12037TIP3    H257527   1.172   4.037  14.924 -0.5952  1.9953 -1.3049
12038TIP3   OH257528   0.451   1.420  16.735 -0.2907 -0.0386 -0.4698
12038TIP3    H157529   0.380   1.398  16.676  0.4572 -1.2765 -0.9641
12038TIP3    H257530   0.408   1.439  16.819 -1.3904  2.1201 -1.4497
12039TIP3   OH257531   1.876   3.329  11.057 -0.0072 -0.3573 -0.1069
12039TIP3    H157532   1.944   3.393  11.034  0.2954 -0.2703  0.9941
12039TIP3    H257533   1.794   3.372  11.037  0.1367  0.8930  1.7996
12040TIP3   OH257534   4.059   3.666   0.487 -0.1845  0.1308 -0.0090
12040TIP3    H157535   4.122   3.601   0.455 -1.0743  0.1146 -1.8596
12040TIP3    H257536   4.111   3.724   0.543  1.5810  0.2698 -1.6683
12041TIP3   OH257537   2.445   4.136   4.662 -0.3762 -0.0052  0.4318
12041TIP3    H157538   2.493   4.207   4.620 -0.8501 -1.2270 -2.4857
12041TIP3    H257539   2.354   4.148   4.633 -0.3255 -2.1554 -0.8847
12042TIP3   OH257540   3.380   0.524  16.287  0.1331  0.1178 -0.2406
12042TIP3    H157541   3.376   0.456  16.355  2.0013 -0.3337 -0.5221
12042TIP3    H257542   3.356   0.604  16.333  1.3580 -0.1806  0.9824
12043TIP3   OH257543   5.623   0.616  11.576  0.1263 -0.6429 -0.2115
12043TIP3    H157544   5.602   0.659  11.493 -0.0486  0.1340  0.2164
12043TIP3    H257545   5.593   0.678  11.643  0.0442 -1.3601  0.4321
12044TIP3   OH257546   1.674   3.244  10.281 -0.2104 -0.1314  0.1164
12044TIP3    H157547   1.652   3.335  10.301  0.5702  0.2491 -0.6346
12044TIP3    H257548   1.623   3.192  10.342  0.2197  0.8583  1.3645
12045TIP3   OH257549   5.167   1.271  13.357  0.7185  0.5114 -0.0228
12045TIP3    H157550   5.130   1.358  13.345  3.0701  1.6087  0.0673
12045TIP3    H257551   5.122   1.236  13.434 -2.4045  0.3244 -1.7793
12046TIP3   OH257552   2.040   0.177  11.566  0.3348  0.2281  0.4861
12046TIP3    H157553   2.000   0.093  11.592  0.0262  0.6870  1.5507
12046TIP3    H257554   2.080   0.159  11.481  0.0134 -0.9233  0.5585
12047TIP3   OH257555   3.143   4.138  14.705 -0.3875  0.0092  0.2429
12047TIP3    H157556   3.183   4.109  14.622  0.5817 -1.8046  1.2793
12047TIP3    H257557   3.199   4.209  14.736 -1.2922  1.3626 -1.0560
12048TIP3   OH257558   2.136   6.705  15.614  0.7209 -0.2455 -0.1451
12048TIP3    H157559   2.168   6.740  15.531 -1.5212  1.3044 -0.4511
12048TIP3    H257560   2.050   6.668  15.593  1.0167 -1.7660  1.1164
12049TIP3   OH257561   5.094   3.732   1.721  0.1139  0.0704 -0.6159
12049TIP3    H157562   5.093   3.766   1.631 -0.0805 -1.0123 -1.0333
12049TIP3    H257563   5.002   3.717   1.742  0.1877 -0.0422 -0.3762
12050TIP3   OH257564   5.321   4.922  15.755  0.2882  0.3185 -0.2865
12050TIP3    H157565   5.344   4.889  15.669 -0.4264  0.8193 -0.6808
12050TIP3    H257566   5.296   5.013  15.740 -0.4107  0.2431  0.3563
12051TIP3   OH257567   0.363   5.389  14.624 -0.2576  0.1932  0.5455
12051TIP3    H157568   0.348   5.414  14.715 -0.6329  2.1613 -0.0123
12051TIP3    H257569   0.278   5.357  14.594  0.0741 -1.2777  1.0911
12052TIP3   OH257570   5.611   5.302   3.060  0.8166 -0.4903 -0.2695
12052TIP3    H157571   5.692   5.351   3.047  0.8243 -0.7608 -1.4119
12052TIP3    H257572   5.625   5.221   3.012 -0.6472  0.0492 -1.6955
12053TIP3   OH257573   5.924   0.248  12.193 -0.6667 -0.8245 -0.5566
12053TIP3    H157574   6.013   0.282  12.191 -0.7671 -0.5054  0.2819
12053TIP3    H257575   5.881   0.287  12.116 -0.7919  0.9949  0.3961
12054TIP3   OH257576   5.665   3.760  11.682 -0.4051 -0.1341 -0.3049
12054TIP3    H157577   5.696   3.670  11.697 -1.8337 -0.7293 -0.7571
12054TIP3    H257578   5.654   3.765  11.587  0.1111  0.6849 -0.3245
12055TIP3   OH257579   3.448   6.266  17.043  0.1684  0.1963 -0.1054
12055TIP3    H157580   3.424   6.218  17.122 -0.4531 -0.8089 -0.8857
12055TIP3    H257581   3.365   6.297  17.007  0.2248 -1.0548 -1.4165
12056TIP3   OH257582   5.532   0.758  12.106 -0.3229  0.2353 -0.0554
12056TIP3    H157583   5.471   0.723  12.171 -0.0357  0.8729  0.5716
12056TIP3    H257584   5.506   0.717  12.024 -0.7460 -0.5176  0.4491
12057TIP3   OH257585   1.006   0.807   2.048  0.2635 -0.2867  0.4540
12057TIP3    H157586   1.077   0.819   2.111  0.4760 -0.1901  0.1985
12057TIP3    H257587   0.934   0.860   2.083  1.0579  1.4640 -0.4402
12058TIP3   OH257588   5.616   2.031  16.274 -0.0937 -0.0397 -0.0390
12058TIP3    H157589   5.534   2.060  16.314  0.0034 -0.8880  0.7955
12058TIP3    H257590   5.588   1.980  16.198 -0.2852  1.2356 -0.8591
12059TIP3   OH257591   5.987   5.548  13.379 -0.3173  0.0186 -0.0290
12059TIP3    H157592   5.901   5.589  13.389 -0.9819 -0.6827 -2.2543
12059TIP3    H257593   6.047   5.621  13.364 -0.5380  0.4956  1.2910
12060TIP3   OH257594   0.947   1.958   3.867  0.0177  0.2804  0.4798
12060TIP3    H157595   0.969   1.940   3.776  1.0299 -0.3978  0.8351
12060TIP3    H257596   0.905   1.878   3.898  0.1553  0.3090  0.7445
12061TIP3   OH257597   3.630   5.842   1.107  0.4750 -0.0907  0.0740
12061TIP3    H157598   3.656   5.916   1.162 -0.9065 -0.5620  1.4232
12061TIP3    H257599   3.692   5.773   1.129  0.3148 -0.0747  0.5947
12062TIP3   OH257600   4.071   2.198  10.876  0.0300 -0.3059  0.3575
12062TIP3    H157601   4.130   2.124  10.862  0.8626  0.3217  0.5002
12062TIP3    H257602   3.984   2.158  10.880  0.4287 -1.2386  0.0959
12063TIP3   OH257603   4.555   4.192   2.189 -0.5931  0.0716  0.3006
12063TIP3    H157604   4.636   4.178   2.239 -1.4788  0.0976  1.7971
12063TIP3    H257605   4.485   4.181   2.254 -1.9096 -1.8984 -1.3406
12064TIP3   OH257606   6.493   5.379  11.463 -0.2339 -0.1764  0.3828
12064TIP3    H157607   6.440   5.457  11.449 -1.0990 -0.4512  1.8594
12064TIP3    H257608   6.535   5.394  11.548 -1.6451 -1.9131  1.4756
12065TIP3   OH257609   1.430   5.042   1.487  0.0456  0.2130  0.0371
12065TIP3    H157610   1.483   5.111   1.448 -2.5747  1.2050 -2.1021
12065TIP3    H257611   1.405   5.076   1.573 -2.1494  2.6397 -1.4038
12066TIP3   OH257612   5.369   4.238   3.497  0.2802 -0.0879 -0.1090
12066TIP3    H157613   5.315   4.283   3.433  0.2400  0.5124  0.3395
12066TIP3    H257614   5.325   4.153   3.510 -0.0952  0.0693 -0.3521
12067TIP3   OH257615   6.139   5.255   2.285  0.6338  0.0393 -0.3101
12067TIP3    H157616   6.221   5.223   2.248  0.4633 -1.3650  0.4609
12067TIP3    H257617   6.071   5.206   2.238  0.2314  0.9146 -0.6757
12068TIP3   OH257618   1.579   1.945   4.089  0.4222 -0.3136  0.3666
12068TIP3    H157619   1.539   2.026   4.057 -0.5489 -0.0398  2.1343
12068TIP3    H257620   1.597   1.963   4.182  0.7004 -1.9391  0.6465
12069TIP3   OH257621   4.564   5.423  14.055  0.0929  0.1025  0.2636
12069TIP3    H157622   4.488   5.441  14.111 -1.0081 -0.8921 -0.8712
12069TIP3    H257623   4.600   5.341  14.088  0.5728  0.4583  0.6561
12070TIP3   OH257624   3.032   1.670  14.170 -0.1537 -0.2854 -0.1624
12070TIP3    H157625   3.077   1.592  14.202 -1.2600 -1.1499 -0.6622
12070TIP3    H257626   3.023   1.656  14.076  0.5117  0.9161 -0.4266
12071TIP3   OH257627   5.859   3.182   4.631  0.4749 -0.6413  0.4445
12071TIP3    H157628   5.800   3.188   4.706  1.1845 -1.8812  1.1457
12071TIP3    H257629   5.929   3.244   4.650 -0.3921  0.5833 -0.2281
12072TIP3   OH257630   3.000   1.808   2.448  0.8084 -0.1139  0.1321
12072TIP3    H157631   3.080   1.861   2.445  0.8048 -0.0217 -4.3892
12072TIP3    H257632   2.930   1.872   2.459  0.9798  0.6896 -2.8154
12073TIP3   OH257633   5.967   4.799  13.209 -0.4797 -0.3820  0.7383
12073TIP3    H157634   6.006   4.764  13.289 -0.9224  0.1703  1.2041
12073TIP3    H257635   5.896   4.856  13.239  0.1699  0.8683  0.0238
12074TIP3   OH257636   6.014   2.237   4.465  0.0709  0.5786 -0.2091
12074TIP3    H157637   5.936   2.205   4.420  0.9562  0.4322 -1.7075
12074TIP3    H257638   6.061   2.288   4.399  1.3805  0.4386  0.5723
12075TIP3   OH257639   5.488   5.890   0.451 -0.8425 -0.1484  0.1668
12075TIP3    H157640   5.450   5.849   0.373 -2.9009  0.6681  0.6695
12075TIP3    H257641   5.422   5.876   0.519 -0.4537  1.7385  0.9937
12076TIP3   OH257642   2.901   2.705  12.670 -0.1277  0.2388  0.3036
12076TIP3    H157643   2.996   2.718  12.664  0.0544 -0.5639  1.1861
12076TIP3    H257644   2.881   2.719  12.762 -0.7283 -0.4140  0.2830
12077TIP3   OH257645   6.196   3.556  17.018  0.4008  0.4731  0.3788
12077TIP3    H157646   6.159   3.534  17.104  0.1292 -0.7914 -0.0461
12077TIP3    H257647   6.255   3.483  16.998 -0.1216  0.3611 -0.8375
12078TIP3   OH257648   4.500   1.087   4.228  0.4527  0.3568  0.3549
12078TIP3    H157649   4.512   1.119   4.317  2.7290 -0.6868  0.4918
12078TIP3    H257650   4.506   1.165   4.173 -0.3309  0.9216  1.0411
12079TIP3   OH257651   2.763   3.385   2.380 -0.2513 -0.1647 -0.0181
12079TIP3    H157652   2.710   3.364   2.303  1.1230  2.3017 -1.8129
12079TIP3    H257653   2.736   3.474   2.404  1.5966  0.3735  0.2549
12080TIP3   OH257654   1.295   5.291   5.047  0.1531  0.4183 -0.0957
12080TIP3    H157655   1.358   5.333   4.988 -1.0413  0.7682 -1.1625
12080TIP3    H257656   1.321   5.319   5.134 -0.0708  2.6865 -0.7085
12081TIP3   OH257657   4.309   6.166   0.515  0.0565  0.0822 -0.2803
12081TIP3    H157658   4.297   6.258   0.540  0.8539  0.2350 -0.4291
12081TIP3    H257659   4.232   6.121   0.550  0.3356  0.5659  1.0040
12082TIP3   OH257660   4.983   0.717  12.877  0.0735  1.0596 -0.9291
12082TIP3    H157661   4.932   0.684  12.951  0.6767  0.9165 -0.5754
12082TIP3    H257662   4.989   0.811  12.891  1.0410  0.9081 -0.2531
12083TIP3   OH257663   0.346   4.235   3.603 -0.2641  0.3310 -0.1280
12083TIP3    H157664   0.332   4.324   3.633 -1.0666  0.6865 -1.4539
12083TIP3    H257665   0.333   4.239   3.508 -0.5229 -1.2285 -0.1974
12084TIP3   OH257666   3.379   1.484   6.306 -0.5108 -0.0389  0.2432
12084TIP3    H157667   3.370   1.393   6.278  2.5642 -0.3463 -0.0883
12084TIP3    H257668   3.410   1.479   6.396  0.3048  0.6405  0.0160
12085TIP3   OH257669   1.974   3.415   3.493 -0.0418 -0.5860  0.0456
12085TIP3    H157670   1.901   3.408   3.431  0.2575 -0.6569 -0.3043
12085TIP3    H257671   1.996   3.324   3.513 -0.2859 -0.5625  0.4394
12086TIP3   OH257672   6.735   2.435  15.995  0.0604 -0.2806  0.1562
12086TIP3    H157673   6.764   2.346  15.978  0.8100 -0.3857  1.7426
12086TIP3    H257674   6.812   2.489  15.976  0.3765 -0.2402  1.4686
12087TIP3   OH257675   3.259   3.653   1.910 -0.2051  0.3544  0.3840
12087TIP3    H157676   3.203   3.729   1.899  1.0290  1.0637 -1.5495
12087TIP3    H257677   3.209   3.580   1.874 -0.4371  0.7034 -0.0037
12088TIP3   OH257678   3.580   0.059   5.234 -0.3075 -0.1641  1.2225
12088TIP3    H157679   3.606  -0.026   5.269 -0.2599 -0.6584  0.0301
12088TIP3    H257680   3.651   0.083   5.174  1.4859  2.3988  4.0857
12089TIP3   OH257681   0.984   5.146   4.401 -0.1085 -0.3753 -0.7595
12089TIP3    H157682   0.925   5.220   4.411  0.0788 -0.0175 -2.1763
12089TIP3    H257683   1.002   5.118   4.491 -0.5143  1.0197 -0.2205
12090TIP3   OH257684   4.324   4.663  15.778 -1.0716 -0.1202 -0.5017
12090TIP3    H157685   4.340   4.743  15.728 -0.5888  0.1377  0.0452
12090TIP3    H257686   4.238   4.677  15.818 -0.1036  1.0839  1.3114
12091TIP3   OH257687   5.168   2.349   0.285  0.4799  0.1347 -0.5287
12091TIP3    H157688   5.252   2.350   0.239  0.0348 -1.3962 -1.4658
12091TIP3    H257689   5.103   2.341   0.215 -0.2893 -1.0123  0.2893
12092TIP3   OH257690   5.122   0.005   1.557  0.6125  0.0597  0.1222
12092TIP3    H157691   5.166  -0.061   1.504  0.4363  0.5023 -0.5934
12092TIP3    H257692   5.083  -0.044   1.630 -0.7969 -0.8626 -1.1917
12093TIP3   OH257693   3.366   6.062   1.622 -0.2883  0.0943  0.9887
12093TIP3    H157694   3.304   5.989   1.629  0.8227 -0.9795  0.1309
12093TIP3    H257695   3.331   6.116   1.552 -1.1963  0.4947  1.7215
12094TIP3   OH257696   3.365   1.182   3.928  0.1242 -0.2474  0.4555
12094TIP3    H157697   3.346   1.114   3.863 -0.9040  0.4719 -0.0256
12094TIP3    H257698   3.303   1.165   3.998  0.7071 -0.5493  0.9017
12095TIP3   OH257699   2.939   4.899  15.977 -0.9560 -0.7275  0.0205
12095TIP3    H157700   2.956   4.962  15.908 -1.7632 -1.6259 -1.0347
12095TIP3    H257701   2.843   4.893  15.982 -0.9210 -2.5299 -0.5625
12096TIP3   OH257702   4.568   1.276  10.516 -0.1072  0.1392 -0.4310
12096TIP3    H157703   4.573   1.206  10.581 -1.2999  1.2806  0.9536
12096TIP3    H257704   4.516   1.239  10.444  0.7046 -0.9330 -0.4877
12097TIP3   OH257705   4.228   3.227   1.209  0.3342  0.1620  0.2445
12097TIP3    H157706   4.153   3.261   1.258  0.1753 -1.4245  1.1769
12097TIP3    H257707   4.261   3.155   1.263  1.3366 -0.4151 -1.0829
12098TIP3   OH257708   6.504   2.230  11.566  0.1919 -0.2288 -0.3667
12098TIP3    H157709   6.416   2.256  11.594  0.0155 -0.5079 -0.6573
12098TIP3    H257710   6.550   2.212  11.648  0.4945  1.5046 -0.1102
12099TIP3   OH257711   5.460   2.225  11.218  0.5552 -0.1656  0.8461
12099TIP3    H157712   5.435   2.133  11.207  1.8626 -0.6419  1.6299
12099TIP3    H257713   5.389   2.274  11.177  0.0898 -1.5351 -0.0684
12100TIP3   OH257714   5.214   1.965  11.517 -0.0309 -0.2626  0.3463
12100TIP3    H157715   5.302   1.972  11.552  1.2826 -1.0537 -2.5107
12100TIP3    H257716   5.192   2.054  11.488 -0.6440  0.1380  1.8998
12101TIP3   OH257717   4.287   4.750  16.150 -0.2535  0.6880 -0.0362
12101TIP3    H157718   4.234   4.717  16.078  1.2886  0.5657 -1.1782
12101TIP3    H257719   4.235   4.820  16.189 -1.8354 -0.3557 -0.1772
12102TIP3   OH257720   3.386   6.693  16.296 -0.0783  0.4910  0.0512
12102TIP3    H157721   3.442   6.649  16.232  1.8021 -0.1453  2.0395
12102TIP3    H257722   3.412   6.785  16.291  0.2114  0.4103  0.0634
12103TIP3   OH257723   4.512   2.283  15.817  0.2308  0.0079 -0.6510
12103TIP3    H157724   4.607   2.290  15.814  0.2271  0.6470  0.3803
12103TIP3    H257725   4.481   2.336  15.743  0.6932 -1.3306 -1.8522
12104TIP3   OH257726   6.423   2.297  13.597 -0.6052 -0.6478 -0.0003
12104TIP3    H157727   6.514   2.299  13.565  0.0109 -1.2721  1.6183
12104TIP3    H257728   6.387   2.382  13.570  0.4896 -0.3321 -0.5507
12105TIP3   OH257729   1.351   0.420  13.102 -0.9519  0.1612 -0.0800
12105TIP3    H157730   1.330   0.506  13.137  1.8838  1.6326 -1.6441
12105TIP3    H257731   1.305   0.416  13.018  2.3294  2.1860 -2.1587
12106TIP3   OH257732   5.376   2.450  15.007  0.5795 -0.1812 -0.6613
12106TIP3    H157733   5.334   2.435  14.923  0.3292 -0.4683 -0.4887
12106TIP3    H257734   5.314   2.505  15.055  0.0807 -1.1642 -0.1549
12107TIP3   OH257735   1.556   1.276  11.774  0.4647 -0.2317  0.1702
12107TIP3    H157736   1.469   1.315  11.771  0.0293 -1.1860  0.1482
12107TIP3    H257737   1.616   1.351  11.770 -0.3211  0.3482 -1.4715
12108TIP3   OH257738   6.588   3.791  17.192  0.4399 -0.3795  0.2600
12108TIP3    H157739   6.673   3.806  17.151 -0.6432  1.6990 -1.4893
12108TIP3    H257740   6.548   3.878  17.196 -1.4171 -1.2147  1.4787
12109TIP3   OH257741   0.134   2.941  14.092 -0.5098 -0.0972 -0.4966
12109TIP3    H157742   0.084   2.864  14.118  0.0088 -0.3378 -0.1956
12109TIP3    H257743   0.224   2.910  14.087 -0.3314  0.4341 -0.6151
12110TIP3   OH257744   4.971   4.309  11.809 -0.0585  0.3688 -0.6927
12110TIP3    H157745   5.039   4.249  11.780 -0.0731  0.3343 -0.6547
12110TIP3    H257746   4.987   4.320  11.903 -2.0280 -2.1379  0.0492
12111TIP3   OH257747   4.926   0.321   2.746 -0.7524 -0.2075  0.3746
12111TIP3    H157748   4.913   0.232   2.780  0.2406 -0.1374  0.9760
12111TIP3    H257749   5.003   0.315   2.690 -2.5696 -0.3928 -2.2719
12112TIP3   OH257750   3.802   5.094  12.456 -0.3666  0.1465  0.5402
12112TIP3    H157751   3.766   5.013  12.420 -0.8342  0.8079 -0.5389
12112TIP3    H257752   3.895   5.092  12.431 -0.2048 -0.3789  1.1466
12113TIP3   OH257753   5.827   2.288  14.265  0.9831  0.2561  0.5068
12113TIP3    H157754   5.860   2.238  14.190 -0.9335  0.5102 -0.5871
12113TIP3    H257755   5.839   2.379  14.240  0.9114  0.3424  0.7843
12114TIP3   OH257756   5.782   2.422  15.399  0.2870  0.1852 -0.1884
12114TIP3    H157757   5.795   2.329  15.379 -1.1641 -0.2742  0.8408
12114TIP3    H257758   5.807   2.468  15.319 -0.9374 -1.2444 -1.4269
12115TIP3   OH257759   5.152   1.807  14.692  0.4749  0.5285 -0.2160
12115TIP3    H157760   5.138   1.809  14.787  0.2987  2.7868 -0.2476
12115TIP3    H257761   5.237   1.849  14.680 -0.7782  2.9020 -1.2210
12116TIP3   OH257762   3.003   6.618   5.551 -0.1674  0.0938  0.7580
12116TIP3    H157763   2.933   6.639   5.613 -1.0844  1.9330 -0.7729
12116TIP3    H257764   2.959   6.615   5.466  1.5224  0.7549 -0.1848
12117TIP3   OH257765   1.382   3.429   5.328 -0.5745  0.7263  0.1156
12117TIP3    H157766   1.331   3.460   5.403  1.1341  2.5002  0.6111
12117TIP3    H257767   1.399   3.507   5.276  0.1154 -0.1291 -0.9924
12118TIP3   OH257768   4.021   6.287   0.581 -0.5041 -0.2485  0.0316
12118TIP3    H157769   4.076   6.357   0.618  0.0183 -0.2532 -0.7181
12118TIP3    H257770   3.933   6.324   0.583 -0.4844 -0.2169  1.1904
12119TIP3   OH257771   0.269   3.596  14.765  0.0779 -0.0441 -0.4123
12119TIP3    H157772   0.299   3.570  14.678  0.2979 -0.2036 -0.2910
12119TIP3    H257773   0.332   3.663  14.793  1.6523 -1.8812  0.7256
12120TIP3   OH257774   3.887   3.065  15.139  0.1873 -0.1886 -0.1208
12120TIP3    H157775   3.921   3.045  15.226 -0.6920 -0.2675  0.2143
12120TIP3    H257776   3.947   3.131  15.104 -1.0794  2.1097  1.7380
12121TIP3   OH257777   3.884   6.671  13.658 -0.4235 -0.3904  0.2465
12121TIP3    H157778   3.791   6.650  13.658 -0.8926  1.5223  0.2004
12121TIP3    H257779   3.924   6.605  13.601 -2.1960  0.4713 -2.1545
12122TIP3   OH257780   1.877   2.981  16.776 -0.5094 -0.1913  0.3023
12122TIP3    H157781   1.946   2.935  16.823 -1.2618  0.1079  1.7697
12122TIP3    H257782   1.884   3.072  16.806 -0.2371  0.2920 -1.1247
12123TIP3   OH257783   0.842   3.513  15.829  0.2065 -0.4046 -0.2863
12123TIP3    H157784   0.846   3.560  15.913  0.7209  0.7238 -0.9193
12123TIP3    H257785   0.754   3.529  15.797  0.4866  0.4428 -0.6596
12124TIP3   OH257786   0.451   4.802   5.378 -0.1194 -0.5846  0.0646
12124TIP3    H157787   0.494   4.885   5.356 -2.2516  1.2097  2.0478
12124TIP3    H257788   0.486   4.779   5.464 -0.4059 -1.1153  0.0462
12125TIP3   OH257789   2.770   3.408  13.489  0.6577  0.1004 -0.0859
12125TIP3    H157790   2.693   3.353  13.472  0.6629  0.0554  0.0314
12125TIP3    H257791   2.748   3.492  13.449  0.2564  0.3035  0.5351
12126TIP3   OH257792   1.532   1.048   1.105 -0.0176  0.1966 -0.1702
12126TIP3    H157793   1.582   1.076   1.029 -0.8489  0.5837 -0.5870
12126TIP3    H257794   1.450   1.014   1.068 -0.2566  0.0065  0.5231
12127TIP3   OH257795   1.222   3.944   0.655 -0.4855 -0.0472  0.1906
12127TIP3    H157796   1.312   3.912   0.649 -0.3966  0.3956 -3.4045
12127TIP3    H257797   1.168   3.872   0.622 -1.0680  0.7571 -0.6979
12128TIP3   OH257798   1.269   1.877   3.340 -0.0618  0.0965  0.5243
12128TIP3    H157799   1.330   1.808   3.367  1.2604  0.4718 -1.2786
12128TIP3    H257800   1.325   1.951   3.318 -1.3400  1.1542  0.7349
12129TIP3   OH257801   0.916   5.597   6.203  0.5981 -0.0940  0.4420
12129TIP3    H157802   0.998   5.608   6.251  0.3590  0.6851  0.6989
12129TIP3    H257803   0.858   5.664   6.240 -0.2989 -0.9378  0.5845
12130TIP3   OH257804   3.230   6.073   0.448 -0.0206  0.2283  0.0932
12130TIP3    H157805   3.285   6.057   0.525 -0.1046  1.9519  0.5391
12130TIP3    H257806   3.284   6.047   0.374  1.0543  1.0305  0.5776
12131TIP3   OH257807   1.757   2.755  16.534 -0.4464  0.1217  0.3923
12131TIP3    H157808   1.820   2.789  16.470  0.2175 -1.0837  0.3597
12131TIP3    H257809   1.807   2.750  16.615 -0.8849  0.3692  0.6750
12132TIP3   OH257810   5.774   4.997  15.880  0.1004 -0.1280  0.0790
12132TIP3    H157811   5.806   4.989  15.790  0.2620 -0.6066  0.1804
12132TIP3    H257812   5.694   4.944  15.882 -0.9199  1.3335 -0.2678
12133TIP3   OH257813   3.809   3.179  11.371 -0.4248  0.4080 -0.4682
12133TIP3    H157814   3.803   3.084  11.381  1.1648  0.3624  0.2262
12133TIP3    H257815   3.812   3.213  11.460  1.9027  0.8735 -0.6649
12134TIP3   OH257816   3.310   1.900   1.853  0.0310 -0.1961 -0.1224
12134TIP3    H157817   3.326   1.824   1.797  0.6343 -0.1704  0.0066
12134TIP3    H257818   3.336   1.975   1.800  1.4266 -0.2233  0.4664
12135TIP3   OH257819   2.338   2.684   2.056  0.1995  0.2005  0.2394
12135TIP3    H157820   2.340   2.769   2.012 -0.3359 -0.6160 -1.4465
12135TIP3    H257821   2.428   2.670   2.085  0.2345  1.4545  0.8035
12136TIP3   OH257822   6.227   2.417  16.759 -0.0295  0.2455  0.5316
12136TIP3    H157823   6.262   2.504  16.777 -1.2630  1.0576 -0.7325
12136TIP3    H257824   6.297   2.371  16.713  0.6638  0.5336  1.2912
12137TIP3   OH257825   5.137   3.590   3.431 -0.6796  0.3757 -0.2145
12137TIP3    H157826   5.169   3.593   3.341 -1.9930 -0.5565 -0.7609
12137TIP3    H257827   5.079   3.514   3.432 -0.2074  0.0094  1.5988
12138TIP3   OH257828   1.597   1.275  15.127 -0.4617  0.0317  0.0943
12138TIP3    H157829   1.562   1.204  15.182 -0.2017 -0.7615 -0.7478
12138TIP3    H257830   1.614   1.346  15.189  0.0780 -0.9265  1.0891
12139TIP3   OH257831   1.691   5.800  17.259 -0.4582  0.4661  0.4636
12139TIP3    H157832   1.660   5.875  17.310 -0.5004  1.7915 -1.3946
12139TIP3    H257833   1.771   5.832  17.218  0.0393 -0.8578  0.3675
12140TIP3   OH257834   1.320   1.116  12.766  0.2277  0.5435  0.7038
12140TIP3    H157835   1.352   1.032  12.732 -0.8513 -0.1187  1.2704
12140TIP3    H257836   1.225   1.108  12.764  0.1189  1.5936  1.1770
12141TIP3   OH257837   4.096   0.070   4.050 -0.6950  0.0882 -0.6742
12141TIP3    H157838   4.023   0.012   4.071 -1.8503  1.5755 -0.3849
12141TIP3    H257839   4.135   0.032   3.971  0.4432 -2.6675  1.1081
12142TIP3   OH257840   4.453   3.757   1.345  0.3258 -0.0830  0.0555
12142TIP3    H157841   4.531   3.806   1.319  1.0190  0.8296  3.3951
12142TIP3    H257842   4.487   3.676   1.383 -0.4213 -0.1092  0.6886
12143TIP3   OH257843   0.985   3.788   5.206 -0.3728  0.2479  0.2357
12143TIP3    H157844   0.988   3.698   5.239 -2.3130  0.1817  0.3610
12143TIP3    H257845   1.070   3.825   5.229 -0.0365 -1.1550  1.3871
12144TIP3   OH257846   4.985   4.711  13.673  0.2951  0.4822  0.5337
12144TIP3    H157847   4.951   4.685  13.759 -0.0049  0.5076  0.4239
12144TIP3    H257848   5.034   4.634  13.643  0.0695  0.3279  0.5555
12145TIP3   OH257849   2.050   5.937  16.784  0.5933  0.1204  0.0778
12145TIP3    H157850   2.119   5.962  16.845  1.6660 -0.0293 -1.0366
12145TIP3    H257851   2.090   5.946  16.697 -1.0701  0.8975 -0.6505
12146TIP3   OH257852   3.898   5.145  13.231 -0.4532  0.2758 -0.3724
12146TIP3    H157853   3.889   5.063  13.183  1.5221  0.1065 -0.5531
12146TIP3    H257854   3.992   5.164  13.227 -0.5517  1.3783  1.5696
12147TIP3   OH257855   4.597   0.576   2.943 -0.7065 -0.2490 -0.6947
12147TIP3    H157856   4.689   0.555   2.927 -0.2781  0.5145  0.6428
12147TIP3    H257857   4.582   0.550   3.034 -1.2305  1.5471 -0.2361
12148TIP3   OH257858   4.819   2.327  14.730 -0.0342 -0.0240 -0.2288
12148TIP3    H157859   4.880   2.397  14.754 -0.8701  1.4502 -2.1127
12148TIP3    H257860   4.862   2.281  14.658  0.5126 -1.5329  0.9985
12149TIP3   OH257861   1.340   5.322  11.695 -0.6445  0.4567 -0.4926
12149TIP3    H157862   1.333   5.334  11.600 -2.0560 -1.5547 -0.7131
12149TIP3    H257863   1.253   5.292  11.721  0.4483 -1.6267  0.9894
12150TIP3   OH257864   5.276   3.387  13.261  0.0775 -0.3539 -0.3957
12150TIP3    H157865   5.334   3.463  13.262 -0.0241 -0.2767  0.8338
12150TIP3    H257866   5.335   3.311  13.266  0.2751 -0.4760 -3.0359
12151TIP3   OH257867   3.281   5.674   3.190 -0.3985 -0.1405  0.4083
12151TIP3    H157868   3.215   5.664   3.123 -0.4694 -0.0004  0.4558
12151TIP3    H257869   3.348   5.730   3.150 -1.1542  1.1986  0.9523
12152TIP3   OH257870   2.038   4.079  16.336  0.2864  0.6106  0.4407
12152TIP3    H157871   2.018   4.097  16.244  1.4084  2.6219  0.5183
12152TIP3    H257872   1.953   4.082  16.380 -0.3629 -1.1870 -0.5941
12153TIP3   OH257873   3.914   4.885   0.078  0.0308  0.0649  0.0672
12153TIP3    H157874   3.834   4.932   0.053  1.1891  2.1037  0.0778
12153TIP3    H257875   3.884   4.795   0.092 -2.1153  0.5882 -0.7256
12154TIP3   OH257876   0.422   3.952   5.296 -0.4784  0.4200 -0.0187
12154TIP3    H157877   0.512   3.947   5.327 -1.1165 -0.1208  1.8925
12154TIP3    H257878   0.369   3.943   5.375 -2.2238  0.4303 -1.1324
12155TIP3   OH257879   2.656   4.179   0.492 -0.0994  0.8580 -0.0855
12155TIP3    H157880   2.612   4.185   0.407 -1.1969 -0.7190  0.3279
12155TIP3    H257881   2.634   4.262   0.536 -1.1954  0.8449 -0.5733
12156TIP3   OH257882   6.364   2.426   4.427 -0.3523  0.2515 -0.0254
12156TIP3    H157883   6.367   2.340   4.469 -0.0642  0.9685  1.4836
12156TIP3    H257884   6.306   2.414   4.351  1.1064 -1.7138 -0.9336
12157TIP3   OH257885   0.835   2.364  11.812  0.0503 -0.2358 -0.4447
12157TIP3    H157886   0.762   2.314  11.849 -0.0861  0.1389 -0.2027
12157TIP3    H257887   0.857   2.429  11.879  0.5087 -0.2471 -0.5792
12158TIP3   OH257888   4.835   2.362   0.425 -0.0464  0.0839  0.4326
12158TIP3    H157889   4.906   2.423   0.448 -1.7610  2.4836 -0.2871
12158TIP3    H257890   4.806   2.326   0.508 -0.0292  1.4991  1.0785
12159TIP3   OH257891   3.090   3.326   4.793 -0.2841  0.9395  0.2524
12159TIP3    H157892   3.125   3.242   4.824  1.9914  1.3956 -0.8880
12159TIP3    H257893   3.165   3.385   4.795 -1.4856  2.5508 -0.4523
12160TIP3   OH257894   1.046   0.783   0.763 -0.2339 -0.0314  0.1490
12160TIP3    H157895   1.064   0.725   0.838 -0.2516 -1.1769 -0.7116
12160TIP3    H257896   1.088   0.866   0.787  2.0622 -1.1498  0.3406
12161TIP3   OH257897   0.410   6.210  11.801 -0.1671 -0.3720  0.3745
12161TIP3    H157898   0.496   6.179  11.826 -0.2996 -1.0827 -0.0064
12161TIP3    H257899   0.362   6.131  11.777  0.1720  0.2290 -2.7762
12162TIP3   OH257900   4.204   3.476   5.288  0.1124  0.3589  0.1765
12162TIP3    H157901   4.291   3.447   5.261  0.8138  0.6926  1.9277
12162TIP3    H257902   4.201   3.569   5.264 -0.3425  0.0043 -1.2031
12163TIP3   OH257903   3.973   0.241   6.256 -0.5362 -0.2533  0.1017
12163TIP3    H157904   3.947   0.189   6.180 -0.2173  1.2544 -1.0954
12163TIP3    H257905   4.068   0.249   6.248 -0.5794  0.5270  0.2343
12164TIP3   OH257906   6.353   3.220   0.584 -0.2011 -0.1312  0.6043
12164TIP3    H157907   6.431   3.165   0.590 -1.1188 -1.8135 -1.6052
12164TIP3    H257908   6.307   3.204   0.666  1.7375  0.9867  2.0154
12165TIP3   OH257909   0.458   4.744   1.816  0.5087  0.6459 -0.7305
12165TIP3    H157910   0.514   4.748   1.894  0.1391  2.2784 -0.5112
12165TIP3    H257911   0.513   4.703   1.750  1.4180  0.7720 -0.0737
12166TIP3   OH257912   1.146   4.257   1.093 -0.6474  0.2360  0.2956
12166TIP3    H157913   1.225   4.289   1.049 -1.4882  1.2456 -0.5527
12166TIP3    H257914   1.175   4.234   1.181  0.6380  0.3497 -0.0790
12167TIP3   OH257915   3.618   2.719   0.709 -0.3275 -0.1136 -0.5506
12167TIP3    H157916   3.580   2.766   0.784 -1.9860 -3.0076  0.5923
12167TIP3    H257917   3.704   2.689   0.740  0.3368  1.2714 -0.9662
12168TIP3   OH257918   5.256   6.077  10.842  0.1841 -0.0882  0.5911
12168TIP3    H157919   5.189   6.141  10.867  0.3902  0.4322 -0.1295
12168TIP3    H257920   5.206   6.003  10.807 -0.0367  0.0472  0.6164
12169TIP3   OH257921   0.861   2.597  11.946 -0.0744 -0.1771 -0.0858
12169TIP3    H157922   0.901   2.634  12.025  1.2803  0.3310 -0.9755
12169TIP3    H257923   0.845   2.673  11.890  0.5352 -0.6807 -0.9689
12170TIP3   OH257924   1.445   2.295   0.779  0.0416 -0.3047 -0.1776
12170TIP3    H157925   1.420   2.386   0.759  0.8129 -0.1014 -0.2777
12170TIP3    H257926   1.483   2.299   0.867  0.5486 -0.4287 -0.3841
12171TIP3   OH257927   5.266   0.727  11.263 -0.0868 -0.1871  0.2729
12171TIP3    H157928   5.333   0.665  11.232 -0.6464 -0.3263 -0.7031
12171TIP3    H257929   5.264   0.795  11.196 -1.8008 -0.8363 -0.3831
12172TIP3   OH257930   5.744   0.681   0.666  0.1146  0.2500 -0.8111
12172TIP3    H157931   5.839   0.667   0.664  0.0055 -0.5232 -0.8957
12172TIP3    H257932   5.713   0.625   0.737 -0.3474  0.0151 -1.1908
12173TIP3   OH257933   4.640   6.475   5.896  0.0626  0.7523  0.6564
12173TIP3    H157934   4.690   6.447   5.972  3.6749  1.8374 -1.0767
12173TIP3    H257935   4.682   6.556   5.867 -0.3595 -0.1313 -3.0414
12174TIP3   OH257936   5.887   6.478   5.081 -0.1312 -0.0502  0.6231
12174TIP3    H157937   5.845   6.472   4.995 -2.8331  0.8317  1.7642
12174TIP3    H257938   5.925   6.391   5.096  0.4274 -0.2029 -1.4256
12175TIP3   OH257939   6.038   5.201   3.648  0.1210 -0.2422 -0.7062
12175TIP3    H157940   6.124   5.163   3.630 -0.0022 -1.2042  0.5815
12175TIP3    H257941   5.995   5.138   3.706 -0.8987  0.9003 -0.1673
12176TIP3   OH257942   2.919   0.721  14.858  0.5540  0.2488 -0.4462
12176TIP3    H157943   2.902   0.724  14.764  2.5224 -0.4491 -0.8752
12176TIP3    H257944   2.875   0.641  14.888  1.2291 -0.3849 -1.1040
12177TIP3   OH257945   6.277   4.156  11.785 -0.8546 -0.2675 -0.2012
12177TIP3    H157946   6.242   4.242  11.807 -0.6442  0.1401 -1.4007
12177TIP3    H257947   6.355   4.148  11.840  0.4005  1.2827 -1.6207
12178TIP3   OH257948   4.002   1.178   5.097  0.3094 -0.2421  0.4223
12178TIP3    H157949   3.929   1.212   5.150  0.1159  1.4799 -0.8588
12178TIP3    H257950   3.982   1.086   5.085 -1.2896  0.0378  0.7257
12179TIP3   OH257951   1.973   0.347  15.184  0.6777 -0.3191  0.1030
12179TIP3    H157952   2.028   0.376  15.111  0.3734  2.0498  0.7434
12179TIP3    H257953   1.884   0.366  15.156  0.5745  0.7740  1.1472
12180TIP3   OH257954   1.266   4.852  10.739 -0.5348 -0.1736  0.3737
12180TIP3    H157955   1.327   4.861  10.812  0.2971  1.2753 -0.4590
12180TIP3    H257956   1.244   4.759  10.738 -0.2736 -0.3012  2.2152
12181TIP3   OH257957   4.398   4.693   0.479 -0.0453  0.1427  0.0115
12181TIP3    H157958   4.422   4.697   0.387  0.9649  2.0963  0.3053
12181TIP3    H257959   4.457   4.626   0.516 -0.4210 -0.6107 -0.7135
12182TIP3   OH257960   1.687   4.902  11.349  0.0711 -0.1470  0.1682
12182TIP3    H157961   1.715   4.982  11.303  0.7289  0.1665  1.0807
12182TIP3    H257962   1.611   4.930  11.401  1.2129  0.3131  1.6809
12183TIP3   OH257963   1.061   2.571   9.985 -0.2814  0.2209 -0.5860
12183TIP3    H157964   1.113   2.651   9.991 -0.3203  0.2713 -0.9090
12183TIP3    H257965   1.124   2.500  10.001 -0.4915  0.3623  1.0341
12184TIP3   OH257966   1.573   6.579   3.325 -0.0225  0.1353 -0.6199
12184TIP3    H157967   1.501   6.601   3.265 -1.7114 -0.4402  1.1115
12184TIP3    H257968   1.646   6.634   3.295 -1.3724  1.2829 -2.0070
12185TIP3   OH257969   5.741   6.128   0.095  0.1480 -0.1198  0.2053
12185TIP3    H157970   5.722   6.210   0.141 -1.8517 -0.2822 -0.2423
12185TIP3    H257971   5.714   6.059   0.155  1.8439 -0.4971  0.5866
12186TIP3   OH257972   6.538   4.741  11.133 -0.1905 -0.3362  0.3639
12186TIP3    H157973   6.555   4.769  11.043  0.4655  0.8608  0.8482
12186TIP3    H257974   6.594   4.796  11.187 -0.1895 -1.3903  1.4871
12187TIP3   OH257975   0.540   4.783  15.986 -0.0944  0.0732  0.0424
12187TIP3    H157976   0.614   4.765  16.044  1.1291  0.7929 -1.2123
12187TIP3    H257977   0.580   4.800  15.901 -1.9045 -3.1302 -1.6637
12188TIP3   OH257978   2.654   5.514  14.459  0.5147 -0.9170 -0.7432
12188TIP3    H157979   2.715   5.586  14.442 -0.6444  0.5840  1.0075
12188TIP3    H257980   2.581   5.530  14.400  0.0303 -0.3289 -0.0007
12189TIP3   OH257981   3.548   0.818   0.767 -0.5050  0.2023  0.4407
12189TIP3    H157982   3.571   0.852   0.854  0.2299  0.3112  0.2137
12189TIP3    H257983   3.482   0.752   0.784 -0.8146  0.6497  1.0332
12190TIP3   OH257984   4.688   6.710   4.267  0.0607  0.0994 -0.1790
12190TIP3    H157985   4.740   6.629   4.268  0.0950  0.0400 -2.2539
12190TIP3    H257986   4.751   6.779   4.286  0.5846 -0.1448 -0.9383
12191TIP3   OH257987   4.733   6.473  11.611  0.4461 -0.3384 -0.1146
12191TIP3    H157988   4.783   6.408  11.661 -0.1095 -0.5712  0.1485
12191TIP3    H257989   4.642   6.442  11.615  0.5765 -1.2263 -2.6028
12192TIP3   OH257990   4.830   5.267   1.476 -0.1839 -0.3028 -0.6353
12192TIP3    H157991   4.812   5.360   1.490  1.6146  0.4298 -2.7136
12192TIP3    H257992   4.746   5.231   1.448 -0.6430  0.9850 -1.0055
12193TIP3   OH257993   0.243   5.521   1.478 -0.4308 -0.7385  0.0247
12193TIP3    H157994   0.209   5.438   1.511 -0.9332 -0.4915  0.1504
12193TIP3    H257995   0.310   5.496   1.415 -2.1251 -1.3381 -1.6719
12194TIP3   OH257996   3.064   3.369  12.066  0.1097  0.2304 -0.1721
12194TIP3    H157997   3.063   3.287  12.016 -1.8882  0.0784  0.0417
12194TIP3    H257998   3.150   3.370  12.108  1.0212 -0.6811 -1.8905
12195TIP3   OH257999   1.602   0.332   5.839 -0.3119 -0.7007  0.0288
12195TIP3    H158000   1.508   0.331   5.819 -0.4929  0.2571  0.7123
12195TIP3    H258001   1.638   0.257   5.792 -1.2226 -0.4040 -1.1895
12196TIP3   OH258002   4.548   5.674   2.280  0.4579  0.0973 -0.4092
12196TIP3    H158003   4.583   5.586   2.290  1.4495  0.5422  0.1754
12196TIP3    H258004   4.497   5.689   2.360 -1.7097 -0.7998 -1.5546
12197TIP3   OH258005   0.218   4.051  13.051  0.1460  0.2601 -0.0304
12197TIP3    H158006   0.198   4.038  13.143  1.5860 -1.5818  0.0760
12197TIP3    H258007   0.140   4.020  13.005  0.1958 -0.7315  0.5278
12198TIP3   OH258008   6.481   2.857  15.689  0.2228 -0.4403  0.1940
12198TIP3    H158009   6.439   2.795  15.630 -0.2023  0.1239 -0.0987
12198TIP3    H258010   6.564   2.815  15.712  0.2465 -0.8092 -0.5374
12199TIP3   OH258011   2.923   1.290  13.756  0.0843  0.2157 -0.3017
12199TIP3    H158012   2.940   1.370  13.805  0.4509 -1.4512  2.5234
12199TIP3    H258013   2.991   1.287  13.690 -0.0919  2.3112 -0.6363
12200TIP3   OH258014   2.276   1.327  14.155 -0.3087  0.0358 -0.9673
12200TIP3    H158015   2.347   1.361  14.210 -1.5288 -0.6191  1.1209
12200TIP3    H258016   2.261   1.395  14.090  1.0799  0.9342 -0.3900
12201TIP3   OH258017   4.789   1.127  13.115  0.0978 -0.1741 -0.1814
12201TIP3    H158018   4.723   1.092  13.056  0.1030  1.9039 -1.5234
12201TIP3    H258019   4.871   1.119  13.066  0.1874  1.0518 -0.2553
12202TIP3   OH258020   0.753   0.214   1.706  0.4199 -0.0239  0.0749
12202TIP3    H158021   0.705   0.157   1.766  0.7427  1.4378  1.8208
12202TIP3    H258022   0.763   0.162   1.626  0.8482 -2.4557  1.5976
12203TIP3   OH258023   6.324   0.307  13.812 -0.0157 -0.2614  0.5687
12203TIP3    H158024   6.419   0.314  13.802 -0.0082 -0.0675  0.7586
12203TIP3    H258025   6.290   0.315  13.723  0.1364 -0.1520  0.5206
12204TIP3   OH258026   0.307   3.766  12.728 -0.4764 -0.0087 -0.0611
12204TIP3    H158027   0.218   3.789  12.703 -0.7506 -0.7731  0.1836
12204TIP3    H258028   0.329   3.691  12.672  0.2365  0.5513 -0.5452
12205TIP3   OH258029   2.244   5.194  16.453 -0.6931  0.0012 -0.0265
12205TIP3    H158030   2.244   5.133  16.379  0.2302  0.7901 -0.7036
12205TIP3    H258031   2.235   5.139  16.530 -0.5904 -0.9289 -0.6662
12206TIP3   OH258032   1.301   1.591  15.500 -0.1024 -0.4303 -0.2541
12206TIP3    H158033   1.341   1.631  15.578 -0.2972  0.8918 -0.8017
12206TIP3    H258034   1.208   1.613  15.507  0.0044  0.4625 -1.2655
12207TIP3   OH258035   3.906   6.182   5.824 -0.2572 -0.4225 -0.2110
12207TIP3    H158036   3.878   6.274   5.820  0.4006 -0.1832  0.4297
12207TIP3    H258037   3.961   6.177   5.902  1.9676 -0.7339 -1.6964
12208TIP3   OH258038   2.354   0.035   4.792  0.0257 -0.4229  0.0510
12208TIP3    H158039   2.396   0.014   4.709 -0.7883  0.3848 -0.5880
12208TIP3    H258040   2.409   0.102   4.831 -0.1350 -0.0705 -0.3226
12209TIP3   OH258041   5.871   4.455  11.413 -0.1448 -0.2286  0.0910
12209TIP3    H158042   5.831   4.416  11.336  0.8118 -1.7046  0.3111
12209TIP3    H258043   5.809   4.523  11.440 -0.9393 -0.3145 -1.4135
12210TIP3   OH258044   2.619   1.826  16.487 -0.3216  0.0579  0.0623
12210TIP3    H158045   2.563   1.758  16.525 -1.2001  2.5193  3.6562
12210TIP3    H258046   2.564   1.870  16.422 -0.4581 -1.2208 -0.7210
12211TIP3   OH258047   3.480   5.560  13.040 -0.1771 -0.3427  0.3784
12211TIP3    H158048   3.473   5.629  13.105 -0.3340 -2.1824  2.4297
12211TIP3    H258049   3.443   5.483  13.082  0.3145 -1.7972 -1.6736
12212TIP3   OH258050   2.623   3.125  12.544  0.0859  0.4501  0.3702
12212TIP3    H158051   2.575   3.194  12.499 -1.2449  0.0836  1.1637
12212TIP3    H258052   2.665   3.170  12.618  0.4213  0.6591  0.0538
12213TIP3   OH258053   0.892   6.031  11.467 -0.4259 -0.9100 -0.7989
12213TIP3    H158054   0.859   6.111  11.427  1.1668 -0.1597 -0.7057
12213TIP3    H258055   0.944   5.990  11.398  1.6822 -0.0114  0.1549
12214TIP3   OH258056   3.888   1.948   0.993  0.1867 -0.3513 -0.5492
12214TIP3    H158057   3.877   2.041   1.013  0.1214 -0.3401 -0.6355
12214TIP3    H258058   3.983   1.935   0.991  0.2138 -0.7104  1.3936
12215TIP3   OH258059   1.972   5.261   3.953  0.1059 -0.3338 -0.0495
12215TIP3    H158060   1.927   5.337   3.989  1.8833  0.5597  0.3877
12215TIP3    H258061   1.916   5.231   3.881 -0.8727  1.0534  0.1008
12216TIP3   OH258062   5.146   2.965   2.550 -0.7491  0.0702 -0.1910
12216TIP3    H158063   5.154   2.977   2.456 -2.1900  0.8742 -0.2320
12216TIP3    H258064   5.194   3.039   2.588 -1.7575  0.8151 -0.3343
12217TIP3   OH258065   5.928   3.449   4.689 -0.1595  0.0271  0.1772
12217TIP3    H158066   5.886   3.525   4.648  0.6349  0.7409  0.6391
12217TIP3    H258067   5.918   3.464   4.783  1.7704  0.6417  0.3416
12218TIP3   OH258068   1.945   1.417   1.253  0.0926  0.3689  0.2245
12218TIP3    H158069   1.874   1.362   1.285 -0.1526 -0.0677 -1.0281
12218TIP3    H258070   2.024   1.374   1.286 -0.1403 -0.2669 -0.0151
12219TIP3   OH258071   4.915   2.662  15.465 -0.3324 -0.3856 -0.1209
12219TIP3    H158072   4.888   2.695  15.379  0.1684 -1.4920 -0.7233
12219TIP3    H258073   4.944   2.572  15.448  1.2409 -0.1178  0.9469
12220TIP3   OH258074   6.685   5.860  11.370  0.2397 -0.2878 -0.8708
12220TIP3    H158075   6.701   5.933  11.310 -0.8826 -0.7437 -1.7602
12220TIP3    H258076   6.763   5.804  11.361  3.0274  2.5473  2.6726
12221TIP3   OH258077   5.299   3.469   5.776 -0.1801  0.7796 -0.1998
12221TIP3    H158078   5.394   3.485   5.776 -0.2084  0.9751  0.3926
12221TIP3    H258079   5.287   3.396   5.716  0.3767  0.6062 -0.1077
12222TIP3   OH258080   3.283   0.181  13.291  0.5098 -0.0192  0.7702
12222TIP3    H158081   3.282   0.201  13.385  2.2802  1.3418  0.5608
12222TIP3    H258082   3.200   0.216  13.259  0.6256  1.0534  1.5714
12223TIP3   OH258083   6.527   4.632  14.676 -0.4073 -0.1396  0.2995
12223TIP3    H158084   6.543   4.580  14.597 -0.8440 -0.6568  0.5471
12223TIP3    H258085   6.434   4.620  14.695  0.0932 -1.7084  2.0568
12224TIP3   OH258086   5.255   3.738   4.980  0.8765 -0.0218  0.4513
12224TIP3    H158087   5.302   3.802   5.034 -1.4289  1.9144  0.3141
12224TIP3    H258088   5.244   3.781   4.895 -0.0708 -0.9185  0.1010
12225TIP3   OH258089   3.226   5.857  15.454  0.6165 -0.0024 -1.2189
12225TIP3    H158090   3.134   5.832  15.466  0.6769 -0.3831 -1.5476
12225TIP3    H258091   3.231   5.887  15.363  0.5805  1.0803 -0.8859
12226TIP3   OH258092   1.400   3.336   2.296 -0.3775 -0.2738 -0.7303
12226TIP3    H158093   1.333   3.268   2.299 -0.0329 -0.5973  0.6817
12226TIP3    H258094   1.376   3.391   2.222 -1.5068 -1.0767 -0.9859
12227TIP3   OH258095   5.801   5.710   5.484  0.0458  0.0926  0.1417
12227TIP3    H158096   5.765   5.745   5.403 -0.7604 -0.8603  0.0621
12227TIP3    H258097   5.762   5.765   5.553  1.2528  1.3288 -0.1254
12228TIP3   OH258098   4.251   3.472   3.062 -0.2058  0.7737  0.1813
12228TIP3    H158099   4.172   3.431   3.097  1.6640 -1.9364  1.5224
12228TIP3    H258100   4.262   3.433   2.975  0.6934 -0.3725  0.7960
12229TIP3   OH258101   3.739   5.031  16.916 -0.0324 -0.2105 -0.3686
12229TIP3    H158102   3.660   4.979  16.926 -1.6167  2.3019  1.6314
12229TIP3    H258103   3.718   5.093  16.846  1.5844 -1.6832 -2.2843
12230TIP3   OH258104   5.408   0.581   1.203 -0.3995 -0.7183 -0.0188
12230TIP3    H158105   5.332   0.564   1.258  0.6901 -0.4330  1.6523
12230TIP3    H258106   5.384   0.659   1.152 -1.7115 -1.4254 -0.5304
12231TIP3   OH258107   4.923   3.331   1.799 -0.6085 -0.1755  0.0064
12231TIP3    H158108   4.963   3.279   1.868 -1.1897 -0.7888 -0.1078
12231TIP3    H258109   4.883   3.405   1.845 -1.1154 -0.6545  0.3488
12232TIP3   OH258110   0.743   6.019   5.662 -0.2005 -0.7773 -0.1403
12232TIP3    H158111   0.722   5.934   5.623 -0.7734 -0.8758  0.3621
12232TIP3    H258112   0.721   6.008   5.755  0.0605 -0.1909 -0.0066
12233TIP3   OH258113   0.885   4.232   1.000  0.5831 -0.4026 -0.4430
12233TIP3    H158114   0.822   4.253   1.069 -0.3915 -0.4581 -1.2903
12233TIP3    H258115   0.971   4.251   1.039 -0.0697  3.1580 -0.4333
12234TIP3   OH258116   0.982   6.463   3.839 -0.0544  0.4657  0.3157
12234TIP3    H158117   0.983   6.463   3.744 -0.9709 -0.8100  0.2837
12234TIP3    H258118   0.930   6.541   3.863 -1.4027 -0.2243 -0.2793
12235TIP3   OH258119   0.748   1.247   4.329 -0.3409  0.0830  0.3338
12235TIP3    H158120   0.792   1.185   4.387 -0.6858  0.6807  1.2551
12235TIP3    H258121   0.725   1.196   4.252  1.5840 -0.3458 -0.0088
12236TIP3   OH258122   5.880   2.839  11.594 -0.0142 -0.2116  0.1390
12236TIP3    H158123   5.886   2.875  11.506 -1.1111  0.2031  0.2129
12236TIP3    H258124   5.791   2.805  11.601  0.4700 -1.4250  0.6570
12237TIP3   OH258125   2.380   6.245   2.253 -0.0242  0.2530  0.0805
12237TIP3    H158126   2.323   6.272   2.181  1.1325 -0.1420 -1.0026
12237TIP3    H258127   2.428   6.325   2.277 -0.8411  0.5326  0.8476
12238TIP3   OH258128   2.556   1.406   6.088 -0.4937 -0.5754 -0.3446
12238TIP3    H158129   2.553   1.327   6.141  1.0394 -1.3382 -1.3431
12238TIP3    H258130   2.618   1.463   6.134  0.2227 -0.9179 -0.8737
12239TIP3   OH258131   6.439   4.803  16.028 -0.1468 -0.5758  0.8087
12239TIP3    H158132   6.520   4.799  16.080 -0.0231 -1.9935  0.5328
12239TIP3    H258133   6.435   4.894  15.998  2.2729 -0.8597 -0.6275
12240TIP3   OH258134   2.660   5.563   1.335 -0.0598  0.5926  0.7080
12240TIP3    H158135   2.620   5.637   1.381 -0.0604  0.5513  0.7736
12240TIP3    H258136   2.754   5.572   1.353 -0.1809 -0.1733  1.8136
12241TIP3   OH258137   6.264   2.359   3.096 -0.1889 -0.1792  0.1440
12241TIP3    H158138   6.207   2.424   3.054 -1.0160 -1.3392 -0.5796
12241TIP3    H258139   6.342   2.357   3.040 -0.7390 -0.7784 -0.6166
12242TIP3   OH258140   4.981   6.520   5.426 -0.2010  0.5689 -0.4423
12242TIP3    H158141   4.954   6.465   5.352 -3.0830  1.2730 -0.0230
12242TIP3    H258142   5.044   6.466   5.474 -0.9534 -1.3166 -1.4748
12243TIP3   OH258143   5.427   4.357  11.553 -0.0488 -0.0722  0.2794
12243TIP3    H158144   5.422   4.392  11.643 -0.9353 -0.4349  0.3809
12243TIP3    H258145   5.336   4.343  11.528  0.2581 -2.0936  0.1479
12244TIP3   OH258146   1.402   3.750   1.122 -0.1866 -0.0011 -0.4581
12244TIP3    H158147   1.491   3.786   1.115 -0.8024  1.4582 -1.4534
12244TIP3    H258148   1.345   3.822   1.092 -1.8096 -0.4201  1.4075
12245TIP3   OH258149   5.852   0.091   0.106 -0.3938  0.5378  0.3128
12245TIP3    H158150   5.847   0.046   0.190 -0.1061 -0.2514 -0.0888
12245TIP3    H258151   5.847   0.022   0.040  0.6182  1.0189 -0.3073
12246TIP3   OH258152   0.650   6.484   3.912 -0.4567  0.3538  0.1504
12246TIP3    H158153   0.636   6.565   3.961 -2.0112  1.1131 -1.4236
12246TIP3    H258154   0.561   6.450   3.896  0.1660 -2.1312  1.4630
12247TIP3   OH258155   3.709   6.750   2.010 -0.1208 -0.0068  0.2479
12247TIP3    H158156   3.693   6.843   1.995  0.9349  0.1038 -0.2852
12247TIP3    H258157   3.629   6.707   1.979 -1.0949  0.7822  1.5558
12248TIP3   OH258158   4.106   1.898  16.792  0.7308 -0.3656 -0.0998
12248TIP3    H158159   4.150   1.927  16.871 -0.6327 -0.1713  0.6301
12248TIP3    H258160   4.090   1.978  16.742  0.9774 -0.4025 -0.2361
12249TIP3   OH258161   1.409   1.878  11.284 -0.9377  0.1801 -0.3103
12249TIP3    H158162   1.391   1.876  11.190 -1.5636 -0.0137 -0.1933
12249TIP3    H258163   1.404   1.971  11.307  0.3323  0.3502 -0.6657
12250TIP3   OH258164   4.553   0.075  12.554  0.7992  0.5772  0.4762
12250TIP3    H158165   4.626   0.014  12.545  1.4430  1.5178 -1.0363
12250TIP3    H258166   4.504   0.065  12.472 -1.6464 -1.0586  1.9906
12251TIP3   OH258167   4.860   1.711   4.283  0.2122 -0.1332  0.7115
12251TIP3    H158168   4.803   1.740   4.212  0.3323 -0.7065  0.3810
12251TIP3    H258169   4.901   1.631   4.251  0.1792 -0.4666  1.4654
12252TIP3   OH258170   6.536   3.819   0.320 -0.2746 -0.0696  0.5985
12252TIP3    H158171   6.602   3.840   0.255 -2.8407 -1.5090 -2.8047
12252TIP3    H258172   6.537   3.893   0.381  4.4689 -0.1585  0.9553
12253TIP3   OH258173   1.247   5.765   5.578  0.7403  0.0828 -0.2105
12253TIP3    H158174   1.202   5.690   5.538 -0.6156  1.4579 -1.3607
12253TIP3    H258175   1.263   5.737   5.668 -1.3161 -0.9703 -0.1013
12254TIP3   OH258176   2.208   2.336  17.240  0.3160 -0.6503 -0.0591
12254TIP3    H158177   2.204   2.260  17.181 -1.0130  0.8897 -2.0809
12254TIP3    H258178   2.121   2.341  17.279 -0.0923  0.6160 -1.0579
12255TIP3   OH258179   4.065   0.024   0.676  0.3867  0.4226 -0.0077
12255TIP3    H158180   3.974   0.051   0.666  0.1605  0.5517  2.0613
12255TIP3    H258181   4.115   0.105   0.661 -0.0746  1.1935  2.2107
12256TIP3   OH258182   6.381   3.383   2.325  0.1747 -0.6704  0.0595
12256TIP3    H158183   6.421   3.406   2.409 -0.5499 -1.4821  0.6303
12256TIP3    H258184   6.298   3.343   2.347 -0.6760  0.3599 -1.1055
12257TIP3   OH258185   3.340   2.312  12.023 -0.0365  0.2810  0.9624
12257TIP3    H158186   3.258   2.361  12.022  0.6349  1.4474 -0.3742
12257TIP3    H258187   3.403   2.371  12.065  0.5557  0.2024  0.2170
12258TIP3   OH258188   2.804   2.318  13.228 -0.3683  0.4587 -0.1616
12258TIP3    H158189   2.816   2.265  13.150 -0.1092  0.0975  0.1183
12258TIP3    H258190   2.840   2.265  13.299  1.0155  1.4946 -0.0396
12259TIP3   OH258191   3.988   6.345   4.069  0.3115  0.2038 -0.5145
12259TIP3    H158192   3.990   6.273   4.131 -2.0343  0.1421 -0.4081
12259TIP3    H258193   3.956   6.420   4.120  1.1853  0.9220 -0.9916
12260TIP3   OH258194   1.854   2.007   6.294  0.3172  0.0022 -0.3615
12260TIP3    H158195   1.931   1.963   6.259  0.7045 -1.0994  1.7198
12260TIP3    H258196   1.826   1.952   6.367 -1.6563  1.0828 -0.2281
12261TIP3   OH258197   1.870   0.020   4.102 -0.5954 -0.8764  0.0570
12261TIP3    H158198   1.941  -0.025   4.147  0.5119  0.1809 -0.5868
12261TIP3    H258199   1.899   0.111   4.095 -1.8877 -0.4736 -0.4793
12262TIP3   OH258200   3.739   3.863   4.094 -0.1938 -0.5264  0.1786
12262TIP3    H158201   3.820   3.859   4.044 -0.2884 -0.9336  0.0497
12262TIP3    H258202   3.710   3.953   4.086 -0.3001 -0.6262 -0.6552
12263TIP3   OH258203   2.752   1.413   5.092 -0.4102  0.5303 -0.1955
12263TIP3    H158204   2.753   1.453   5.178  1.6098  0.4271 -0.1272
12263TIP3    H258205   2.696   1.470   5.039 -0.2600  1.5786  0.7443
12264TIP3   OH258206   1.981   4.045   4.211 -0.1480  0.4565  0.1082
12264TIP3    H158207   2.076   4.053   4.225  0.1663 -0.8477 -1.0416
12264TIP3    H258208   1.948   4.005   4.291  0.7138 -1.5031 -0.4366
12265TIP3   OH258209   2.227   5.672  16.198 -0.1861 -0.1148 -0.3721
12265TIP3    H158210   2.143   5.662  16.241  0.9993 -1.7842  1.7455
12265TIP3    H258211   2.228   5.763  16.167 -2.8121 -0.1370 -0.6860
12266TIP3   OH258212   6.764   0.081   4.415 -0.0311 -0.3565  0.3302
12266TIP3    H158213   6.855   0.060   4.437  0.6445  2.8429  1.1928
12266TIP3    H258214   6.746   0.161   4.464 -2.5690  0.3904 -1.6213
12267TIP3   OH258215   5.346   4.380   6.307 -0.2452  0.2325 -0.2783
12267TIP3    H158216   5.281   4.393   6.376 -0.3768  1.0242 -0.5372
12267TIP3    H258217   5.354   4.285   6.299  0.1676  0.1028  1.1977
12268TIP3   OH258218   5.871   2.000   6.122 -0.1122 -0.2509  0.0103
12268TIP3    H158219   5.893   2.091   6.143 -0.4861 -0.2162  0.2590
12268TIP3    H258220   5.822   1.969   6.198  1.6966 -1.2840  0.8317
12269TIP3   OH258221   0.638   3.137  17.233  0.6627  0.0585  0.4195
12269TIP3    H158222   0.630   3.058  17.180  0.5890  0.2831  0.0897
12269TIP3    H258223   0.603   3.207  17.177  2.3107  0.6159  0.0272
12270TIP3   OH258224   5.138   0.274  13.765 -0.5350 -0.2443 -0.3134
12270TIP3    H158225   5.196   0.286  13.689 -0.9533  0.4587 -0.5235
12270TIP3    H258226   5.132   0.360  13.805  1.2151 -0.9533  1.6698
12271TIP3   OH258227   0.372   0.811  13.882 -0.6382  0.5015 -0.6696
12271TIP3    H158228   0.436   0.784  13.817  0.1985 -0.5760  0.5515
12271TIP3    H258229   0.290   0.819  13.833 -0.2844 -1.3740 -1.6470
12272TIP3   OH258230   1.939   3.584  16.134 -0.2710 -0.0998 -0.1018
12272TIP3    H158231   1.991   3.664  16.144 -0.9144  0.4026 -0.6307
12272TIP3    H258232   1.896   3.594  16.049 -0.7207 -0.8009  0.0346
12273TIP3   OH258233   1.130   2.595   1.776  0.0017 -0.5925 -0.2711
12273TIP3    H158234   1.043   2.560   1.795  0.6765 -2.2255 -0.0220
12273TIP3    H258235   1.177   2.522   1.736  1.7413 -0.2378  1.0264
12274TIP3   OH258236   3.336   1.424  12.522 -0.0148  0.0470 -0.5712
12274TIP3    H158237   3.360   1.414  12.430  1.1689  1.1518 -0.4149
12274TIP3    H258238   3.285   1.505  12.525 -0.4409 -0.2271 -0.3111
12275TIP3   OH258239   6.653   0.268  15.950 -0.1138 -0.0395 -0.0565
12275TIP3    H158240   6.677   0.308  16.034 -0.8767  1.8743 -0.7071
12275TIP3    H258241   6.598   0.194  15.974  0.5317 -0.1557  1.1556
12276TIP3   OH258242   1.309   5.431  13.546  0.3020 -0.1616  0.4617
12276TIP3    H158243   1.237   5.379  13.508 -1.2029  0.6302  2.0740
12276TIP3    H258244   1.345   5.375  13.614 -0.4024  0.3404  1.2643
12277TIP3   OH258245   5.595   3.546  14.344  0.1874  0.8588  0.1121
12277TIP3    H158246   5.534   3.529  14.272 -0.9416 -0.2091  1.2652
12277TIP3    H258247   5.539   3.570  14.418  1.3401  2.2882  0.5750
12278TIP3   OH258248   5.922   5.140   1.717 -0.1799  0.2474  0.5189
12278TIP3    H158249   5.913   5.082   1.792  0.9338 -0.0119  0.4685
12278TIP3    H258250   5.929   5.228   1.754  0.1055  0.1451  0.7070
12279TIP3   OH258251   4.067   3.525  12.782 -0.7632  0.0426 -0.1349
12279TIP3    H158252   4.130   3.586  12.821  0.5497  0.4002 -2.5830
12279TIP3    H258253   4.107   3.439  12.794 -0.8612  0.0351  0.1574
12280TIP3   OH258254   2.560   5.144   0.855  0.7692 -0.5023 -0.1420
12280TIP3    H158255   2.517   5.101   0.780 -0.3016 -0.1358  0.2396
12280TIP3    H258256   2.630   5.084   0.879 -1.5177 -2.8689  1.2536
12281TIP3   OH258257   3.430   3.788  13.889 -0.2709  0.5356  0.1900
12281TIP3    H158258   3.403   3.704  13.851 -1.6141  0.7018  0.7060
12281TIP3    H258259   3.490   3.764  13.959 -1.6142 -0.1171  1.1658
12282TIP3   OH258260   2.235   6.695  14.588  0.3250 -0.4625 -0.0121
12282TIP3    H158261   2.145   6.664  14.580 -0.4158  1.1561  1.3427
12282TIP3    H258262   2.288   6.626  14.549 -1.5657 -0.9560 -1.8704
12283TIP3   OH258263   3.941   3.749   5.514 -0.3010  0.0669 -0.0193
12283TIP3    H158264   3.975   3.687   5.579  0.6770 -0.8499 -1.3692
12283TIP3    H258265   4.019   3.791   5.478 -0.7497 -0.1037 -1.2387
12284TIP3   OH258266   1.601   0.284  12.827 -0.0892 -0.0304  0.4787
12284TIP3    H158267   1.680   0.284  12.881  1.7955 -2.2360 -1.9894
12284TIP3    H258268   1.597   0.373  12.791  1.3335  0.1348  0.6538
12285TIP3   OH258269   0.481   4.629   2.795  0.4442  0.2010  0.0509
12285TIP3    H158270   0.414   4.667   2.851  0.6034 -0.6715  0.8714
12285TIP3    H258271   0.439   4.552   2.756  0.2424  0.9552 -1.2841
12286TIP3   OH258272   3.253   1.869   0.182 -0.3320  0.1614  0.3332
12286TIP3    H158273   3.257   1.964   0.194  2.5929 -0.0633  2.0310
12286TIP3    H258274   3.174   1.842   0.229 -2.4357  1.8607 -1.9558
12287TIP3   OH258275   0.444   1.310   5.488 -0.5617 -0.4665 -0.2210
12287TIP3    H158276   0.395   1.335   5.566 -1.0085 -2.4593  0.1961
12287TIP3    H258277   0.535   1.306   5.516 -0.7817 -1.7041  0.3790
12288TIP3   OH258278   2.063   4.733  12.987  0.0496 -0.1396  0.5243
12288TIP3    H158279   2.154   4.743  12.959 -0.2895 -0.0278 -0.5896
12288TIP3    H258280   2.057   4.643  13.019  0.1789 -0.7135 -0.9563
12289TIP3   OH258281   6.560   0.410  17.021  0.2571  0.0341  0.6087
12289TIP3    H158282   6.617   0.480  16.989  1.2287 -0.9876  0.0083
12289TIP3    H258283   6.599   0.384  17.105 -1.5034  1.7928  2.0711
12290TIP3   OH258284   1.325   6.503   5.454  0.0230 -1.1468  0.3093
12290TIP3    H158285   1.307   6.505   5.360 -2.0603 -0.3323  0.6650
12290TIP3    H258286   1.239   6.491   5.494  0.9560 -2.2800  2.1050
12291TIP3   OH258287   2.397   6.632  11.593 -0.4019 -0.4204  0.0239
12291TIP3    H158288   2.397   6.644  11.498  0.0184  1.1628  0.1908
12291TIP3    H258289   2.432   6.715  11.627 -2.7325 -0.0245  1.6551
12292TIP3   OH258290   5.690   5.212   0.092  0.1489  0.4765  0.0647
12292TIP3    H158291   5.678   5.252   0.006  1.4078  0.0891 -0.3200
12292TIP3    H258292   5.739   5.132   0.074  0.9829  0.7023  1.1957
12293TIP3   OH258293   6.022   1.009  14.922 -0.0599 -0.5912 -0.2942
12293TIP3    H158294   6.094   1.069  14.940  0.7386 -1.1646 -1.4549
12293TIP3    H258295   6.063   0.922  14.920 -0.7579 -0.9155 -1.1374
12294TIP3   OH258296   2.951   1.403  14.427 -0.7953  0.3446 -0.5460
12294TIP3    H158297   2.975   1.495  14.440  2.6885 -0.5110  0.3556
12294TIP3    H258298   2.932   1.371  14.515 -0.9237 -0.0153 -0.7029
12295TIP3   OH258299   6.374   4.282  13.823  0.0394 -0.3022 -0.1313
12295TIP3    H158300   6.433   4.352  13.795  0.9213 -0.1230  1.9938
12295TIP3    H258301   6.345   4.309  13.910 -1.2985 -1.5676 -0.1441
12296TIP3   OH258302   0.659   5.374  16.327  0.7770 -0.0394  0.1369
12296TIP3    H158303   0.671   5.469  16.334 -1.5419  0.2364  1.4363
12296TIP3    H258304   0.616   5.350  16.409 -0.8229 -1.8359 -1.1553
12297TIP3   OH258305   5.335   0.352  16.538 -0.2589 -0.2573 -0.6315
12297TIP3    H158306   5.241   0.343  16.555 -0.0785 -1.7293 -0.3336
12297TIP3    H258307   5.370   0.394  16.617 -0.8675  1.7134 -1.3576
12298TIP3   OH258308   1.298   2.086  11.610 -0.2612  0.2829  0.4291
12298TIP3    H158309   1.270   2.002  11.646  0.7825  0.3441  1.4466
12298TIP3    H258310   1.228   2.147  11.634 -0.6752 -0.1433  0.3243
12299TIP3   OH258311   2.466   2.316  11.397 -0.6537 -0.9292 -0.3840
12299TIP3    H158312   2.459   2.222  11.381  1.3270 -1.1965  0.0026
12299TIP3    H258313   2.509   2.351  11.319 -2.7383 -0.0370 -1.2071
12300TIP3   OH258314   1.098   5.676  14.545 -0.1001  0.3121  0.0024
12300TIP3    H158315   1.106   5.761  14.588 -0.1117  1.5146 -2.2105
12300TIP3    H258316   1.153   5.617  14.597  0.7089  1.8995  1.0294
12301TIP3   OH258317   1.729   2.755   2.886  0.0888 -0.6275  0.1110
12301TIP3    H158318   1.770   2.726   2.805  0.8878  0.5935  0.0620
12301TIP3    H258319   1.659   2.814   2.858 -1.5989 -2.4619  0.2081
12302TIP3   OH258320   3.279   5.483   0.880  0.7599  0.3480  0.7865
12302TIP3    H158321   3.367   5.519   0.865  0.6032  0.2377 -0.5807
12302TIP3    H258322   3.220   5.556   0.867  0.5800  0.1369  0.3909
12303TIP3   OH258323   0.650   3.250   5.507  0.0589  0.3378  0.4498
12303TIP3    H158324   0.578   3.190   5.488 -0.1919  0.5270  0.7851
12303TIP3    H258325   0.640   3.321   5.444 -0.6070  0.8276  1.0822
12304TIP3   OH258326   3.853   4.633   1.126 -0.1937  0.2310 -0.3255
12304TIP3    H158327   3.868   4.653   1.218  1.4100  0.6687 -0.6510
12304TIP3    H258328   3.768   4.589   1.124  0.4698 -1.2789  1.5740
12305TIP3   OH258329   0.064   5.445   1.953 -0.2300  0.3183  0.4994
12305TIP3    H158330   0.142   5.454   1.898 -0.1201  0.4139  0.6684
12305TIP3    H258331  -0.006   5.424   1.892  0.2555 -1.4845  0.5130
12306TIP3   OH258332   5.880   0.955   2.313 -0.7251 -0.4067 -0.0951
12306TIP3    H158333   5.844   0.906   2.239  0.6067  0.0453 -1.0903
12306TIP3    H258334   5.888   1.045   2.280  1.2471 -0.4915  0.0668
12307TIP3   OH258335   6.133   0.312   2.755  0.2879 -0.1170 -0.4180
12307TIP3    H158336   6.202   0.346   2.698 -1.6875  0.2419 -2.7228
12307TIP3    H258337   6.115   0.225   2.721 -0.5282 -0.1330  0.0377
12308TIP3   OH258338   1.726   4.129  15.047  0.4763 -0.1552  0.2736
12308TIP3    H158339   1.667   4.095  14.980  1.5852 -0.0970 -0.7606
12308TIP3    H258340   1.679   4.114  15.130 -0.6058 -0.8791 -0.4430
12309TIP3   OH258341   3.211   1.946  15.459 -0.0398  0.0951 -0.2932
12309TIP3    H158342   3.162   1.869  15.490 -3.0587  1.0384 -2.3029
12309TIP3    H258343   3.277   1.910  15.399 -0.1760 -1.0215  0.1913
12310TIP3   OH258344   4.973   4.808   0.757  0.1954 -0.0914 -0.3781
12310TIP3    H158345   5.060   4.817   0.796 -0.3127  1.7022  0.4678
12310TIP3    H258346   4.989   4.799   0.663  1.2845  1.4595 -0.3799
12311TIP3   OH258347   2.957   1.861   1.938 -0.5320  0.1998  0.8862
12311TIP3    H158348   2.960   1.804   1.860  2.0833  1.0988  0.2196
12311TIP3    H258349   2.953   1.950   1.902  0.5132  0.6165  1.7331
12312TIP3   OH258350   1.626   5.433   6.171  0.7397  0.4761 -0.7430
12312TIP3    H158351   1.625   5.470   6.083  0.2738  1.4211 -0.3662
12312TIP3    H258352   1.573   5.495   6.223 -0.1659 -0.7986 -0.0963
12313TIP3   OH258353   2.981   1.160  16.612 -0.4362 -0.0264 -0.3734
12313TIP3    H158354   2.928   1.086  16.641 -0.4621 -0.8311 -2.3196
12313TIP3    H258355   3.010   1.202  16.693 -4.5708  0.9115  0.8396
12314TIP3   OH258356   2.449   5.499  13.585  0.4529 -0.2601  0.1447
12314TIP3    H158357   2.520   5.474  13.644 -0.4562 -1.5078  0.7544
12314TIP3    H258358   2.487   5.490  13.497  0.4132 -3.2880  0.3386
12315TIP3   OH258359   1.416   1.254  11.459 -0.1779  0.4658 -0.0513
12315TIP3    H158360   1.427   1.175  11.407 -0.0205  0.2723  0.2722
12315TIP3    H258361   1.333   1.242  11.505 -1.2586  1.4468 -1.6544
12316TIP3   OH258362   4.004   5.614   1.641  0.0957 -0.3490 -0.1454
12316TIP3    H158363   4.086   5.572   1.666  0.8288  0.3005 -1.3963
12316TIP3    H258364   3.948   5.541   1.612  0.3314 -0.7580  0.4099
12317TIP3   OH258365   1.210   1.869  13.699  0.3229 -0.2155  0.6784
12317TIP3    H158366   1.120   1.887  13.728 -0.1409 -1.1051 -0.1404
12317TIP3    H258367   1.253   1.832  13.776 -0.0961 -0.0263  1.0069
12318TIP3   OH258368   4.248   3.134   3.687  0.4477 -0.3484  0.0087
12318TIP3    H158369   4.341   3.146   3.665  0.3168 -0.9164 -0.8798
12318TIP3    H258370   4.214   3.076   3.619 -0.3421 -0.9067  0.8668
12319TIP3   OH258371   3.114   4.119   0.718  0.2378  0.0340 -0.2151
12319TIP3    H158372   3.055   4.145   0.647  0.5084 -0.7622 -0.7488
12319TIP3    H258373   3.058   4.116   0.796 -0.3037 -0.1517 -0.6036
12320TIP3   OH258374   0.600   2.679   5.091  0.1212 -0.0696 -0.9375
12320TIP3    H158375   0.549   2.676   5.173  2.0662  0.1792  0.3454
12320TIP3    H258376   0.583   2.594   5.050  1.0578 -1.2566  0.9942
12321TIP3   OH258377   2.833   4.204   1.128 -0.5094  0.0549  0.4495
12321TIP3    H158378   2.845   4.269   1.059  0.2162 -1.3574 -0.8055
12321TIP3    H258379   2.885   4.129   1.100 -1.3870 -1.1139  1.8164
12322TIP3   OH258380   0.255   3.464   1.022  0.1334 -0.0624  0.3108
12322TIP3    H158381   0.171   3.420   1.036 -0.4852  0.7232 -0.7577
12322TIP3    H258382   0.235   3.535   0.961  1.2428  1.2394  1.3941
12323TIP3   OH258383   4.820   5.348   3.611 -0.5840 -0.1832 -0.0371
12323TIP3    H158384   4.910   5.315   3.616 -0.6761 -0.3913  0.2927
12323TIP3    H258385   4.829   5.433   3.569 -0.0070  0.5618  1.4846
12324TIP3   OH258386   1.604   4.131  16.144  0.0067 -0.3551 -0.0005
12324TIP3    H158387   1.585   4.053  16.195  0.7239 -0.4349  0.1429
12324TIP3    H258388   1.635   4.195  16.209  1.3767 -0.6088 -0.3922
12325TIP3   OH258389   1.315   6.447   5.160 -0.1476  0.0186 -0.1673
12325TIP3    H158390   1.303   6.467   5.067  0.9262 -1.1372 -0.5770
12325TIP3    H258391   1.271   6.363   5.172 -1.4503  0.7799  0.7084
12326TIP3   OH258392   1.159   3.226   4.250  0.0780 -0.6025  0.3949
12326TIP3    H158393   1.165   3.194   4.160 -0.7649 -2.1823  0.8650
12326TIP3    H258394   1.137   3.319   4.240  0.9230 -0.5200 -1.0187
12327TIP3   OH258395   0.637   1.686   1.161 -0.2053  0.0333 -0.8978
12327TIP3    H158396   0.584   1.765   1.170 -2.6119 -1.4319 -1.3296
12327TIP3    H258397   0.610   1.648   1.077 -0.1940 -1.9546 -0.0677
12328TIP3   OH258398   5.679   6.114   2.669  0.4537  0.1708 -0.3635
12328TIP3    H158399   5.596   6.156   2.646  0.0405  0.2217  1.1200
12328TIP3    H258400   5.714   6.168   2.740  0.7393 -1.0077  0.4143
12329TIP3   OH258401   2.699   6.210   4.398 -0.0659  0.1047 -0.5761
12329TIP3    H158402   2.644   6.134   4.382 -0.5443  0.8790 -3.1687
12329TIP3    H258403   2.660   6.252   4.474 -1.3184 -0.9115 -0.6214
12330TIP3   OH258404   6.002   2.262  13.760 -0.1345  0.3756  0.6038
12330TIP3    H158405   6.093   2.263  13.788  0.3372 -0.8208 -0.7405
12330TIP3    H258406   5.985   2.351  13.729  1.0154  0.2722 -0.3924
12331TIP3   OH258407   5.664   3.275  16.826  0.0425 -0.3277  0.2638
12331TIP3    H158408   5.576   3.304  16.802  0.1095 -1.4545 -1.5292
12331TIP3    H258409   5.709   3.263  16.742  1.8745  0.0967  1.1332
12332TIP3   OH258410   0.690   4.988   4.464 -0.0340  0.4204  0.1542
12332TIP3    H158411   0.726   5.076   4.459  1.3019 -0.0619  0.7859
12332TIP3    H258412   0.729   4.942   4.390 -1.0060  0.4418 -0.3853
12333TIP3   OH258413   5.831   2.903  13.091 -0.4396  0.8356 -0.3394
12333TIP3    H158414   5.915   2.906  13.045  0.3305  2.2255  1.0591
12333TIP3    H258415   5.766   2.913  13.022  0.6540  2.5545 -1.1957
12334TIP3   OH258416   0.403   2.143  12.290  0.2082 -0.5813  0.1389
12334TIP3    H158417   0.320   2.137  12.242  0.1278  0.5010  0.1068
12334TIP3    H258418   0.381   2.187  12.371  0.8358  0.2252 -0.1100
12335TIP3   OH258419   4.813   5.555  14.446 -0.7672 -0.4631 -0.2847
12335TIP3    H158420   4.855   5.483  14.494 -0.4285 -0.4550 -0.5629
12335TIP3    H258421   4.796   5.519  14.359 -1.8938 -0.6589  0.0008
12336TIP3   OH258422   4.652   0.245   5.707  0.0580  0.1076 -0.2399
12336TIP3    H158423   4.612   0.309   5.649  0.6537  1.0109  0.3179
12336TIP3    H258424   4.613   0.262   5.793 -1.6322 -1.9337 -0.5291
12337TIP3   OH258425   6.605   0.366   0.524  0.5914  0.1708  0.2547
12337TIP3    H158426   6.686   0.370   0.472 -0.8481 -0.9939 -2.2471
12337TIP3    H258427   6.553   0.439   0.490 -0.9953 -1.5365 -1.1738
12338TIP3   OH258428   4.526   1.996  15.737 -0.3320 -0.0575 -0.3673
12338TIP3    H158429   4.518   2.069  15.797 -0.2380  0.2121 -0.6807
12338TIP3    H258430   4.442   1.950  15.743 -0.6581  0.4874 -0.7033
12339TIP3   OH258431   2.322   2.472  14.142 -0.1458 -0.2147  0.2956
12339TIP3    H158432   2.382   2.545  14.154  0.8129 -0.5385 -1.9650
12339TIP3    H258433   2.337   2.415  14.217  1.0668  0.6004  0.6906
12340TIP3   OH258434   0.209   4.758   4.856 -0.6867 -0.0925 -0.1381
12340TIP3    H158435   0.301   4.774   4.834 -1.1006  1.9297 -0.5405
12340TIP3    H258436   0.190   4.818   4.928 -1.7705 -0.2846 -0.2439
12341TIP3   OH258437   0.724   2.157  16.030 -0.0253  0.4722 -0.2162
12341TIP3    H158438   0.652   2.184  16.086 -0.8668  0.1373 -1.1201
12341TIP3    H258439   0.713   2.209  15.950  0.4431  0.0606 -0.5536
12342TIP3   OH258440   0.131   1.422  12.249  0.7508 -0.3064 -0.1746
12342TIP3    H158441   0.140   1.440  12.156 -0.1227 -0.0061 -0.2164
12342TIP3    H258442   0.195   1.479  12.292  1.3162 -0.6171 -0.5969
12343TIP3   OH258443   5.849   2.124   1.656 -0.1820  0.0506  0.4976
12343TIP3    H158444   5.895   2.088   1.580 -0.4448 -0.0185  0.3689
12343TIP3    H258445   5.837   2.217   1.635 -2.1352 -0.3687 -0.5213
12344TIP3   OH258446   6.718   5.610  12.364  0.1673  0.4669 -0.4671
12344TIP3    H158447   6.695   5.701  12.346  1.7911  1.1371  0.6283
12344TIP3    H258448   6.646   5.559  12.327 -1.1612  2.2301 -0.4217
12345TIP3   OH258449   1.466   5.016  11.471  0.1320  0.1396 -0.5813
12345TIP3    H158450   1.380   4.995  11.434  0.7720 -2.1084 -0.9285
12345TIP3    H258451   1.475   5.111  11.458 -2.8451  0.7270  0.7379
12346TIP3   OH258452   0.666   5.084  14.865  0.5069  0.1143  0.5225
12346TIP3    H158453   0.616   5.034  14.930 -0.0741  0.5090  0.3822
12346TIP3    H258454   0.634   5.052  14.780 -0.4672  1.2903  0.4215
12347TIP3   OH258455   5.134   0.321  15.461  0.0280  0.5053 -0.3717
12347TIP3    H158456   5.057   0.280  15.499  0.8537  0.1981  1.0349
12347TIP3    H258457   5.176   0.252  15.410 -0.7494  0.7486 -1.3672
12348TIP3   OH258458   1.856   3.378  11.649 -0.0129 -0.1298  0.5839
12348TIP3    H158459   1.815   3.308  11.699  0.4467 -1.3177 -0.6610
12348TIP3    H258460   1.787   3.444  11.637 -0.6570 -0.6992  1.1165
12349TIP3   OH258461   5.042   2.979  15.194  0.1472  0.2866 -0.3621
12349TIP3    H158462   5.008   3.003  15.280  0.4543 -1.4334  0.2842
12349TIP3    H258463   5.089   3.057  15.164  1.0252  0.5535  1.5576
12350TIP3   OH258464   0.762   4.193  15.530 -0.1746 -0.1764 -0.0660
12350TIP3    H158465   0.787   4.278  15.494 -1.7935  0.1339 -0.5304
12350TIP3    H258466   0.837   4.168  15.585  0.3581  1.5186  0.0602
12351TIP3   OH258467   1.509   1.563  11.662 -0.1358  0.4377 -0.2684
12351TIP3    H158468   1.435   1.606  11.618  0.1653 -1.1350 -2.5010
12351TIP3    H258469   1.475   1.540  11.748 -2.1444  0.1681 -1.0627
12352TIP3   OH258470   3.012   3.846   1.458  0.0080  0.1849  0.4702
12352TIP3    H158471   3.057   3.775   1.412 -1.9327 -0.4872 -0.4874
12352TIP3    H258472   3.039   3.926   1.413 -1.5156 -0.4265 -1.6517
12353TIP3   OH258473   3.568   2.788   3.501  0.4247 -0.4754  0.0355
12353TIP3    H158474   3.482   2.744   3.503  0.7719 -1.1824 -0.1335
12353TIP3    H258475   3.609   2.755   3.421  1.9790 -2.3511  1.4883
12354TIP3   OH258476   1.522   1.349   1.455 -0.1911  0.3542 -0.6953
12354TIP3    H158477   1.474   1.406   1.394 -0.6939  1.2342  0.4771
12354TIP3    H258478   1.455   1.319   1.517  0.5734  0.8021  0.3819
12355TIP3   OH258479   6.022   3.043   5.046  0.8375  0.0631 -0.0136
12355TIP3    H158480   5.953   2.994   5.002  1.1042  1.2675 -1.9221
12355TIP3    H258481   6.058   2.982   5.110 -1.1351 -1.0040  0.1567
12356TIP3   OH258482   0.331   1.057   1.396 -0.2413 -0.2333  0.2097
12356TIP3    H158483   0.246   1.091   1.369  1.7709  3.0597 -2.9801
12356TIP3    H258484   0.314   0.966   1.420 -4.6442  0.3674  0.1832
12357TIP3   OH258485   2.714   2.636   4.093 -0.2232 -0.1354  0.2238
12357TIP3    H158486   2.733   2.697   4.022  0.2588  0.1636  0.6067
12357TIP3    H258487   2.627   2.602   4.072 -0.0145 -0.1833 -0.6009
12358TIP3   OH258488   4.641   2.610  11.172  0.1556 -0.3034  0.7325
12358TIP3    H158489   4.649   2.704  11.189 -0.6012  0.0208 -0.6067
12358TIP3    H258490   4.567   2.602  11.113  0.0122 -1.7891  1.0768
12359TIP3   OH258491   3.995   6.492  11.095 -0.0719 -0.3684  0.0628
12359TIP3    H158492   3.984   6.547  11.017  0.7785 -1.4102 -0.8329
12359TIP3    H258493   3.908   6.458  11.112 -0.1597 -0.6228 -0.8277
12360TIP3   OH258494   0.534   5.688  11.484 -0.0722 -0.4498 -0.2095
12360TIP3    H158495   0.598   5.701  11.414  0.8558 -1.2103  0.4839
12360TIP3    H258496   0.498   5.601  11.467 -0.3267 -0.3672 -0.1057
12361TIP3   OH258497   0.533   1.514  17.216 -0.0317  0.1710  0.5575
12361TIP3    H158498   0.514   1.429  17.256  0.6152 -0.5642 -0.6459
12361TIP3    H258499   0.626   1.528  17.232  0.4659 -0.5816 -1.4318
12362TIP3   OH258500   6.723   4.178   5.496  0.2372  0.2565  0.1719
12362TIP3    H158501   6.684   4.106   5.546 -0.9364  0.1490 -0.8517
12362TIP3    H258502   6.692   4.257   5.538 -0.9339  0.1687 -0.4710
12363TIP3   OH258503   3.913   2.109   5.161 -0.3479 -0.6765  0.7757
12363TIP3    H158504   3.974   2.046   5.124  0.2793  1.3293 -1.9610
12363TIP3    H258505   3.855   2.133   5.088 -0.3131  2.0941  1.5143
12364TIP3   OH258506   3.527   1.757  15.991  0.5792 -0.6872 -0.4511
12364TIP3    H158507   3.595   1.810  15.949  0.8454 -0.3749  0.3403
12364TIP3    H258508   3.476   1.720  15.919  1.3088 -0.5510 -1.0459
12365TIP3   OH258509   0.310   2.050   3.158 -0.0282 -0.3824 -0.6477
12365TIP3    H158510   0.255   1.973   3.143  1.5015 -1.2040 -2.4661
12365TIP3    H258511   0.252   2.113   3.201 -1.6034 -2.1751 -0.0150
12366TIP3   OH258512   1.086   1.016  13.875  0.6511  0.0708  0.5062
12366TIP3    H158513   1.027   1.083  13.841 -0.1450 -0.0409  1.6262
12366TIP3    H258514   1.095   0.954  13.803 -1.9397 -0.7826  0.8113
12367TIP3   OH258515   1.561   3.791  13.469  0.1040 -0.2041 -0.0758
12367TIP3    H158516   1.533   3.882  13.463 -1.8092 -0.8147 -1.7615
12367TIP3    H258517   1.600   3.783  13.556 -0.7843  1.9396  0.5793
12368TIP3   OH258518   5.186   4.887   2.185  0.0084 -0.2774 -0.0070
12368TIP3    H158519   5.252   4.839   2.136 -1.0530 -0.1043 -1.6782
12368TIP3    H258520   5.103   4.850   2.155 -0.7225  0.7255  0.7206
12369TIP3   OH258521   2.175   1.884   2.690 -0.0079  0.1295 -0.5881
12369TIP3    H158522   2.136   1.799   2.712 -2.6861  1.4057  0.0704
12369TIP3    H258523   2.201   1.921   2.775  0.1124  0.4247 -0.7525
12370TIP3   OH258524   5.178   3.014   4.161 -0.3164 -0.2698 -0.1207
12370TIP3    H158525   5.171   3.096   4.210 -1.0843 -0.4082  0.0138
12370TIP3    H258526   5.236   3.035   4.088 -3.2475  1.4285 -2.1687
12371TIP3   OH258527   4.728   3.501  15.662  0.2804 -0.0713 -0.5340
12371TIP3    H158528   4.772   3.436  15.718  0.9821 -0.0250 -1.0202
12371TIP3    H258529   4.658   3.451  15.620  0.3830 -0.3488 -0.3830
12372TIP3   OH258530   5.424   4.411  15.297 -0.3615  0.2591  0.4670
12372TIP3    H158531   5.489   4.395  15.228  0.8152 -1.3843  1.8911
12372TIP3    H258532   5.461   4.482  15.349 -0.8888  0.9738 -0.1065
12373TIP3   OH258533   5.525   4.808   2.746 -0.4401 -0.1402  0.2100
12373TIP3    H158534   5.511   4.806   2.652 -0.6584  0.7932  0.2109
12373TIP3    H258535   5.592   4.742   2.762  0.1526  0.2290 -0.6939
12374TIP3   OH258536   1.575   1.830  15.962 -0.5528  0.0154  0.6742
12374TIP3    H158537   1.643   1.811  15.897 -1.0588 -0.5218  0.2994
12374TIP3    H258538   1.616   1.895  16.019 -0.3780  1.1292 -0.6526
12375TIP3   OH258539   0.099   5.296   4.102 -0.0130  0.5131 -0.2485
12375TIP3    H158540   0.021   5.345   4.129  1.4436  1.8546  1.7980
12375TIP3    H258541   0.169   5.361   4.102  1.0096 -0.4363 -3.0109
12376TIP3   OH258542   1.943   3.798  12.602  0.3133 -0.5335  0.0378
12376TIP3    H158543   1.951   3.703  12.601 -0.7068 -0.6526 -1.4805
12376TIP3    H258544   1.849   3.814  12.592  0.3563  0.6472  1.2973
12377TIP3   OH258545   0.091   5.921  13.832 -0.3363 -0.2005  0.7583
12377TIP3    H158546   0.112   5.864  13.758  0.0909 -0.3735  1.0113
12377TIP3    H258547   0.137   5.883  13.906 -0.3427  0.2679  1.0068
12378TIP3   OH258548   5.464   1.617   0.829  0.4375  0.0586  0.4436
12378TIP3    H158549   5.512   1.575   0.758  0.5565  0.1246  0.4851
12378TIP3    H258550   5.455   1.708   0.802 -1.9593 -0.4568 -0.8049
12379TIP3   OH258551   0.914   2.376  13.514  0.2202  0.3294 -0.1726
12379TIP3    H158552   0.874   2.330  13.588 -0.1299  1.9102  0.6572
12379TIP3    H258553   0.841   2.414  13.466  0.5523  0.8030 -0.3164
12380TIP3   OH258554   3.689   4.591   2.143  0.1149 -0.5374  0.2928
12380TIP3    H158555   3.618   4.584   2.207  0.5874 -0.8714  0.7967
12380TIP3    H258556   3.695   4.685   2.123 -0.3338 -0.4868  0.3948
12381TIP3   OH258557   0.206   3.535  13.806 -0.3054 -0.1673 -0.1409
12381TIP3    H158558   0.211   3.439  13.811 -2.0725 -0.3837 -1.4448
12381TIP3    H258559   0.116   3.553  13.781  0.5189  1.7237 -2.0672
12382TIP3   OH258560   5.640   1.697   0.355  0.3193  0.3763 -0.1035
12382TIP3    H158561   5.671   1.768   0.411 -0.8854  0.5065  0.4454
12382TIP3    H258562   5.588   1.740   0.287  1.0919  0.1519 -0.8480
12383TIP3   OH258563   6.472   6.386  11.903 -0.5036  0.1430 -0.1608
12383TIP3    H158564   6.429   6.453  11.956 -0.2564 -1.6718  2.5015
12383TIP3    H258565   6.566   6.405  11.912 -0.4750  1.3506 -2.2087
12384TIP3   OH258566   2.491   6.307  13.859 -0.3980 -0.1391  0.3568
12384TIP3    H158567   2.432   6.263  13.798  0.9947  0.1231 -1.2548
12384TIP3    H258568   2.548   6.237  13.892  0.3680  0.0611 -0.4906
12385TIP3   OH258569   1.060   2.390  12.153  0.4552 -0.3464  0.4447
12385TIP3    H158570   0.994   2.384  12.222  0.2919 -0.3000  0.2923
12385TIP3    H258571   1.119   2.316  12.169 -0.6792 -1.4919 -0.5058
12386TIP3   OH258572   4.586   5.789   0.297  0.3943 -0.4699 -0.4701
12386TIP3    H158573   4.581   5.707   0.347  0.6559 -0.3087 -0.1840
12386TIP3    H258574   4.538   5.853   0.350  1.8860  0.0583  0.2709
12387TIP3   OH258575   1.352   2.598  16.299  0.6808 -0.0087 -0.0502
12387TIP3    H158576   1.298   2.545  16.358 -1.0980 -0.2270 -1.7912
12387TIP3    H258577   1.426   2.541  16.277  0.6603 -0.4158  0.8850
12388TIP3   OH258578   2.874   6.129   2.986  0.0546 -0.2070 -0.1665
12388TIP3    H158579   2.815   6.130   2.910 -2.6080 -0.9430  1.7178
12388TIP3    H258580   2.874   6.037   3.015  0.9833  0.0633  0.7477
12389TIP3   OH258581   5.931   4.875   2.891  0.0340  0.3075 -0.3654
12389TIP3    H158582   5.853   4.823   2.869 -0.0069  0.0876  0.3077
12389TIP3    H258583   6.001   4.837   2.838  0.1572 -0.8768  0.6334
12390TIP3   OH258584   2.060   3.346  11.827  0.0937 -0.2091 -0.2937
12390TIP3    H158585   1.996   3.394  11.776 -1.6169 -0.5013  1.4784
12390TIP3    H258586   2.109   3.413  11.874 -0.9509 -0.0785  0.6419
12391TIP3   OH258587   3.625   6.594  11.051  0.2710  0.4589  0.0033
12391TIP3    H158588   3.553   6.644  11.012  0.0709  0.2551  0.1116
12391TIP3    H258589   3.656   6.538  10.980  1.0717  1.3529 -0.3789
12392TIP3   OH258590   5.166   4.823   2.448  0.2140  0.1992 -0.3630
12392TIP3    H158591   5.178   4.869   2.364  0.7450  0.1610 -0.3141
12392TIP3    H258592   5.152   4.894   2.511 -0.1174  0.2322 -0.4744
12393TIP3   OH258593   4.695   1.932  11.724  0.4245  0.0386  0.3434
12393TIP3    H158594   4.737   1.853  11.759  0.1330 -0.4335 -0.3421
12393TIP3    H258595   4.765   1.997  11.720  0.8303 -0.3967  0.2910
12394TIP3   OH258596   6.059   4.645   1.795  0.3566  0.0468 -0.4180
12394TIP3    H158597   5.975   4.656   1.751  0.9654 -0.2122 -1.6971
12394TIP3    H258598   6.097   4.567   1.754  1.2372  0.1816  0.1207
12395TIP3   OH258599   5.053   4.120   2.059  0.0356  0.2802 -0.1358
12395TIP3    H158600   5.022   4.201   2.017  0.8790  0.7749  0.1742
12395TIP3    H258601   5.131   4.096   2.009  1.5351  1.3225  1.6189
12396TIP3   OH258602   4.472   1.679  16.535 -0.4437 -0.3285  0.2129
12396TIP3    H158603   4.388   1.724  16.526  0.2948  0.7353 -2.2855
12396TIP3    H258604   4.496   1.655  16.446  2.0245 -0.3890  0.8189
12397TIP3   OH258605   2.277   0.271   4.644  0.1223  0.3814 -0.5348
12397TIP3    H158606   2.197   0.306   4.684  0.2406  0.9134 -0.7506
12397TIP3    H258607   2.320   0.223   4.714 -0.2849  0.2699 -0.3585
12398TIP3   OH258608   1.991   3.073   5.786  0.2259 -0.2438 -0.7865
12398TIP3    H158609   2.016   2.991   5.743 -1.0125 -0.4965 -1.0684
12398TIP3    H258610   1.926   3.047   5.851  1.6101  0.2211  0.8729
12399TIP3   OH258611   0.967   2.899   0.804  0.0863  0.0344  0.3207
12399TIP3    H158612   0.898   2.941   0.854  0.5786  0.4225  0.6822
12399TIP3    H258613   0.948   2.805   0.811 -2.7631  0.1453 -2.9366
12400TIP3   OH258614   0.182   3.276   1.459 -0.4848 -0.2980  0.4145
12400TIP3    H158615   0.228   3.283   1.542 -1.5393 -1.8012  1.1731
12400TIP3    H258616   0.116   3.208   1.473 -1.6354  0.3953 -1.2169
12401TIP3   OH258617   5.168   6.192  11.314  0.3896 -0.3309 -0.3745
12401TIP3    H158618   5.230   6.265  11.304  0.8423 -0.5906  0.4469
12401TIP3    H258619   5.090   6.232  11.351  0.4473 -0.1735 -0.4213
12402TIP3   OH258620   4.378   2.112   0.232  0.6745  0.3093 -0.1263
12402TIP3    H158621   4.464   2.070   0.229  0.5165  0.0266 -0.8941
12402TIP3    H258622   4.334   2.082   0.153 -0.8140 -0.9888  1.1281
12403TIP3   OH258623   5.463   3.988  15.656 -0.0573 -0.3988  0.2371
12403TIP3    H158624   5.454   4.071  15.608 -1.2016 -0.7844 -0.2594
12403TIP3    H258625   5.552   3.958  15.635 -0.4519 -0.4630 -1.5423
12404TIP3   OH258626   0.781   4.906   0.341 -0.2126  0.1852  0.6753
12404TIP3    H158627   0.816   4.933   0.256  0.9522 -0.9428  0.7800
12404TIP3    H258628   0.689   4.887   0.324  0.7844 -3.7726 -1.2844
12405TIP3   OH258629   2.945   3.034   2.777 -0.5560  0.5412  0.6892
12405TIP3    H158630   2.885   3.109   2.773  1.9211  2.6449 -0.1998
12405TIP3    H258631   3.027   3.068   2.741 -0.0538 -3.4497 -2.5824
12406TIP3   OH258632   0.796   3.397  14.758  1.0342 -0.6112 -1.1641
12406TIP3    H158633   0.702   3.387  14.744  1.1698 -0.0599 -2.6316
12406TIP3    H258634   0.836   3.366  14.676  1.9796  1.5830 -1.6113
12407TIP3   OH258635   1.627   4.100  15.289  0.0803  0.0692 -0.2022
12407TIP3    H158636   1.542   4.067  15.260 -0.9313  2.5543 -0.3103
12407TIP3    H258637   1.658   4.033  15.350 -2.8652 -0.0845  1.3336
12408TIP3   OH258638   5.467   6.546   1.520  0.1896  0.1627  0.0555
12408TIP3    H158639   5.498   6.622   1.470  1.5584  1.0176  2.0812
12408TIP3    H258640   5.432   6.584   1.601  1.2823 -1.3844  1.2977
12409TIP3   OH258641   3.450   4.128  12.937  0.5082 -0.2302 -0.1642
12409TIP3    H158642   3.493   4.213  12.932  1.0994 -0.3102  2.3986
12409TIP3    H258643   3.515   4.066  12.904  0.4114  0.1776 -1.1626
12410TIP3   OH258644   5.515   6.727   1.238 -0.0501  0.4116  0.2263
12410TIP3    H158645   5.550   6.638   1.236 -0.0667  0.1910  3.5534
12410TIP3    H258646   5.425   6.718   1.208  0.2812 -0.4820 -0.5445
12411TIP3   OH258647   4.779   5.156   0.649 -0.2106  0.4965  0.0538
12411TIP3    H158648   4.718   5.084   0.634 -0.8968  0.7967  1.2577
12411TIP3    H258649   4.749   5.226   0.589 -0.0154  0.0707 -0.5514
12412TIP3   OH258650   1.426   4.882  13.171 -0.0371  0.4990  0.2334
12412TIP3    H158651   1.513   4.919  13.185 -1.0549  2.8991  0.8865
12412TIP3    H258652   1.384   4.887  13.257 -1.1996  0.4922 -0.3170
12413TIP3   OH258653   2.650   5.620   1.774  0.3892 -0.3857 -0.8016
12413TIP3    H158654   2.632   5.675   1.699  0.3251 -0.8331 -1.1175
12413TIP3    H258655   2.600   5.540   1.758 -1.6744  0.4803  0.9275
12414TIP3   OH258656   4.767   1.844  12.381 -0.5757 -0.6270 -0.2693
12414TIP3    H158657   4.799   1.929  12.350 -1.6168  0.1175  0.6182
12414TIP3    H258658   4.673   1.858  12.396 -0.5243 -1.5701  1.0954
12415TIP3   OH258659   2.926   5.721  11.762 -0.1301  0.0420  0.2731
12415TIP3    H158660   2.865   5.680  11.701 -0.4274 -0.6917  1.0496
12415TIP3    H258661   2.950   5.651  11.823 -0.9242  1.0924  1.8469
12416TIP3   OH258662   2.229   3.721   1.351  0.7901  0.6175 -0.3516
12416TIP3    H158663   2.137   3.745   1.359  0.7406  1.1082 -2.1231
12416TIP3    H258664   2.270   3.795   1.306  1.8806  0.0348 -0.3594
12417TIP3   OH258665   1.415   2.703   1.265  0.1616  0.0261  0.2427
12417TIP3    H158666   1.469   2.781   1.277  1.0019 -0.5716  0.3662
12417TIP3    H258667   1.441   2.644   1.336 -0.4575 -0.3762  0.1409
12418TIP3   OH258668   6.384   4.920  12.027  0.6039  0.4206 -0.1041
12418TIP3    H158669   6.426   4.848  12.076  1.3154  0.3178 -0.8448
12418TIP3    H258670   6.291   4.909  12.045  0.8337  0.3635  1.2006
12419TIP3   OH258671   1.185   6.521   1.193 -0.3416  0.1825 -0.2343
12419TIP3    H158672   1.186   6.546   1.286  0.7408 -0.8528  0.0569
12419TIP3    H258673   1.252   6.576   1.153 -2.0367  1.9406 -0.8129
12420TIP3   OH258674   4.300   5.202   5.433 -0.1192 -0.2764  0.4659
12420TIP3    H158675   4.263   5.289   5.447  1.0265  0.1250  1.1648
12420TIP3    H258676   4.338   5.206   5.346  0.1112 -0.0005  0.5757
12421TIP3   OH258677   4.285   3.463  13.527 -0.2272 -0.1018 -0.2236
12421TIP3    H158678   4.292   3.503  13.440  3.5223  0.3286  0.1160
12421TIP3    H258679   4.284   3.538  13.587 -0.9832 -0.4460  0.2120
12422TIP3   OH258680   1.757   2.996   0.500 -0.2783  0.1894 -0.1453
12422TIP3    H158681   1.806   2.930   0.549 -1.3268  0.3826  1.2104
12422TIP3    H258682   1.667   2.965   0.502 -0.6291  1.1615 -0.3355
12423TIP3   OH258683   2.092   5.748   5.184  0.6430 -0.0669  0.1021
12423TIP3    H158684   2.180   5.721   5.210  0.3022 -0.4809  0.8631
12423TIP3    H258685   2.038   5.730   5.261 -1.0658 -4.3696 -1.7627
12424TIP3   OH258686   5.216   1.261  13.087  0.2666  0.5831  0.2281
12424TIP3    H158687   5.191   1.271  13.179  2.2077 -1.1203  1.0071
12424TIP3    H258688   5.165   1.187  13.056 -1.6434  2.1771 -0.6291
12425TIP3   OH258689   2.426   2.670   5.503  0.2451 -0.0468 -0.3058
12425TIP3    H158690   2.453   2.758   5.474  0.0841  1.0697  2.6061
12425TIP3    H258691   2.334   2.665   5.479  0.1552  0.7330 -0.1666
12426TIP3   OH258692   6.575   4.342   2.711  0.5469 -0.1304  0.2396
12426TIP3    H158693   6.647   4.289   2.677 -0.1976 -0.7191 -0.4888
12426TIP3    H258694   6.611   4.387   2.787  1.5730 -0.6845  0.0957
12427TIP3   OH258695   1.105   0.221  13.135  0.3093 -0.7609 -0.0134
12427TIP3    H158696   1.027   0.253  13.179 -0.7058 -1.7456 -1.0223
12427TIP3    H258697   1.176   0.274  13.170 -0.8442  0.3702  0.7003
12428TIP3   OH258698   4.102   0.763   3.724  0.5198  0.0333  0.3240
12428TIP3    H158699   4.119   0.836   3.664 -1.1492  1.3219  1.3152
12428TIP3    H258700   4.187   0.721   3.735  1.6261  2.0463 -0.0186
12429TIP3   OH258701   0.446   1.044   4.102  0.2715 -0.3100  0.1746
12429TIP3    H158702   0.494   0.962   4.106 -0.1683 -0.5491  3.7801
12429TIP3    H258703   0.513   1.112   4.114  0.3185 -0.2940 -0.1656
12430TIP3   OH258704   5.441   6.126  17.178 -0.0725 -0.3203  0.0338
12430TIP3    H158705   5.452   6.091  17.266  2.1651 -0.6251 -0.3106
12430TIP3    H258706   5.446   6.221  17.188 -0.3514 -0.3322  0.2854
12431TIP3   OH258707   5.543   3.667   0.653  0.3606  0.4134 -0.0074
12431TIP3    H158708   5.579   3.662   0.565 -0.6334  0.5974 -0.4301
12431TIP3    H258709   5.466   3.723   0.645 -1.0197 -1.3006  0.5184
12432TIP3   OH258710   1.015   1.228   0.222  0.1900 -0.4261 -0.3339
12432TIP3    H158711   0.954   1.282   0.272 -0.0809 -1.2533  0.2507
12432TIP3    H258712   1.096   1.279   0.221 -0.1578  0.1477 -0.1017
12433TIP3   OH258713   6.020   5.787  11.149  1.0363  0.1764  0.0327
12433TIP3    H158714   6.003   5.812  11.058  0.5338 -0.6581 -0.1188
12433TIP3    H258715   6.010   5.868  11.199  3.8988  1.2521 -0.9306
12434TIP3   OH258716   1.796   1.920  10.699  0.1232 -0.2573  0.3000
12434TIP3    H158717   1.722   1.868  10.730 -0.1146  1.0420  2.1258
12434TIP3    H258718   1.762   1.966  10.622 -0.5124 -0.7540  0.2773
12435TIP3   OH258719   3.433   6.192   2.739 -0.6064  0.5236  0.0224
12435TIP3    H158720   3.407   6.137   2.813 -0.7538 -0.8003 -0.9807
12435TIP3    H258721   3.474   6.269   2.780  0.6539 -0.8388  1.4808
12436TIP3   OH258722   1.758   0.754   2.532 -0.4567  0.5507  0.3002
12436TIP3    H158723   1.732   0.682   2.474 -1.3023  2.9116 -2.5294
12436TIP3    H258724   1.750   0.718   2.620 -1.3514 -2.6199 -0.9176
12437TIP3   OH258725   1.296   2.738  15.998  0.0589  0.1808  0.3135
12437TIP3    H158726   1.222   2.752  15.939  0.0209  0.3741  0.4065
12437TIP3    H258727   1.332   2.654  15.971 -1.1216 -0.6741  1.2464
12438TIP3   OH258728   6.365   2.980  17.251  0.2108 -0.4400 -0.0308
12438TIP3    H158729   6.369   3.053  17.189  1.8515  1.0126  1.6669
12438TIP3    H258730   6.272   2.970  17.271 -0.2143 -0.0531 -1.6773
12439TIP3   OH258731   1.927   1.512  13.047 -0.0759  0.1621  0.0061
12439TIP3    H158732   1.986   1.545  13.114 -0.8339  0.0238  0.7530
12439TIP3    H258733   1.892   1.430  13.083 -3.3232  1.8613  1.1612
12440TIP3   OH258734   0.838   4.593   3.506  0.1177 -0.3046  0.3879
12440TIP3    H158735   0.897   4.618   3.435 -0.8227  1.2064  0.0822
12440TIP3    H258736   0.894   4.588   3.584  0.9235 -0.6120 -0.2042
12441TIP3   OH258737   4.178   3.431  12.163  0.2593 -0.1248 -0.1737
12441TIP3    H158738   4.130   3.448  12.244 -1.3625  0.2164 -1.1536
12441TIP3    H258739   4.118   3.379  12.110  0.1925  1.8486 -2.1872
12442TIP3   OH258740   2.550   6.672  12.970  0.5549 -0.4845 -0.3608
12442TIP3    H158741   2.481   6.605  12.974 -1.8909  1.8743  0.5933
12442TIP3    H258742   2.554   6.696  12.877  0.6320 -1.1717 -0.5375
12443TIP3   OH258743   0.229   2.978   5.457 -0.5871  0.0686  0.0589
12443TIP3    H158744   0.324   2.966   5.463 -0.3733  1.9973  1.7957
12443TIP3    H258745   0.193   2.895   5.490  0.5066 -0.3568  0.2421
12444TIP3   OH258746   2.003   5.671   3.077 -0.2558 -0.0085  0.0090
12444TIP3    H158747   2.045   5.744   3.122 -2.6294  2.1632 -1.0505
12444TIP3    H258748   1.911   5.674   3.105 -0.9616 -0.9899 -1.9816
12445TIP3   OH258749   6.150   0.003   4.604  0.1447 -0.0753  0.0915
12445TIP3    H158750   6.133   0.096   4.622  0.4532 -0.2092  1.1957
12445TIP3    H258751   6.120  -0.042   4.684  1.3024 -0.7746  0.1517
12446TIP3   OH258752   3.633   1.725   4.070  0.3571 -0.2168 -0.2712
12446TIP3    H158753   3.722   1.721   4.104 -0.1094 -2.2100  0.9249
12446TIP3    H258754   3.587   1.655   4.118 -1.6224  0.2059 -1.4669
12447TIP3   OH258755   6.609   3.205  11.239  0.0987 -0.3913 -0.3995
12447TIP3    H158756   6.548   3.273  11.212  0.2889 -0.0930 -0.0853
12447TIP3    H258757   6.576   3.125  11.197 -1.1435 -0.4661  0.6675
12448TIP3   OH258758   0.719   2.841   3.869  0.0598 -0.2526  0.1331
12448TIP3    H158759   0.804   2.886   3.872 -0.5330  0.9983 -0.7482
12448TIP3    H258760   0.655   2.912   3.863 -0.9359 -1.2183 -1.2516
12449TIP3   OH258761   1.954   4.542   1.956  0.0934 -0.1418  0.3427
12449TIP3    H158762   1.980   4.630   1.984 -1.9879  0.5553  0.2628
12449TIP3    H258763   1.922   4.553   1.867  1.1216 -1.2572 -0.1871
12450TIP3   OH258764   2.568   5.838  11.582 -0.2753  0.0738 -0.4112
12450TIP3    H158765   2.497   5.813  11.523  0.0331  1.3336 -1.3661
12450TIP3    H258766   2.642   5.858  11.524  0.3636  0.3194  0.4617
12451TIP3   OH258767   4.832   6.600  10.858  0.0192  0.1506  0.1802
12451TIP3    H158768   4.861   6.645  10.937 -1.2397  0.7247  0.3357
12451TIP3    H258769   4.895   6.529  10.846  1.2037  1.0761  0.7478
12452TIP3   OH258770   2.163   2.884   3.233 -0.2859  0.0089 -0.7122
12452TIP3    H158771   2.247   2.854   3.268 -0.2110  1.7580  0.7648
12452TIP3    H258772   2.127   2.808   3.188  1.5590 -1.1187 -0.3849
12453TIP3   OH258773   2.925   2.264   0.383 -0.7326 -0.1877  0.3039
12453TIP3    H158774   3.007   2.312   0.369 -0.5656 -0.6326 -0.2564
12453TIP3    H258775   2.952   2.176   0.406 -1.0514 -0.4820 -0.4068
12454TIP3   OH258776   0.291   0.452   3.972 -0.1374  0.4189 -0.0450
12454TIP3    H158777   0.201   0.481   3.983 -0.2647 -0.6100  1.9943
12454TIP3    H258778   0.292   0.362   4.004  1.3187 -0.1305 -1.4633
12455TIP3   OH258779   5.413   5.544  11.290 -0.7179 -0.3914 -0.0385
12455TIP3    H158780   5.422   5.451  11.269 -2.4969 -1.2228  2.3400
12455TIP3    H258781   5.503   5.573  11.309  0.0252 -1.2428 -2.0076
12456TIP3   OH258782   5.654   5.350   2.392  0.0939 -0.1912 -0.1612
12456TIP3    H158783   5.652   5.396   2.308 -1.3316 -0.8671 -0.5254
12456TIP3    H258784   5.610   5.409   2.453  0.4344 -0.0403 -0.0559
12457TIP3   OH258785   3.374   1.279   5.158  0.0198 -0.0615  0.7788
12457TIP3    H158786   3.396   1.358   5.109  4.5105 -1.5540 -0.0903
12457TIP3    H258787   3.333   1.221   5.095  2.1666 -0.4881 -0.3322
12458TIP3   OH258788   0.330   5.214  15.453 -0.1985 -0.0244 -0.1758
12458TIP3    H158789   0.354   5.219  15.360 -1.1242 -0.1201 -0.4248
12458TIP3    H258790   0.235   5.219  15.454 -0.1459  1.5493  0.8907
12459TIP3   OH258791   0.023   1.938  14.191 -0.4287 -0.1220  0.2312
12459TIP3    H158792   0.017   2.023  14.147  0.0126 -0.0515  0.3092
12459TIP3    H258793   0.115   1.914  14.185  0.1082  0.8803  2.9676
12460TIP3   OH258794   2.694   5.276  12.398 -0.0305  0.3751 -0.0943
12460TIP3    H158795   2.659   5.365  12.405 -1.6445 -0.0760 -1.6170
12460TIP3    H258796   2.634   5.223  12.450  0.2526  0.0162 -0.1330
12461TIP3   OH258797   3.258   3.659   2.931 -0.0616  0.2460 -0.2171
12461TIP3    H158798   3.334   3.714   2.913  1.0229 -1.4833 -1.1819
12461TIP3    H258799   3.246   3.607   2.852 -0.2243 -1.8035  1.0608
12462TIP3   OH258800   4.518   3.887   5.428  0.0470  0.1627 -0.1018
12462TIP3    H158801   4.520   3.851   5.339 -0.1634  0.0827 -0.0754
12462TIP3    H258802   4.594   3.847   5.471 -0.7055 -0.9848  0.2004
12463TIP3   OH258803   1.575   1.444  16.772  0.1647  0.1601  0.1750
12463TIP3    H158804   1.487   1.471  16.799  0.7722  0.9446  1.4940
12463TIP3    H258805   1.565   1.353  16.744 -0.7767 -0.3634  2.0281
12464TIP3   OH258806   6.772   6.513   3.024 -0.9525  0.5887  0.2885
12464TIP3    H158807   6.783   6.444   3.089  1.1751  1.6345  1.1332
12464TIP3    H258808   6.849   6.504   2.967 -1.9351  0.7241 -1.1268
12465TIP3   OH258809   1.424   2.253   1.193 -0.8421 -0.0925 -0.1126
12465TIP3    H158810   1.448   2.176   1.141  1.2494  0.5979 -0.2548
12465TIP3    H258811   1.438   2.326   1.133 -0.9901  0.5317  0.6174
12466TIP3   OH258812   4.580   0.659  15.361 -0.6919  0.0295  0.4488
12466TIP3    H158813   4.661   0.710  15.358 -1.6985  1.6622 -0.8246
12466TIP3    H258814   4.518   0.714  15.409 -2.1404  0.6208 -1.9314
12467TIP3   OH258815   6.526   5.993   2.746  0.6911  0.2695 -0.6192
12467TIP3    H158816   6.509   6.037   2.662 -1.4422 -0.3442 -0.5648
12467TIP3    H258817   6.445   5.946   2.765  1.3559 -0.1171  1.4998
12468TIP3   OH258818   1.208   0.835   1.551  0.0556  0.3395 -0.3629
12468TIP3    H158819   1.114   0.842   1.531  0.6608  0.5216 -3.7084
12468TIP3    H258820   1.235   0.752   1.513  1.4831  0.8805 -0.6016
12469TIP3   OH258821   1.947   5.724  13.705  0.2127  0.0889 -0.2391
12469TIP3    H158822   1.934   5.816  13.730  1.0671 -0.0865  0.9201
12469TIP3    H258823   1.863   5.682  13.725  0.1600  0.4104  0.2320
12470TIP3   OH258824   3.015   3.763   0.641  0.0252 -0.0445 -0.0741
12470TIP3    H158825   2.950   3.796   0.703  0.1542  0.2315 -0.0870
12470TIP3    H258826   3.050   3.841   0.598 -0.0503 -0.2330 -0.4844
12471TIP3   OH258827   0.252   2.348   4.071 -0.1301 -0.7314  0.0607
12471TIP3    H158828   0.185   2.375   4.008  0.5142 -1.0335 -0.7720
12471TIP3    H258829   0.301   2.427   4.089 -1.6690 -0.1049  1.9463
12472TIP3   OH258830   5.077   4.518   3.044 -0.4142  0.2354  0.0227
12472TIP3    H158831   5.138   4.463   2.996  0.1888  0.2609  0.7440
12472TIP3    H258832   4.992   4.477   3.029  0.1772 -1.7598  1.6784
12473TIP3   OH258833   0.184   1.458   6.688  0.0364  0.3549 -0.2113
12473TIP3    H158834   0.218   1.453   6.777  0.9497 -1.7356 -0.6214
12473TIP3    H258835   0.091   1.438   6.696  0.2282 -0.3823  0.2113
12474TIP3   OH258836   3.682   0.430   1.772  0.0460  0.1342  0.3401
12474TIP3    H158837   3.627   0.352   1.765 -0.4778  0.6452 -2.2064
12474TIP3    H258838   3.696   0.442   1.866 -1.4915 -1.8776  0.8747
12475TIP3   OH258839   4.197   0.555  14.445 -0.0607 -0.1962 -0.6974
12475TIP3    H158840   4.251   0.491  14.491 -0.4260 -0.2518 -0.3361
12475TIP3    H258841   4.118   0.562  14.499 -0.2709  0.1242 -1.0452
12476TIP3   OH258842   3.707   1.613   0.093  0.4701 -0.8804 -0.2332
12476TIP3    H158843   3.765   1.684   0.119 -0.0196 -0.7829  0.6182
12476TIP3    H258844   3.657   1.649   0.019 -0.1259 -0.1462  0.5056
12477TIP3   OH258845   3.920   3.506   5.036  0.1476  0.0426 -0.1371
12477TIP3    H158846   3.994   3.534   4.983  1.0288 -0.8134  0.6043
12477TIP3    H258847   3.933   3.412   5.048  0.0130  0.2129  1.6384
12478TIP3   OH258848   5.903   4.352  13.023  0.2156 -0.5213 -0.0015
12478TIP3    H158849   5.830   4.412  13.007  0.3428 -0.0203  1.2013
12478TIP3    H258850   5.865   4.265  13.018 -0.5379 -0.2590  0.8982
12479TIP3   OH258851   2.084   3.839   5.494 -0.1060 -0.2467  0.5360
12479TIP3    H158852   2.081   3.829   5.399  2.0494 -0.1038  0.3954
12479TIP3    H258853   2.008   3.790   5.526  0.9417 -3.1959 -1.0871
12480TIP3   OH258854   5.155   6.756   0.132 -0.0037 -0.0219  0.1119
12480TIP3    H158855   5.245   6.739   0.104 -0.2599  1.1571 -1.6111
12480TIP3    H258856   5.126   6.674   0.172  1.7686 -0.4705  0.5396
12481TIP3   OH258857   0.356   2.612   1.631  0.3599 -0.3276  0.0748
12481TIP3    H158858   0.313   2.527   1.629 -1.0936  0.3903 -0.8493
12481TIP3    H258859   0.376   2.631   1.540 -1.8310  1.4889 -0.1174
12482TIP3   OH258860   5.080   4.037  14.420 -0.0327  0.1432 -0.3623
12482TIP3    H158861   5.143   4.108  14.436 -1.0272  0.6305  1.8490
12482TIP3    H258862   5.000   4.081  14.394  0.0177 -0.3556 -1.3975
12483TIP3   OH258863   1.649   6.036   5.872  0.0623  0.5965  0.4379
12483TIP3    H158864   1.676   5.986   5.794 -1.8534  3.1909 -2.1298
12483TIP3    H258865   1.555   6.019   5.880 -0.0833  1.6455  1.1568
12484TIP3   OH258866   0.816   2.277  15.579 -0.4064 -0.6717  0.0865
12484TIP3    H158867   0.740   2.233  15.618 -0.2271  0.4484  1.7984
12484TIP3    H258868   0.891   2.233  15.618 -0.2233  0.8536  1.5871
12485TIP3   OH258869   0.521   0.672  15.331  0.0294  0.1368 -0.3362
12485TIP3    H158870   0.537   0.590  15.377 -0.9444  0.7009  1.0813
12485TIP3    H258871   0.462   0.721  15.389 -0.4077  1.3224 -1.7203
12486TIP3   OH258872   2.356   2.605   2.334  0.4727  0.0348 -0.0536
12486TIP3    H158873   2.330   2.530   2.388 -1.4908  0.6239 -0.1356
12486TIP3    H258874   2.345   2.576   2.244 -0.3671  0.4319 -0.0855
12487TIP3   OH258875   1.029   4.984  11.488 -0.2574  0.5562  0.4596
12487TIP3    H158876   1.029   5.046  11.561 -1.9899 -0.0160  1.0000
12487TIP3    H258877   1.091   5.020  11.425  1.3030  1.0525  2.2072
12488TIP3   OH258878   5.180   6.255   1.307 -0.7758 -0.3882  0.2193
12488TIP3    H158879   5.262   6.206   1.310 -0.5055  0.0150 -0.3298
12488TIP3    H258880   5.144   6.248   1.395  0.6361  0.7604  0.9428
12489TIP3   OH258881   2.744   4.637  16.686 -0.1773 -0.2845 -0.4327
12489TIP3    H158882   2.682   4.651  16.614 -0.6968  2.3158  0.4110
12489TIP3    H258883   2.813   4.702  16.671 -0.6465  0.7946  1.7316
12490TIP3   OH258884   2.393   2.374  14.380  0.4497  0.3111 -0.7818
12490TIP3    H158885   2.362   2.446  14.435  1.3709  0.4400 -0.4098
12490TIP3    H258886   2.488   2.375  14.391  0.5062 -0.7317 -1.0563
12491TIP3   OH258887   6.015   1.931   5.769  0.7771 -0.0966 -0.5410
12491TIP3    H158888   5.923   1.939   5.742  0.2226 -0.0360  1.2786
12491TIP3    H258889   6.028   1.837   5.781  1.0497 -0.1287 -1.0262
12492TIP3   OH258890   3.447   0.703  12.324 -0.1422 -0.8499 -0.1008
12492TIP3    H158891   3.378   0.689  12.259  0.8912 -2.5165 -0.9106
12492TIP3    H258892   3.468   0.797  12.317 -0.2532 -0.9234 -1.9967
12493TIP3   OH258893   5.648   0.104  11.585 -0.2024 -0.0296 -0.2849
12493TIP3    H158894   5.649   0.018  11.627  0.6370  0.6187  1.1064
12493TIP3    H258895   5.691   0.162  11.648 -1.6797  1.6381 -0.7263
12494TIP3   OH258896   2.578   1.038   3.015  0.0987 -0.7413 -0.3467
12494TIP3    H158897   2.572   1.130   2.993  0.9249 -0.4769  0.4665
12494TIP3    H258898   2.488   1.005   3.007 -0.6129  0.6215  1.3909
12495TIP3   OH258899   1.129   6.042  16.988  0.7677 -0.2718  0.1249
12495TIP3    H158900   1.221   6.054  16.964  0.3679  0.9054 -0.9200
12495TIP3    H258901   1.112   6.115  17.049  0.2106  0.2733 -0.6644
12496TIP3   OH258902   4.573   3.597  15.070 -0.4270 -0.1192 -0.5355
12496TIP3    H158903   4.606   3.665  15.128 -1.8462  0.5000 -0.4066
12496TIP3    H258904   4.632   3.523  15.083 -0.9221 -0.1447  2.0459
12497TIP3   OH258905   0.019   4.348   5.068  0.8944 -0.1981 -0.6016
12497TIP3    H158906   0.038   4.254   5.060 -1.5330 -0.7579 -0.3797
12497TIP3    H258907   0.100   4.385   5.103  1.6022 -2.3542  0.2261
12498TIP3   OH258908   2.040   4.681   4.883  0.1216 -0.5799 -0.9600
12498TIP3    H158909   2.049   4.741   4.809 -1.1522 -0.4645 -1.0435
12498TIP3    H258910   1.991   4.731   4.948 -0.0586 -1.1822 -0.6254
12499TIP3   OH258911   2.662   5.929  14.644  0.1175 -0.7458  0.8540
12499TIP3    H158912   2.585   5.987  14.642  0.5333 -0.1972 -1.3030
12499TIP3    H258913   2.625   5.841  14.630 -0.1061 -0.3674 -1.3939
12500TIP3   OH258914   5.126   3.314  14.981  0.3605 -0.5417 -0.3041
12500TIP3    H158915   5.042   3.281  14.947 -0.0204  0.1549 -0.0616
12500TIP3    H258916   5.108   3.405  15.006  1.4099 -0.1211 -1.0215
12501TIP3   OH258917   2.112   5.390  12.215  0.3908 -0.3078  0.1642
12501TIP3    H158918   2.079   5.466  12.263 -1.3201 -0.1081 -1.2085
12501TIP3    H258919   2.152   5.335  12.282 -2.1359 -0.2023  1.9275
12502TIP3   OH258920   0.522   1.331  12.643  0.3628 -0.5535 -0.1594
12502TIP3    H158921   0.479   1.414  12.625  0.3499 -0.4310  0.4199
12502TIP3    H258922   0.510   1.317  12.736 -1.1414 -2.0603 -0.5381
12503TIP3   OH258923   0.482   0.733   5.709  0.2971 -0.2693 -0.2347
12503TIP3    H158924   0.534   0.672   5.761 -1.2955 -2.1438 -0.7025
12503TIP3    H258925   0.541   0.807   5.692  1.7695 -0.9066  1.7490
12504TIP3   OH258926   4.743   6.347   6.122 -0.4265 -0.5196 -0.1800
12504TIP3    H158927   4.671   6.327   6.182  0.2978  1.0884  1.3141
12504TIP3    H258928   4.822   6.323   6.171  0.2139  1.3268 -0.2195
12505TIP3   OH258929   0.992   4.462  16.893  0.2792 -0.3325 -0.8665
12505TIP3    H158930   1.071   4.409  16.904  0.5410  0.2869  0.4897
12505TIP3    H258931   0.995   4.492  16.802  1.0389 -1.2005 -1.1361
12506TIP3   OH258932   3.239   0.377  16.492 -0.5946  0.1595  0.1677
12506TIP3    H158933   3.290   0.439  16.544 -2.5344  1.4719  0.6136
12506TIP3    H258934   3.159   0.362  16.543 -1.2378 -0.8566 -1.0611
12507TIP3   OH258935   1.419   1.224   0.529 -0.1693  0.3265 -0.0813
12507TIP3    H158936   1.506   1.187   0.542 -0.1945  0.6009  0.9805
12507TIP3    H258937   1.365   1.151   0.499 -0.0921 -0.4080  1.4650
12508TIP3   OH258938   5.756   6.128   0.519  0.9214  0.2637  0.5462
12508TIP3    H158939   5.825   6.094   0.577  0.8826 -0.5201  0.1484
12508TIP3    H258940   5.773   6.085   0.435  0.2283  0.4255  0.3237
12509TIP3   OH258941   0.949   4.834   5.223 -0.1631 -0.4679 -0.5210
12509TIP3    H158942   0.903   4.858   5.142 -1.2012 -0.6862 -0.0078
12509TIP3    H258943   0.928   4.741   5.235  1.5456 -0.9565 -0.9989
12510TIP3   OH258944   1.817   2.535  15.432  0.3007 -0.3974 -0.0603
12510TIP3    H158945   1.902   2.533  15.477  0.1607  0.4859  0.2521
12510TIP3    H258946   1.838   2.565  15.343  0.3329 -0.3038 -0.0213
12511TIP3   OH258947   5.707   5.090   1.287  0.0990 -0.2909 -0.5958
12511TIP3    H158948   5.759   5.105   1.366 -2.4318 -2.3853  1.6140
12511TIP3    H258949   5.757   5.024   1.238 -0.3117 -2.2197  1.4448
12512TIP3   OH258950   4.555   2.467   2.944  0.6078 -0.0650  0.0378
12512TIP3    H158951   4.508   2.522   3.007  2.0864  0.3273  0.8279
12512TIP3    H258952   4.549   2.378   2.981  0.2771 -0.0633 -0.0045
12513TIP3   OH258953   0.950   0.485  11.999  0.0367 -0.0373  0.1564
12513TIP3    H158954   0.863   0.495  11.961  0.2430  1.6116  0.0821
12513TIP3    H258955   1.006   0.463  11.925 -0.1520 -0.2064  0.0628
12514TIP3   OH258956   5.217   0.571  17.080 -0.1686 -0.0586  0.4006
12514TIP3    H158957   5.180   0.602  17.163  2.3647 -0.3091  1.7373
12514TIP3    H258958   5.219   0.476  17.089  1.9612 -0.0145  1.0060
12515TIP3   OH258959   1.167   1.349   2.211 -0.5252 -0.7029  0.6436
12515TIP3    H158960   1.100   1.307   2.157 -1.1038 -0.7480  1.3735
12515TIP3    H258961   1.117   1.391   2.282 -0.0357  1.9009 -0.4638
12516TIP3   OH258962   3.319   1.425  14.876 -0.1045 -0.0658  0.1983
12516TIP3    H158963   3.269   1.460  14.802  1.4893 -1.1015 -1.4455
12516TIP3    H258964   3.302   1.487  14.947 -2.4469  0.4600 -0.7058
12517TIP3   OH258965   1.460   0.186   4.142  0.3373  0.2583  0.1049
12517TIP3    H158966   1.479   0.226   4.057  1.4830  0.0900  0.2609
12517TIP3    H258967   1.412   0.106   4.121 -1.5385  1.4137 -0.2365
12518TIP3   OH258968   0.942   2.254   6.598 -0.2756  0.4317  0.2710
12518TIP3    H158969   1.017   2.241   6.656 -0.4060  1.8175  0.8003
12518TIP3    H258970   0.869   2.271   6.657 -0.0811  3.6241 -0.2053
12519TIP3   OH258971   5.603   0.024  12.843  0.3810 -0.0687 -0.0943
12519TIP3    H158972   5.692   0.020  12.808 -0.4088 -0.8910 -2.1566
12519TIP3    H258973   5.551   0.062  12.772 -1.1788 -1.0374  0.4722
12520TIP3   OH258974   4.363   0.915   4.002 -0.2282 -0.5384  0.5878
12520TIP3    H158975   4.339   0.835   3.956 -1.1823  1.0626 -1.9622
12520TIP3    H258976   4.452   0.900   4.033  0.2578 -1.9724 -1.3190
12521TIP3   OH258977   1.998   5.162   0.035  0.2846  0.0557 -0.0869
12521TIP3    H158978   2.013   5.256   0.047  0.7957  0.0572 -0.6716
12521TIP3    H258979   2.064   5.135  -0.029  0.0410 -0.6730 -0.0445
12522TIP3   OH258980   5.607   6.581   2.478  0.0854  0.0851 -0.3129
12522TIP3    H158981   5.546   6.653   2.492 -0.4500 -0.7647  2.1881
12522TIP3    H258982   5.601   6.563   2.384 -1.5459  1.7309 -0.5825
12523TIP3   OH258983   3.151   2.628   2.703 -0.1749 -0.3929  0.5363
12523TIP3    H158984   3.215   2.679   2.753 -1.4295  1.0458  0.7473
12523TIP3    H258985   3.177   2.641   2.612  0.0714 -0.1259  0.6407
12524TIP3   OH258986   5.085   1.641   0.113  0.1464 -0.4788 -0.1555
12524TIP3    H158987   5.152   1.656   0.181 -0.2126  2.1770 -0.2636
12524TIP3    H258988   5.018   1.706   0.131 -1.0304 -1.1712 -1.7894
12525TIP3   OH258989   3.894   0.183   1.862  0.0651 -0.6363  0.5091
12525TIP3    H158990   3.982   0.146   1.866  0.2553 -0.1643  0.7621
12525TIP3    H258991   3.840   0.113   1.826  0.4164 -1.1676  1.0097
12526TIP3   OH258992   5.113   5.891   6.128 -0.1716  0.1014 -0.5737
12526TIP3    H158993   5.152   5.840   6.056 -0.8017  0.8389 -1.4617
12526TIP3    H258994   5.019   5.875   6.119 -0.1680 -1.0059  1.0404
12527TIP3   OH258995   5.710   2.759  15.118 -0.6790 -0.4517  0.4872
12527TIP3    H158996   5.769   2.728  15.186 -1.0889 -1.0272  0.5901
12527TIP3    H258997   5.721   2.698  15.046 -2.8461 -2.0397  1.3784
12528TIP3   OH258998   4.965   5.787   1.959  0.1856  0.0956  0.1025
12528TIP3    H158999   4.907   5.735   2.015  0.7976  0.8344  1.4927
12528TIP3    H259000   4.906   5.831   1.898 -0.3605 -2.0262 -1.0057
12529TIP3   OH259001   5.836   4.651   5.256  0.5136  0.5134 -0.4741
12529TIP3    H159002   5.756   4.663   5.307  0.1178 -0.1399 -0.9239
12529TIP3    H259003   5.868   4.565   5.282  1.0882  0.7810 -0.2834
12530TIP3   OH259004   1.156   3.899   3.073  0.5147  0.2883 -0.0829
12530TIP3    H159005   1.232   3.843   3.090  0.5400  0.1464 -0.6525
12530TIP3    H259006   1.085   3.837   3.057 -0.2739  0.3670  2.6222
12531TIP3   OH259007   6.168   6.222   4.244 -0.0301  0.2405  0.0647
12531TIP3    H159008   6.229   6.221   4.317  1.0265 -0.4694 -0.8011
12531TIP3    H259009   6.161   6.315   4.220 -1.2040  0.6204  1.6800
12532TIP3   OH259010   4.381   0.781  14.844 -0.8029  0.3211  0.3213
12532TIP3    H159011   4.398   0.714  14.778 -2.8062 -0.9278  0.9880
12532TIP3    H259012   4.321   0.841  14.802 -1.0142  0.2794  0.5627
12533TIP3   OH259013   6.369   6.746  14.358  0.0528  0.3161  0.8243
12533TIP3    H159014   6.311   6.822  14.357 -1.8360 -1.0384  1.8492
12533TIP3    H259015   6.353   6.704  14.443  1.1791 -1.1251  0.3737
12534TIP3   OH259016   4.090   2.592   1.771 -0.5273 -0.1480  1.0136
12534TIP3    H159017   4.052   2.668   1.727 -1.8048  0.7491  3.4432
12534TIP3    H259018   4.019   2.528   1.774 -0.2991 -0.3897  1.3259
12535TIP3   OH259019   5.355   3.643  15.775 -0.0558  0.1819 -0.2094
12535TIP3    H159020   5.412   3.692  15.716  0.8413 -0.4549  0.1145
12535TIP3    H259021   5.415   3.592  15.830 -0.9125  0.0016  0.5830
12536TIP3   OH259022   1.235   2.558   3.326  0.4627 -0.9936  0.3411
12536TIP3    H159023   1.153   2.557   3.376 -0.5788 -0.9304 -1.3099
12536TIP3    H259024   1.253   2.466   3.308  2.1389 -1.2406  2.7740
12537TIP3   OH259025   1.120   5.408   4.236  0.2610  0.1702 -0.0543
12537TIP3    H159026   1.084   5.496   4.227 -0.5155 -0.1342 -0.0409
12537TIP3    H259027   1.073   5.357   4.171  1.3370 -0.0510 -0.6650
12538TIP3   OH259028   4.719   2.523  15.892 -0.2212  0.6017 -0.0327
12538TIP3    H159029   4.811   2.548  15.896  0.6419 -2.2435 -0.0763
12538TIP3    H259030   4.713   2.467  15.815 -1.9011  0.3732  0.2287
12539TIP3   OH259031   2.046   6.357  14.412  0.0191 -0.2409 -0.3027
12539TIP3    H159032   2.100   6.281  14.389  3.2597  1.4698  0.9865
12539TIP3    H259033   2.019   6.394  14.327 -1.2827 -2.4641 -0.9488
12540TIP3   OH259034   4.873   6.346  16.566  0.2648  0.0572  0.4408
12540TIP3    H159035   4.790   6.374  16.528 -0.3416 -1.2964  0.6980
12540TIP3    H259036   4.901   6.419  16.621  0.7063  1.6975 -1.8305
12541TIP3   OH259037   2.639   5.029   2.867 -0.1294  0.0779 -0.5695
12541TIP3    H159038   2.566   4.986   2.912 -0.1481  0.2233 -0.4647
12541TIP3    H259039   2.681   4.958   2.818 -0.3904  0.0069 -0.6960
12542TIP3   OH259040   1.726   3.842   3.547  0.4861 -0.6775 -0.3794
12542TIP3    H159041   1.786   3.794   3.490 -0.8293 -0.4368 -2.0554
12542TIP3    H259042   1.741   3.934   3.525 -0.1688 -0.5941 -0.4877
12543TIP3   OH259043   5.138   2.293   2.874 -0.2794  0.4982 -0.0020
12543TIP3    H159044   5.073   2.361   2.856 -1.8064 -1.1858 -1.2966
12543TIP3    H259045   5.104   2.247   2.951 -0.2471  0.0584 -0.2473
12544TIP3   OH259046   6.565   6.449   2.867 -0.3065 -0.4643  0.2141
12544TIP3    H159047   6.594   6.470   2.779 -0.9847  1.0625  0.3358
12544TIP3    H259048   6.645   6.449   2.919 -0.1309  0.6721 -0.0298
12545TIP3   OH259049   0.131   4.898   5.925 -0.0798 -0.2230 -0.3581
12545TIP3    H159050   0.196   4.866   5.988 -1.2715 -1.5956  0.2127
12545TIP3    H259051   0.062   4.936   5.979 -0.9118 -1.0250 -0.8239
12546TIP3   OH259052   3.553   1.667   2.910 -0.1231  0.3380  0.0610
12546TIP3    H159053   3.460   1.661   2.884 -0.5807  1.2257  1.3943
12546TIP3    H259054   3.581   1.752   2.875 -0.0562  0.4362  0.3501
12547TIP3   OH259055   0.698   5.090   2.178  0.1108  0.3483  0.7165
12547TIP3    H159056   0.641   5.133   2.242 -0.5178  0.0057  0.4014
12547TIP3    H259057   0.707   5.154   2.107 -1.4910 -0.3047 -0.1297
12548TIP3   OH259058   0.262   2.746   0.596 -0.3138  0.4476 -0.2138
12548TIP3    H159059   0.306   2.800   0.531 -1.7327  0.2060 -1.4325
12548TIP3    H259060   0.212   2.682   0.545  1.2801 -2.0811  1.1488
12549TIP3   OH259061   3.324   1.935  13.034 -0.0141  0.7295 -0.3654
12549TIP3    H159062   3.380   1.885  12.975 -0.9013  0.9076 -1.3766
12549TIP3    H259063   3.248   1.880  13.048 -0.8541  1.6325 -1.2336
12550TIP3   OH259064   5.720   4.545   2.073  0.0078  0.4656 -0.1243
12550TIP3    H159065   5.813   4.522   2.074  0.2022  1.2145  0.0245
12550TIP3    H259066   5.710   4.608   2.145 -0.2639  1.6296 -1.1320
12551TIP3   OH259067   5.001   4.639  11.471  0.7139  0.2605 -0.0690
12551TIP3    H159068   4.910   4.613  11.455  0.6515  1.2286 -1.4847
12551TIP3    H259069   4.999   4.683  11.556 -0.2901  0.8959 -0.4048
12552TIP3   OH259070   2.268   6.758  15.391 -0.3117  0.6209  0.5511
12552TIP3    H159071   2.344   6.758  15.334  0.1004 -2.2389  0.9701
12552TIP3    H259072   2.219   6.836  15.365  0.1816 -0.1321 -3.2427
12553TIP3   OH259073   5.116   6.699  15.428 -0.3124 -0.4176 -0.2466
12553TIP3    H159074   5.090   6.649  15.351  0.0956  0.0572 -0.6964
12553TIP3    H259075   5.073   6.784  15.419  0.8407  0.1428 -0.6759
12554TIP3   OH259076   6.306   3.493  12.413  0.2584  0.3710  0.0432
12554TIP3    H159077   6.377   3.446  12.458  0.9650  1.4746  0.1282
12554TIP3    H259078   6.295   3.446  12.330  1.2187  0.2756 -0.0465
12555TIP3   OH259079   5.874   2.852  14.610 -0.3675 -0.2002 -0.3445
12555TIP3    H159080   5.876   2.769  14.657  1.1371  0.4248  0.7804
12555TIP3    H259081   5.965   2.870  14.588 -0.7370  0.8610 -1.1034
12556TIP3   OH259082   3.349   6.474   3.156  0.1238  0.5500  0.2176
12556TIP3    H159083   3.261   6.490   3.120 -0.5832 -1.0681  1.1270
12556TIP3    H259084   3.337   6.477   3.251  1.2667  1.2526  0.3623
12557TIP3   OH259085   4.845   2.584   4.310 -0.0876 -0.5689  0.3133
12557TIP3    H159086   4.827   2.510   4.367  0.3375  0.3025  1.6020
12557TIP3    H259087   4.905   2.639   4.359 -2.8642  2.3084  0.8111
12558TIP3   OH259088   3.539   4.264  12.495  0.4826  0.0759  0.1268
12558TIP3    H159089   3.599   4.216  12.552 -0.5188 -0.0038  1.1309
12558TIP3    H259090   3.452   4.242  12.527 -0.0323  3.1359  1.1356
12559TIP3   OH259091   6.682   4.091   1.003 -0.3853  1.1026 -0.0338
12559TIP3    H159092   6.690   4.170   1.057 -0.5565  0.7934  0.4502
12559TIP3    H259093   6.755   4.036   1.032 -0.9906  0.5726  0.4960
12560TIP3   OH259094   3.249   0.011  12.320 -0.4989  0.2324  0.0030
12560TIP3    H159095   3.310  -0.051  12.282 -1.4341  0.3921 -1.8513
12560TIP3    H259096   3.220  -0.031  12.402  1.6604 -0.0466  0.6875
12561TIP3   OH259097   3.420   3.306  13.488 -0.2704 -0.1297 -0.4097
12561TIP3    H159098   3.360   3.328  13.418  0.4104 -3.6917 -2.3518
12561TIP3    H259099   3.394   3.218  13.516 -0.1983  0.9091  3.5744
12562TIP3   OH259100   1.956   1.862  15.340  0.0650  0.1748  0.3883
12562TIP3    H159101   2.013   1.861  15.263  0.5705  0.2241  0.7570
12562TIP3    H259102   1.868   1.857  15.305  0.3320 -3.2246 -0.1284
12563TIP3   OH259103   3.475   0.790   2.575  0.6824 -0.0496 -0.2030
12563TIP3    H159104   3.396   0.817   2.621 -0.1458 -0.2571 -1.4751
12563TIP3    H259105   3.534   0.760   2.644  0.1711  1.3635  0.8880
12564TIP3   OH259106   5.930   3.269  13.937  0.6386 -0.0018 -0.5051
12564TIP3    H159107   5.836   3.248  13.940  0.2525  1.6306  1.4381
12564TIP3    H259108   5.973   3.190  13.970 -0.4117  0.5106  2.3904
12565TIP3   OH259109   3.412   2.609  14.869 -0.1086 -0.6771 -0.0473
12565TIP3    H159110   3.360   2.670  14.817 -0.0841 -0.4469  0.1904
12565TIP3    H259111   3.352   2.580  14.938  0.2610  0.0909  0.6131
12566TIP3   OH259112   2.333   5.738   1.790 -0.2829 -0.0813 -0.0197
12566TIP3    H159113   2.280   5.690   1.727 -1.4416 -0.0544  0.8833
12566TIP3    H259114   2.410   5.682   1.805  0.0451 -0.0411 -1.4877
12567TIP3   OH259115   6.704   1.488  15.879  0.2028  0.2146 -0.4598
12567TIP3    H159116   6.767   1.471  15.809 -0.3307  1.5480 -1.3215
12567TIP3    H259117   6.652   1.408  15.884  1.0156 -0.3469 -0.7586
12568TIP3   OH259118   6.352   1.493  12.791  0.0691  0.3263  0.2515
12568TIP3    H159119   6.423   1.454  12.741  0.4788  1.5143 -0.1300
12568TIP3    H259120   6.281   1.430  12.786  1.5939 -1.6773  2.0194
12569TIP3   OH259121   1.186   1.032   1.840  0.1939  0.2402  0.5067
12569TIP3    H159122   1.104   1.024   1.791  0.3638  0.8708  0.1051
12569TIP3    H259123   1.164   1.009   1.930  0.2761 -2.9696 -0.1793
12570TIP3   OH259124   3.222   1.938   6.122 -0.7694 -0.5689  0.2118
12570TIP3    H159125   3.296   1.999   6.129 -0.7978 -0.3777 -1.0380
12570TIP3    H259126   3.254   1.856   6.160  0.5548 -0.8966 -1.5304
12571TIP3   OH259127   0.794   3.758  12.701 -0.0535 -0.4976  0.0403
12571TIP3    H159128   0.844   3.837  12.682 -2.1473  1.0892  0.7360
12571TIP3    H259129   0.718   3.789  12.750 -1.8161 -2.7317 -1.0993
12572TIP3   OH259130   6.143   0.990  14.360  0.1698 -0.0697 -0.1096
12572TIP3    H159131   6.188   1.068  14.326  0.3869 -0.7718 -1.5049
12572TIP3    H259132   6.060   1.023  14.393 -0.3297  0.6174 -1.8912
12573TIP3   OH259133   1.253   3.610   5.537 -0.4305  0.0359 -0.5353
12573TIP3    H159134   1.209   3.661   5.604 -0.7739 -1.3062  0.3034
12573TIP3    H259135   1.340   3.593   5.573 -0.2362  0.2319 -0.9098
12574TIP3   OH259136   0.264   6.531  11.153  0.8799  0.0741 -0.4143
12574TIP3    H159137   0.243   6.518  11.061  1.0401  0.1092 -0.4567
12574TIP3    H259138   0.217   6.610  11.178  0.1559 -0.4046 -0.2402
12575TIP3   OH259139   5.024   3.663  11.473 -0.1815 -0.0979  0.4218
12575TIP3    H159140   4.942   3.637  11.516 -0.8839  1.0950 -0.1561
12575TIP3    H259141   5.031   3.757  11.489 -0.0390  0.2260 -1.3689
12576TIP3   OH259142   5.062   0.717  17.289 -0.2842 -0.6719  0.5469
12576TIP3    H159143   5.078   0.754  17.376  1.0782 -1.9567  0.8887
12576TIP3    H259144   4.987   0.765  17.256  1.2196  2.1949  1.0325
12577TIP3   OH259145   2.926   5.165  11.161  0.5340 -0.0143 -0.2014
12577TIP3    H159146   3.002   5.120  11.200 -0.9619 -2.8448 -0.2629
12577TIP3    H259147   2.850   5.128  11.207 -1.0187  0.0663 -2.5207
12578TIP3   OH259148   2.728   5.987   1.485  0.1438 -0.1749 -0.2347
12578TIP3    H159149   2.716   6.024   1.573 -1.1441 -1.3133  0.1056
12578TIP3    H259150   2.823   5.980   1.475  0.3093 -0.5875  1.3279
12579TIP3   OH259151   3.447   5.057   3.996 -0.2409 -0.4314 -0.0010
12579TIP3    H159152   3.481   5.010   3.920  2.1311 -1.3383  1.5148
12579TIP3    H259153   3.432   5.146   3.964  1.1411 -0.6608 -1.4282
12580TIP3   OH259154   0.039   2.793   6.077  0.2258  0.4196  0.1896
12580TIP3    H159155   0.101   2.825   6.142 -0.2614  1.5732  0.1063
12580TIP3    H259156  -0.043   2.838   6.097 -0.9830 -1.9902  1.0927
12581TIP3   OH259157   6.476   4.242   1.745  0.2482 -0.0501 -0.0138
12581TIP3    H159158   6.407   4.270   1.685 -1.3794 -1.4653  1.0742
12581TIP3    H259159   6.556   4.241   1.692 -1.1512 -1.5700 -2.2900
12582TIP3   OH259160   0.968   2.470  14.870  0.0060 -0.6821  0.5560
12582TIP3    H159161   0.954   2.533  14.799  0.2729 -0.7889  0.4064
12582TIP3    H259162   1.018   2.519  14.935  1.3415 -1.1092 -0.1251
12583TIP3   OH259163   2.924   5.897  13.045  0.2259 -0.3206  0.4181
12583TIP3    H159164   2.982   5.844  12.991 -1.4746 -0.4783 -1.3530
12583TIP3    H259165   2.886   5.836  13.108  0.7876 -0.4960  0.5984
12584TIP3   OH259166   2.576   3.836  14.873  0.0657  0.6068  0.4558
12584TIP3    H159167   2.490   3.878  14.862 -0.7810 -1.1377  0.0524
12584TIP3    H259168   2.608   3.869  14.957 -2.5226 -1.1663  2.3048
12585TIP3   OH259169   2.712   5.992   1.992 -0.4845  0.2245  0.8782
12585TIP3    H159170   2.672   5.914   2.032  0.5009 -0.9003 -0.2413
12585TIP3    H259171   2.740   6.045   2.066  0.8801 -1.5868  1.7581
12586TIP3   OH259172   2.322   2.103  13.157 -0.0958  1.1338 -0.0290
12586TIP3    H159173   2.236   2.145  13.157  0.4984  2.4241 -0.0897
12586TIP3    H259174   2.359   2.124  13.243 -1.2437 -2.6130  1.5873
12587TIP3   OH259175   5.712   4.645   4.072  0.2406 -0.2690 -0.0280
12587TIP3    H159176   5.770   4.721   4.076  0.7402 -0.5450 -1.5639
12587TIP3    H259177   5.627   4.681   4.045  0.0181 -0.0415  0.9417
12588TIP3   OH259178   2.200   1.337   3.570  0.4884 -0.0975  0.0685
12588TIP3    H159179   2.291   1.352   3.545  0.0589 -0.4915 -1.8689
12588TIP3    H259180   2.149   1.392   3.511 -0.5254  0.9435  1.8389
12589TIP3   OH259181   1.147   2.545   0.875 -0.1677 -0.3634 -0.3307
12589TIP3    H159182   1.066   2.585   0.905 -0.4698 -1.1366 -0.0952
12589TIP3    H259183   1.124   2.503   0.792  0.3279  0.5657 -0.9612
12590TIP3   OH259184   0.125   4.864  15.863  0.3570  0.3479  0.1336
12590TIP3    H159185   0.123   4.941  15.919  1.2820 -1.5995  3.1181
12590TIP3    H259186   0.195   4.809  15.900 -1.2091 -2.5496 -0.8461
12591TIP3   OH259187   2.522   2.907  12.780 -0.2050  0.3637  0.0819
12591TIP3    H159188   2.572   2.951  12.710 -1.5823  0.5095 -0.8414
12591TIP3    H259189   2.558   2.944  12.860  0.5874  1.1093 -0.5827
12592TIP3   OH259190   4.813   1.306   0.432  0.0584  0.6956 -0.4074
12592TIP3    H159191   4.739   1.360   0.404 -0.0599 -0.2076 -1.9741
12592TIP3    H259192   4.810   1.229   0.374  0.8571 -0.4773  1.0342
12593TIP3   OH259193   4.047   1.379  17.261  0.2817 -0.3029  0.5968
12593TIP3    H159194   4.047   1.286  17.280  2.2104 -0.3588  0.4892
12593TIP3    H259195   4.134   1.409  17.285  0.7233  0.8727 -2.0659
12594TIP3   OH259196   2.622   6.742   5.363  0.3553  0.1234 -0.7857
12594TIP3    H159197   2.581   6.794   5.294  1.4849  2.1673 -0.0172
12594TIP3    H259198   2.582   6.774   5.444  1.8446  0.6459 -0.2071
12595TIP3   OH259199   1.964   2.494   4.344  0.0022  0.3305 -0.6547
12595TIP3    H159200   1.965   2.519   4.436 -1.6343  1.4396 -0.8863
12595TIP3    H259201   1.886   2.440   4.334  1.4656 -1.8758 -0.9516
12596TIP3   OH259202   2.107   4.618  15.566 -0.4781 -0.1975  0.4089
12596TIP3    H159203   2.128   4.610  15.659  0.1489 -0.5058  0.2479
12596TIP3    H259204   2.053   4.697  15.560  2.9132  2.3138  0.5100
12597TIP3   OH259205   5.719   1.515   6.972 -0.2786  0.0474  0.0901
12597TIP3    H159206   5.807   1.495   6.941 -0.8215  0.9588 -2.2179
12597TIP3    H259207   5.663   1.507   6.895 -2.0173  0.8443  1.1878
12598TIP3   OH259208   6.270   6.238  14.061 -0.5072  0.2833 -0.3601
12598TIP3    H159209   6.245   6.328  14.041 -2.1816 -0.1941 -0.6039
12598TIP3    H259210   6.286   6.197  13.976 -0.5915  0.1425 -0.3105
12599TIP3   OH259211   5.934   0.230  14.619 -0.2937 -0.1653 -0.1404
12599TIP3    H159212   5.893   0.165  14.675  0.7040 -0.0655  0.7489
12599TIP3    H259213   5.904   0.209  14.531 -1.3964 -0.7155  0.3482
12600TIP3   OH259214   5.198   4.784  14.762 -0.0321 -0.0532  0.2373
12600TIP3    H159215   5.260   4.731  14.712 -0.2714  0.1708 -0.3078
12600TIP3    H259216   5.168   4.726  14.832  0.1770 -0.4276  0.0231
12601TIP3   OH259217   5.184   4.822  14.381 -0.9527 -0.4880  0.8238
12601TIP3    H159218   5.260   4.765  14.366 -1.2765 -1.0383  1.2041
12601TIP3    H259219   5.211   4.879  14.453 -0.0789  0.8907 -0.5230
12602TIP3   OH259220   3.897   5.125  12.740 -0.4332 -0.0596 -0.0826
12602TIP3    H159221   3.851   5.043  12.726 -0.7864  0.3047 -1.1516
12602TIP3    H259222   3.964   5.105  12.805 -2.9242 -0.3046  2.6403
12603TIP3   OH259223   5.095   0.771  14.951  0.0587  0.3698  0.0023
12603TIP3    H159224   5.186   0.803  14.951 -0.4957  2.0411 -1.1210
12603TIP3    H259225   5.058   0.805  15.032  0.4322 -0.4032  0.5156
12604TIP3   OH259226   4.808   3.732   1.536  0.0835  0.0000  0.5020
12604TIP3    H159227   4.801   3.645   1.576  0.6029  0.7153  2.2181
12604TIP3    H259228   4.730   3.779   1.568 -0.2440  0.1489 -0.4916
12605TIP3   OH259229   3.987   1.191  11.807  0.2589 -0.7008 -0.2654
12605TIP3    H159230   4.067   1.223  11.766  0.3561 -2.1284 -1.2194
12605TIP3    H259231   3.921   1.256  11.783  0.8203 -0.2558 -0.6459
12606TIP3   OH259232   2.790   0.481   0.224 -0.0223 -0.3345 -0.3165
12606TIP3    H159233   2.831   0.484   0.311 -1.0063 -1.6469  0.2357
12606TIP3    H259234   2.851   0.528   0.167  2.7443 -2.8850  0.2697
12607TIP3   OH259235   3.859   4.799  14.923  0.2433 -0.1460  0.1396
12607TIP3    H159236   3.767   4.822  14.936  0.1669  0.2073 -0.9808
12607TIP3    H259237   3.895   4.798  15.012 -0.6171  0.6629  0.5224
12608TIP3   OH259238   1.373   4.895   2.749  0.1710  0.2601  0.2058
12608TIP3    H159239   1.449   4.848   2.782  0.3731  0.7957  0.5208
12608TIP3    H259240   1.405   4.983   2.731 -0.3655  0.4823  0.3102
12609TIP3   OH259241   0.596   3.828  14.131 -0.4433 -0.2053 -0.7599
12609TIP3    H159242   0.630   3.807  14.218  1.1823 -0.8947 -1.5135
12609TIP3    H259243   0.575   3.743  14.093  0.2998 -0.0411 -1.5747
12610TIP3   OH259244   4.161   2.274  13.170 -0.7483  0.6326 -0.5925
12610TIP3    H159245   4.165   2.309  13.259  1.1509 -1.5716  0.2766
12610TIP3    H259246   4.230   2.320  13.123 -1.0013  0.9873 -0.6208
12611TIP3   OH259247   3.994   0.555   4.247  0.6906 -0.4353 -0.5901
12611TIP3    H159248   4.025   0.555   4.338 -1.1762 -0.9336  0.1017
12611TIP3    H259249   4.063   0.510   4.198  1.6990 -0.2172  0.5859
12612TIP3   OH259250   1.677   5.564   5.757  0.0816  0.7431 -0.2861
12612TIP3    H159251   1.608   5.555   5.823  1.6446  0.5710  1.4130
12612TIP3    H259252   1.721   5.479   5.758  1.2595  1.3379 -0.2035
12613TIP3   OH259253   2.325   2.392   1.464  0.5435  0.1855 -0.2964
12613TIP3    H159254   2.260   2.437   1.409 -0.1208  0.7344  0.9021
12613TIP3    H259255   2.330   2.445   1.543  2.0184 -0.1991 -0.1110
12614TIP3   OH259256   5.744   1.184  15.116  0.1656  0.3897  0.0712
12614TIP3    H159257   5.690   1.129  15.172  0.3483  1.0281  0.8999
12614TIP3    H259258   5.772   1.127  15.045  0.2998 -0.5690  0.8812
12615TIP3   OH259259   3.669   2.194  15.108 -0.2593  0.2500 -0.2175
12615TIP3    H159260   3.673   2.248  15.029  2.8274  0.9985  0.3286
12615TIP3    H259261   3.752   2.147  15.110 -0.0388  0.5507  2.7205
12616TIP3   OH259262   6.335   2.764  12.757  0.1358  0.3880 -0.2758
12616TIP3    H159263   6.280   2.840  12.736 -0.2262 -0.7477 -4.1080
12616TIP3    H259264   6.275   2.689  12.755  1.3909 -0.6467 -2.6261
12617TIP3   OH259265   3.050   3.413  15.702  0.7466 -0.9986 -0.6137
12617TIP3    H159266   3.122   3.411  15.640 -0.1485 -0.3890 -1.7035
12617TIP3    H259267   2.972   3.396  15.649 -0.2781  1.4391 -0.0230
12618TIP3   OH259268   2.674   0.512  11.962  0.1173  0.6049 -0.0076
12618TIP3    H159269   2.606   0.461  12.005 -0.5314  2.0852  0.8024
12618TIP3    H259270   2.752   0.498  12.016 -0.0961  0.6099  0.3035
12619TIP3   OH259271   1.042   5.611  16.865  0.3139  0.2662  0.4599
12619TIP3    H159272   0.978   5.682  16.859  1.7632  1.5628 -0.3151
12619TIP3    H259273   1.106   5.641  16.929 -0.2648 -1.4000  1.8895
12620TIP3   OH259274   0.740   6.244   1.471 -0.2762  0.2961 -0.2220
12620TIP3    H159275   0.735   6.278   1.561  0.5812 -1.4241  0.5136
12620TIP3    H259276   0.827   6.205   1.465  0.5216  2.1789 -2.5157
12621TIP3   OH259277   2.810   6.257  14.917  0.0408  0.3588  0.4803
12621TIP3    H159278   2.884   6.310  14.945  0.9980 -0.2863 -0.6974
12621TIP3    H259279   2.850   6.182  14.873 -1.2688 -1.1250  1.7070
12622TIP3   OH259280   3.518   5.093  16.437  0.2709  0.1070 -0.0506
12622TIP3    H159281   3.530   5.185  16.413  0.9100 -0.1535 -0.7834
12622TIP3    H259282   3.432   5.070  16.403  1.2493 -0.3205 -2.4515
12623TIP3   OH259283   1.194   0.651   2.741 -0.4350 -0.1300  0.4826
12623TIP3    H159284   1.239   0.726   2.703  1.6080 -1.5050 -0.0045
12623TIP3    H259285   1.143   0.615   2.668  1.2930 -1.1456 -0.3026
12624TIP3   OH259286   5.658   4.495  17.160 -0.4120 -0.4764 -0.0239
12624TIP3    H159287   5.574   4.465  17.193  0.4349 -1.1640  1.6224
12624TIP3    H259288   5.665   4.586  17.188 -0.5025 -0.4906  0.0400
12625TIP3   OH259289   3.912   2.226   3.968 -1.0805  0.4836 -0.1578
12625TIP3    H159290   3.925   2.274   3.887  1.0097 -0.5681 -0.5170
12625TIP3    H259291   3.966   2.271   4.033  1.7926 -1.7788 -0.7481
12626TIP3   OH259292   1.937   3.523   3.125  0.2213  0.1306  0.1700
12626TIP3    H159293   2.030   3.512   3.105  0.3341  0.6211  0.4099
12626TIP3    H259294   1.904   3.433   3.134  0.7845 -0.0413  0.6095
12627TIP3   OH259295   4.089   0.121  16.684 -0.0509 -0.2889  0.2188
12627TIP3    H159296   4.170   0.119  16.735  0.4062 -1.2390 -0.5143
12627TIP3    H259297   4.118   0.133  16.594 -0.6282 -2.0019 -0.2175
12628TIP3   OH259298   3.752   2.284   3.335 -0.1812  0.5303 -0.2163
12628TIP3    H159299   3.780   2.335   3.259  1.2364 -0.9743 -0.7721
12628TIP3    H259300   3.697   2.215   3.299 -0.7610  0.7009  0.3237
12629TIP3   OH259301   2.559   3.910  16.788  0.4054 -0.0297  0.1939
12629TIP3    H159302   2.552   4.001  16.818 -0.9410 -0.5269  1.4782
12629TIP3    H259303   2.535   3.913  16.696  0.3699  0.9109  0.2278
12630TIP3   OH259304   6.672   6.186  14.091  0.0327  0.2196  0.1681
12630TIP3    H159305   6.674   6.183  13.996  3.2053  0.8709  0.0895
12630TIP3    H259306   6.582   6.162  14.115 -0.1635 -2.7765 -2.8468
12631TIP3   OH259307   2.965   5.412   3.676  0.1017  0.1578  0.6661
12631TIP3    H159308   3.056   5.427   3.702  0.0541  0.1055  0.8645
12631TIP3    H259309   2.952   5.469   3.600  0.1295  0.5834  0.9830
12632TIP3   OH259310   0.437   3.949   4.035 -0.2835 -0.1569  0.7183
12632TIP3    H159311   0.469   3.859   4.026  0.2371  0.1188 -0.3003
12632TIP3    H259312   0.379   3.961   3.960  1.3083  1.0362 -0.3602
12633TIP3   OH259313   2.317   1.348  13.519  0.2157  0.6897  0.1439
12633TIP3    H159314   2.372   1.408  13.468  0.8719 -0.4121 -0.4905
12633TIP3    H259315   2.379   1.301  13.575  0.0527 -1.0537 -1.0665
12634TIP3   OH259316   1.848   1.833  16.293  0.5739  0.0950  0.3545
12634TIP3    H159317   1.779   1.897  16.274 -1.1735 -1.8807 -0.3604
12634TIP3    H259318   1.898   1.827  16.212  1.8812  1.7774  0.9772
12635TIP3   OH259319   6.741   5.044  17.287 -0.2668 -0.1753 -0.1238
12635TIP3    H159320   6.693   5.114  17.243 -2.9602 -0.0185  2.6974
12635TIP3    H259321   6.767   5.082  17.371  0.3436 -1.8352  0.4748
12636TIP3   OH259322   3.568   0.043   6.315  0.2793  0.2643 -0.2325
12636TIP3    H159323   3.483   0.083   6.300  0.1572 -0.4207 -1.5020
12636TIP3    H259324   3.560  -0.045   6.278  1.5525  0.2234 -0.4577
12637TIP3   OH259325   0.242   5.561   1.747  0.1399 -0.2071  0.7101
12637TIP3    H159326   0.315   5.530   1.801 -0.8058 -1.7342  1.1710
12637TIP3    H259327   0.267   5.536   1.658  1.2948  1.5354  0.4834
12638TIP3   OH259328   2.771   2.607  15.174 -0.3185  0.5913  0.3044
12638TIP3    H159329   2.750   2.670  15.243 -0.4011  1.8112 -0.7922
12638TIP3    H259330   2.726   2.527  15.200  0.1175  0.8325  1.9448
12639TIP3   OH259331   1.897   5.487   5.131 -0.3514 -0.0776  0.0174
12639TIP3    H159332   1.878   5.416   5.070  1.7483 -1.0353  0.4006
12639TIP3    H259333   1.936   5.556   5.077 -1.5184  0.4265 -0.2051
12640TIP3   OH259334   3.289   4.031   4.676  0.1307  0.4454  0.0399
12640TIP3    H159335   3.323   3.996   4.758  1.9869  1.5325 -0.2116
12640TIP3    H259336   3.276   4.124   4.693 -0.8506  0.4266 -0.4967
12641TIP3   OH259337   1.666   3.816   0.355  0.2754  0.0266 -0.3083
12641TIP3    H159338   1.743   3.850   0.309  0.3200  1.9068  1.0269
12641TIP3    H259339   1.701   3.753   0.417  0.9120  1.3912  0.7942
12642TIP3   OH259340   1.119   5.679   0.728 -0.2095 -0.1937 -0.4573
12642TIP3    H159341   1.167   5.756   0.699  0.7235 -0.7817 -0.5162
12642TIP3    H259342   1.058   5.661   0.656  1.9719 -1.5546 -2.1062
12643TIP3   OH259343   1.758   1.050  16.774 -0.0275 -0.1073  0.1285
12643TIP3    H159344   1.676   1.076  16.730  0.7323 -0.0025 -1.2798
12643TIP3    H259345   1.826   1.067  16.709  0.9764 -1.5492  0.7549
12644TIP3   OH259346   4.455   6.615   5.431 -0.1718 -0.0556 -0.7142
12644TIP3    H159347   4.476   6.686   5.491  1.4217 -0.1396 -1.1147
12644TIP3    H259348   4.528   6.554   5.439 -0.9614 -1.1071 -1.1957
12645TIP3   OH259349   6.487   2.885  17.004  0.4657  0.5852  0.3710
12645TIP3    H159350   6.462   2.969  16.965  0.4275  1.1115  1.4882
12645TIP3    H259351   6.456   2.890  17.094 -0.8683 -1.2312  0.0947
12646TIP3   OH259352   3.345   1.436   2.250 -0.0417 -0.2604 -0.5255
12646TIP3    H159353   3.251   1.417   2.242  0.2577 -1.4519 -1.5062
12646TIP3    H259354   3.382   1.357   2.290  0.6121  0.0241 -0.5668
12647TIP3   OH259355   0.407   1.430   6.515 -0.5128 -0.4885  0.2467
12647TIP3    H159356   0.325   1.448   6.561 -1.3937 -2.5637 -0.3800
12647TIP3    H259357   0.466   1.398   6.583  0.5646  2.8494  1.0806
12648TIP3   OH259358   4.144   6.304   3.843  0.2027  0.4170  0.1237
12648TIP3    H159359   4.098   6.303   3.927  0.0178  2.3646  0.0762
12648TIP3    H259360   4.151   6.212   3.819 -1.4017 -0.0671  1.3639
12649TIP3   OH259361   2.014   4.044  15.080 -0.3610  0.0097 -0.3600
12649TIP3    H159362   1.921   4.062  15.067 -0.7634 -0.4799  1.4538
12649TIP3    H259363   2.021   3.949  15.081 -0.2924 -0.0312  1.8046
12650TIP3   OH259364   4.743   3.488  16.936  0.0880  0.5249  0.4452
12650TIP3    H159365   4.822   3.461  16.890 -1.2271  0.3156 -1.8476
12650TIP3    H259366   4.766   3.570  16.979  2.1038 -0.5646  1.5496
12651TIP3   OH259367   0.304   0.876   2.320 -0.2151  0.1268 -0.3026
12651TIP3    H159368   0.263   0.796   2.354  1.3453 -0.2385  0.8567
12651TIP3    H259369   0.241   0.945   2.341  1.0118  0.1333  4.6478
12652TIP3   OH259370   0.521   1.171   5.266  0.0148  0.5953  0.8447
12652TIP3    H159371   0.478   1.223   5.199 -4.0358 -0.4876  2.3162
12652TIP3    H259372   0.514   1.224   5.346  1.8871  0.5124  1.1192
12653TIP3   OH259373   1.093   5.165  15.049  0.0667  0.2742 -0.1695
12653TIP3    H159374   1.109   5.114  15.128  1.7330 -0.5874 -1.0144
12653TIP3    H259375   1.014   5.127  15.011 -0.2635  0.1430  0.6390
12654TIP3   OH259376   0.971   4.166   1.911 -0.0862 -0.3066  0.2848
12654TIP3    H159377   1.064   4.190   1.918 -0.1722 -0.0743  0.6572
12654TIP3    H259378   0.969   4.072   1.928  0.1402 -0.4105 -0.2361
12655TIP3   OH259379   1.121   1.377   6.153 -0.0244 -0.2912  0.4808
12655TIP3    H159380   1.043   1.431   6.158 -1.0489 -1.8233  2.3817
12655TIP3    H259381   1.173   1.403   6.229  1.1763  0.4227 -0.5392
12656TIP3   OH259382   5.761   6.727  16.006  0.0911 -0.1928 -0.6967
12656TIP3    H159383   5.676   6.771  16.011 -0.1618 -0.7809  0.4345
12656TIP3    H259384   5.805   6.751  16.088  0.9691 -0.0038 -1.2128
12657TIP3   OH259385   0.585   3.950   6.314 -0.4379 -0.1591  0.2927
12657TIP3    H159386   0.515   4.007   6.345 -0.5593  0.1264 -0.4650
12657TIP3    H259387   0.560   3.862   6.342 -1.6184 -0.2088 -0.8114
12658TIP3   OH259388   4.795   5.190   6.083  0.2951 -0.1855 -0.0927
12658TIP3    H159389   4.705   5.160   6.074 -1.1115  3.4398  0.3274
12658TIP3    H259390   4.838   5.123   6.136 -2.0762 -2.1103 -0.4656
12659TIP3   OH259391   2.685   4.110  14.711 -0.0499 -0.0179 -0.6343
12659TIP3    H159392   2.688   4.174  14.782 -1.6305  0.3372 -0.8559
12659TIP3    H259393   2.724   4.031  14.749  2.2519  1.1372 -0.4701
12660TIP3   OH259394   3.158   3.640   5.016  0.0167 -0.2992  0.2229
12660TIP3    H159395   3.165   3.704   4.945  1.2107  1.2220  1.6318
12660TIP3    H259396   3.069   3.607   5.010 -0.6850  1.5889 -0.5174
12661TIP3   OH259397   6.711   5.277  14.310  0.2280 -0.0187 -0.3100
12661TIP3    H159398   6.627   5.292  14.267  0.8427  0.5164 -1.3506
12661TIP3    H259399   6.703   5.189  14.348 -1.7989  1.0370  2.0284
12662TIP3   OH259400   2.151   4.838   6.105 -0.1355 -0.1070  0.2769
12662TIP3    H159401   2.117   4.785   6.177 -0.1651  0.8705  1.0139
12662TIP3    H259402   2.100   4.919   6.108  0.0596  0.0678 -0.6699
12663TIP3   OH259403   2.344   4.611   0.809 -0.1986  0.3864  0.0615
12663TIP3    H159404   2.276   4.589   0.873 -0.9604  1.9397 -0.1875
12663TIP3    H259405   2.339   4.706   0.799  1.1617  0.3877 -0.9268
12664TIP3   OH259406   5.441   2.703   3.923  0.6816  0.1621 -0.1308
12664TIP3    H159407   5.487   2.644   3.864  1.2813 -0.9155  1.3543
12664TIP3    H259408   5.464   2.791   3.892  0.9896 -0.3561 -1.4502
12665TIP3   OH259409   2.705   6.543   0.865  0.5831 -0.4452 -0.0977
12665TIP3    H159410   2.742   6.476   0.808 -1.8187 -2.0676  0.1445
12665TIP3    H259411   2.633   6.580   0.815  1.2807  1.3524  0.1493
12666TIP3   OH259412   6.306   3.602   4.290 -0.4371  0.7766  0.6406
12666TIP3    H159413   6.290   3.532   4.226  1.5580  0.3847  0.4967
12666TIP3    H259414   6.253   3.578   4.365 -0.0634 -0.7477  0.4658
12667TIP3   OH259415   1.740   3.555  15.900  0.2488 -0.2670  0.2639
12667TIP3    H159416   1.687   3.629  15.928  0.6022  0.2139 -0.3214
12667TIP3    H259417   1.743   3.561  15.805  0.4761 -0.8985  0.2217
12668TIP3   OH259418   1.308   6.276  13.177  0.6368 -0.5091  0.6048
12668TIP3    H159419   1.214   6.259  13.168  0.7432 -0.8979  0.2328
12668TIP3    H259420   1.349   6.191  13.167  1.1846 -0.0631 -1.4222
12669TIP3   OH259421   4.070   2.151  14.244 -0.3370  0.7490  0.0818
12669TIP3    H159422   4.080   2.216  14.174 -0.1998  0.6627  0.0207
12669TIP3    H259423   4.030   2.075  14.201  0.7586  0.2865 -0.1401
12670TIP3   OH259424   6.132   0.224  15.567 -0.0686 -0.0131  0.1730
12670TIP3    H159425   6.177   0.306  15.546 -0.0868  0.8949  3.1995
12670TIP3    H259426   6.201   0.165  15.597 -0.1917 -0.7862 -1.0036
12671TIP3   OH259427   1.653   2.971  13.163  0.0334  0.3288  0.0563
12671TIP3    H159428   1.636   2.921  13.243  1.3801  1.8689  1.3866
12671TIP3    H259429   1.650   3.063  13.191 -0.8861  0.9860 -1.9857
12672TIP3   OH259430   0.213   2.004  15.525 -0.2696  0.0636  0.1048
12672TIP3    H159431   0.283   1.940  15.512 -0.5173 -0.0782 -0.5999
12672TIP3    H259432   0.139   1.968  15.475  0.0839  1.6846 -1.6980
12673TIP3   OH259433   5.513   1.509  17.257 -0.2136  0.2081  0.5324
12673TIP3    H159434   5.503   1.416  17.239 -2.1605  0.1460  1.7019
12673TIP3    H259435   5.480   1.552  17.178 -1.2153 -0.0928  0.7771
12674TIP3   OH259436   6.666   1.501  17.133 -0.0752  0.4498 -0.1189
12674TIP3    H159437   6.734   1.479  17.069 -1.1077 -0.2657 -1.0089
12674TIP3    H259438   6.634   1.416  17.163 -0.9660  0.7717 -0.1507
12675TIP3   OH259439   2.658   3.676  14.643 -0.1457  0.4931  0.1085
12675TIP3    H159440   2.743   3.718  14.654 -0.4607  0.8564  1.3023
12675TIP3    H259441   2.603   3.715  14.711 -1.0384 -0.3245 -0.1248
12676TIP3   OH259442   3.897   0.996  14.114  0.2285 -0.5227  0.0475
12676TIP3    H159443   3.872   0.908  14.087 -0.1671 -0.4896  0.2973
12676TIP3    H259444   3.987   1.006  14.083 -0.5952 -0.0205 -2.4304
12677TIP3   OH259445   1.259   3.120   3.664 -0.2036 -0.2888  0.2324
12677TIP3    H159446   1.353   3.101   3.661  0.1580  1.4656 -2.2301
12677TIP3    H259447   1.222   3.063   3.596 -1.1223 -1.6553  1.8217
12678TIP3   OH259448   5.577   6.276   5.667  0.1021 -0.3606 -0.4345
12678TIP3    H159449   5.562   6.257   5.575  1.3759 -0.8126 -0.5772
12678TIP3    H259450   5.494   6.257   5.710 -1.4450  2.5924 -1.8318
12679TIP3   OH259451   4.628   4.703   3.870  0.1328 -0.5267  0.7016
12679TIP3    H159452   4.671   4.734   3.791  0.3673 -1.7498  0.3265
12679TIP3    H259453   4.644   4.772   3.935 -0.8136  0.8986 -0.5259
12680TIP3   OH259454   6.256   3.293  15.743  0.7947 -0.5817  0.6958
12680TIP3    H159455   6.334   3.328  15.787  0.3250  0.3415  0.8183
12680TIP3    H259456   6.186   3.353  15.767  0.5434  0.0287 -1.4126
12681TIP3   OH259457   4.917   0.123  15.370  0.2532  0.5780  0.6813
12681TIP3    H159458   4.855   0.051  15.365  0.9799  0.0302 -1.1934
12681TIP3    H259459   4.868   0.199  15.339  0.6061  0.0443 -1.3068
12682TIP3   OH259460   4.201   6.652   3.208 -0.3210  0.2467  0.0832
12682TIP3    H159461   4.185   6.566   3.170  0.9344 -0.5388  1.2072
12682TIP3    H259462   4.286   6.643   3.251 -0.5582  1.8029  0.9564
12683TIP3   OH259463   5.675   2.775  11.863 -0.3128 -0.0486 -0.2785
12683TIP3    H159464   5.649   2.683  11.870  0.8459 -0.3375  0.3670
12683TIP3    H259465   5.644   2.801  11.776 -1.0553 -0.9105 -0.2917
12684TIP3   OH259466   4.325   1.941   6.369  0.4319 -0.2827 -0.1824
12684TIP3    H159467   4.313   1.877   6.298 -1.4506 -0.1400 -0.0585
12684TIP3    H259468   4.243   1.991   6.369  0.7811  0.3302  1.4939
12685TIP3   OH259469   4.732   4.216   5.371  0.4287 -0.1258 -0.0330
12685TIP3    H159470   4.762   4.146   5.313  0.3510 -0.8826  0.8141
12685TIP3    H259471   4.811   4.249   5.412  0.4787  0.3825 -0.5205
12686TIP3   OH259472   4.166   3.604   6.224 -0.0381  0.3864 -0.1680
12686TIP3    H159473   4.074   3.595   6.199  0.7017 -1.2591 -2.6895
12686TIP3    H259474   4.173   3.558   6.307 -1.3877  0.0952 -0.1947
12687TIP3   OH259475   3.338   6.697  13.644  0.4081  0.0332 -0.3278
12687TIP3    H159476   3.367   6.622  13.697 -1.4347 -1.1394 -0.8698
12687TIP3    H259477   3.364   6.675  13.555 -1.0935 -0.5522 -0.6612
12688TIP3   OH259478   2.749   1.085  13.256  1.0250  0.4746  0.0681
12688TIP3    H159479   2.770   1.017  13.320  0.9437  0.3884  0.0033
12688TIP3    H259480   2.822   1.080  13.193  0.1945 -0.6816 -0.8600
12689TIP3   OH259481   0.614   0.576   4.248  0.3435 -0.0211  0.4105
12689TIP3    H159482   0.606   0.482   4.264  0.6110  0.3961  3.5348
12689TIP3    H259483   0.687   0.604   4.304 -1.7390  2.5228  2.0752
12690TIP3   OH259484   5.784   0.093   4.626 -0.2709  0.4505 -0.5103
12690TIP3    H159485   5.735   0.159   4.675 -0.8095 -0.5148  0.2867
12690TIP3    H259486   5.846   0.143   4.573  0.3604  1.5325  1.1778
12691TIP3   OH259487   1.081   5.744  13.694 -0.9933  0.2699  0.0885
12691TIP3    H159488   1.049   5.661  13.658 -2.3593  0.5871  0.5518
12691TIP3    H259489   1.176   5.732  13.699 -0.9593 -0.5280 -1.7098
12692TIP3   OH259490   3.793   0.513  16.014  0.6241  0.1848 -0.5588
12692TIP3    H159491   3.807   0.418  16.011 -0.0281  0.0805 -3.8477
12692TIP3    H259492   3.703   0.523  16.044  0.6999 -0.2344 -0.1760
12693TIP3   OH259493   2.980   3.581  11.776  0.5258  0.5527 -0.6011
12693TIP3    H159494   2.945   3.657  11.730 -0.7882  0.3452  0.0131
12693TIP3    H259495   3.074   3.600  11.786  0.3296  1.8031 -0.9762
12694TIP3   OH259496   4.709   2.590  12.901 -0.0234 -0.0715  0.6985
12694TIP3    H159497   4.708   2.675  12.857 -1.7882  0.3267  1.4266
12694TIP3    H259498   4.662   2.532  12.842 -0.3195 -0.1040  0.9587
12695TIP3   OH259499   0.076   1.356   2.103 -0.0748 -0.4186 -0.3925
12695TIP3    H159500   0.014   1.292   2.067 -1.2058  0.4858 -0.0925
12695TIP3    H259501   0.122   1.389   2.026 -0.3832 -0.6796 -0.6941
12696TIP3   OH259502   2.200   3.940  11.193 -0.4977 -0.2840  0.5865
12696TIP3    H159503   2.131   3.963  11.131 -1.9882  1.4922  2.7663
12696TIP3    H259504   2.178   3.851  11.221 -1.0654 -0.2672  0.2075
12697TIP3   OH259505   1.703   4.940   2.412 -0.3957  0.2257  0.1704
12697TIP3    H159506   1.725   4.879   2.342  1.2503 -0.0413  0.8556
12697TIP3    H259507   1.694   4.886   2.490  1.1346  0.7925  0.7977
12698TIP3   OH259508   2.159   2.016   0.203 -0.3672  0.0962  0.2388
12698TIP3    H159509   2.141   2.065   0.283  0.0925 -0.8232  0.9201
12698TIP3    H259510   2.085   1.956   0.194 -0.0395 -0.3402  0.4101
12699TIP3   OH259511   4.863   6.224  11.723  0.4257  0.0384 -0.5746
12699TIP3    H159512   4.818   6.156  11.773 -1.9455  1.6957 -0.3091
12699TIP3    H259513   4.899   6.283  11.790  1.9716 -0.5978 -0.8099
12700TIP3   OH259514   2.265   0.107  14.849  0.2853  0.6782 -0.1630
12700TIP3    H159515   2.321   0.039  14.811 -0.2753  0.6056 -0.8889
12700TIP3    H259516   2.253   0.171  14.778  0.0602  1.0688  0.2195
12701TIP3   OH259517   1.383   2.700  14.224 -0.3604 -0.2776 -0.0261
12701TIP3    H159518   1.364   2.616  14.265  0.3003 -0.6132 -0.4009
12701TIP3    H259519   1.359   2.687  14.132  0.5530 -0.3353 -0.2615
12702TIP3   OH259520   2.941   3.315  16.246  0.2905  0.2822 -0.2362
12702TIP3    H159521   2.998   3.282  16.315 -0.1820  2.0169  1.0511
12702TIP3    H259522   3.001   3.354  16.182  0.6520  0.0608 -0.0367
12703TIP3   OH259523   2.051   3.273   0.416 -0.8729 -0.0880  0.3004
12703TIP3    H159524   2.146   3.266   0.427 -0.8562 -0.4394 -0.0304
12703TIP3    H259525   2.024   3.187   0.384 -1.6563 -0.8153  2.6853
12704TIP3   OH259526   5.732   3.213  16.576  0.3572  0.7566 -0.2355
12704TIP3    H159527   5.751   3.298  16.535  0.4832  0.0368 -1.7199
12704TIP3    H259528   5.771   3.149  16.518 -0.2917 -0.3708  0.5377
12705TIP3   OH259529   5.508   6.416  16.732 -0.0407  0.4441 -0.7136
12705TIP3    H159530   5.420   6.391  16.763 -0.0692  0.9325 -0.3672
12705TIP3    H259531   5.510   6.390  16.640 -0.3790 -0.0040 -0.5974
12706TIP3   OH259532   0.211   4.106  16.431  0.2958 -0.1131  0.0474
12706TIP3    H159533   0.206   4.055  16.351  1.4792  0.3961 -0.3586
12706TIP3    H259534   0.163   4.187  16.411  1.1558  0.2996 -0.3771
12707TIP3   OH259535   5.487   0.260  14.420  0.0391 -0.9217 -0.5200
12707TIP3    H159536   5.560   0.199  14.430  0.7240 -0.2975 -1.4427
12707TIP3    H259537   5.492   0.317  14.496  0.4833 -0.9258 -0.5445
12708TIP3   OH259538   0.330   2.757   5.873  0.2330 -0.1240  0.2033
12708TIP3    H159539   0.395   2.774   5.941  0.9337  0.9328 -0.6860
12708TIP3    H259540   0.267   2.828   5.882  0.7800  0.5077 -0.7451
12709TIP3   OH259541   1.075   5.923   5.113  0.0131 -0.3453  0.0595
12709TIP3    H159542   1.058   5.989   5.045  0.8415 -1.2441 -1.0479
12709TIP3    H259543   0.988   5.898   5.144 -0.4596 -0.7501 -1.4910
12710TIP3   OH259544   5.535   3.886  13.107  0.2428 -0.5168 -0.3637
12710TIP3    H159545   5.448   3.923  13.090  0.3798 -0.4099 -0.8366
12710TIP3    H259546   5.577   3.948  13.166 -1.1184 -2.0565  2.4591
12711TIP3   OH259547   5.077   0.477  10.481  0.6276 -0.0737 -0.1360
12711TIP3    H159548   5.141   0.411  10.508  0.8731 -1.3194 -3.2545
12711TIP3    H259549   5.126   0.559  10.479  2.8397 -1.2067 -3.8521
12712TIP3   OH259550   2.888   1.763  16.772 -0.4679  0.3331 -0.0679
12712TIP3    H159551   2.882   1.814  16.691  1.6506  3.3701  1.4815
12712TIP3    H259552   2.980   1.739  16.778 -0.9496 -1.5057  0.6031
12713TIP3   OH259553   2.021   5.671   0.960  0.0856  0.3685  0.1404
12713TIP3    H159554   2.075   5.593   0.972 -0.1913 -0.2034 -1.9297
12713TIP3    H259555   2.013   5.709   1.048 -0.6056 -2.4565  1.4030
12714TIP3   OH259556   0.484   1.410  12.270  0.3192 -0.0755  0.2554
12714TIP3    H159557   0.577   1.426  12.281  0.2982  0.8630 -0.7534
12714TIP3    H259558   0.445   1.497  12.263 -0.4393 -0.4707 -0.6578
12715TIP3   OH259559   2.898   6.375  13.734 -0.1945  0.0344  0.0214
12715TIP3    H159560   2.963   6.345  13.671 -0.4684  0.8586 -0.6826
12715TIP3    H259561   2.855   6.295  13.765  0.8216 -0.4803  0.1444
12716TIP3   OH259562   2.369   0.784  14.124  0.2828  0.1984 -0.3016
12716TIP3    H159563   2.304   0.714  14.131 -0.0206  0.4883 -0.1732
12716TIP3    H259564   2.454   0.739  14.124  0.1049 -0.1404  0.1778
12717TIP3   OH259565   1.070   1.053  16.965  0.2053 -0.3134 -0.1870
12717TIP3    H159566   1.138   0.985  16.960  1.1481  0.6430 -0.5925
12717TIP3    H259567   1.069   1.092  16.878 -0.4505  0.0930 -0.0018
12718TIP3   OH259568   1.121   3.521  10.711  0.0870 -0.1137 -0.4162
12718TIP3    H159569   1.043   3.565  10.677  0.3127  1.7605  1.2899
12718TIP3    H259570   1.164   3.588  10.765  2.2487 -1.4694 -0.3721
12719TIP3   OH259571   0.156   2.208  15.349  0.0941  0.6630 -0.2223
12719TIP3    H159572   0.167   2.144  15.419  0.6293 -1.1409 -1.8609
12719TIP3    H259573   0.064   2.231  15.351 -0.0993 -0.1301  0.4479
12720TIP3   OH259574   3.107   1.312  13.253  0.3379  1.6158 -0.4621
12720TIP3    H159575   3.028   1.364  13.237 -0.3466  0.3730 -1.2192
12720TIP3    H259576   3.128   1.328  13.346 -0.5290  2.2943 -0.3726
12721TIP3   OH259577   0.182   2.512  15.270 -0.1969 -0.6908  0.0459
12721TIP3    H159578   0.219   2.539  15.354  2.4627 -2.3906 -0.4347
12721TIP3    H259579   0.104   2.462  15.293 -0.7726  0.7394  1.3273
12722TIP3   OH259580   1.044   4.937  14.492  0.4256 -0.6942 -0.0438
12722TIP3    H159581   1.136   4.960  14.501  0.5364 -1.3918  0.7743
12722TIP3    H259582   1.042   4.842  14.502 -0.5326 -0.5474  1.4902
12723TIP3   OH259583   4.292   0.206  12.634 -0.6653 -0.1720  0.1145
12723TIP3    H159584   4.243   0.173  12.559 -1.3300  1.2108 -0.1029
12723TIP3    H259585   4.378   0.164  12.628 -0.5501  0.2636 -1.6924
12724TIP3   OH259586   4.291   0.083  11.503 -0.4416 -0.3653 -0.2607
12724TIP3    H159587   4.314   0.029  11.427 -1.7779 -1.4061  0.0392
12724TIP3    H259588   4.203   0.054  11.527  0.4279 -0.9908  2.4742
12725TIP3   OH259589   4.794   2.597   1.149  0.1848  0.2567 -0.1223
12725TIP3    H159590   4.751   2.559   1.226  1.3531 -2.5948 -0.7392
12725TIP3    H259591   4.855   2.662   1.184 -1.6150  1.4093  1.0351
12726TIP3   OH259592   3.628   3.592   3.235 -0.5312  0.5710 -0.3851
12726TIP3    H159593   3.710   3.617   3.277  0.2810 -2.2406 -0.0814
12726TIP3    H259594   3.564   3.593   3.306  0.2066 -1.2843  0.3875
12727TIP3   OH259595   1.768   4.208   4.126 -0.3685  0.3078  0.5544
12727TIP3    H159596   1.833   4.137   4.123  0.9046  1.4047 -3.6301
12727TIP3    H259597   1.692   4.173   4.078 -0.7655  0.8985  0.7417
12728TIP3   OH259598   3.950   1.485   5.160 -0.3889 -0.0246  0.7927
12728TIP3    H159599   4.009   1.451   5.093  0.5731 -1.0104  2.0978
12728TIP3    H259600   3.935   1.411   5.219  0.2971  1.2905  2.7017
12729TIP3   OH259601   5.465   0.097  12.602  0.2220 -0.6879 -0.0925
12729TIP3    H159602   5.382   0.142  12.617  0.3075 -1.0346  1.6038
12729TIP3    H259603   5.516   0.158  12.550 -0.3571  0.4077  0.5842
12730TIP3   OH259604   4.255   0.265  11.696  0.1013 -0.2380  0.3608
12730TIP3    H159605   4.286   0.211  11.623 -1.1085  0.3606 -0.6407
12730TIP3    H259606   4.278   0.354  11.670 -1.7638  0.1595 -0.1162
12731TIP3   OH259607   4.001   4.634   4.971 -0.0311 -0.3834 -0.0161
12731TIP3    H159608   4.011   4.724   4.938 -0.1432 -0.6964 -0.9462
12731TIP3    H259609   3.973   4.584   4.894  1.5695 -1.5264  0.0854
12732TIP3   OH259610   2.088   0.579  15.581  0.0367 -0.4515 -0.5615
12732TIP3    H159611   2.166   0.582  15.525 -1.0025 -0.2010 -2.0588
12732TIP3    H259612   2.037   0.655  15.555 -0.3160 -0.1112  1.0380
12733TIP3   OH259613   5.696   0.176  15.451  0.1368  0.1803  0.3950
12733TIP3    H159614   5.671   0.088  15.482  2.2017 -0.4004  0.5630
12733TIP3    H259615   5.672   0.234  15.523 -4.0151  0.3221 -0.8300
12734TIP3   OH259616   2.202   4.686  12.037  0.4962 -0.5385 -0.2340
12734TIP3    H159617   2.275   4.659  11.982  1.2640  3.3807 -1.4930
12734TIP3    H259618   2.242   4.717  12.118  0.3850  1.7233 -0.9687
12735TIP3   OH259619   5.817   6.194  16.454  0.3541  0.0087 -0.2520
12735TIP3    H159620   5.824   6.166  16.545  2.7988 -1.5687 -0.8403
12735TIP3    H259621   5.775   6.121  16.409 -0.1266  0.4576 -0.5543
12736TIP3   OH259622   6.394   3.714  11.626 -0.5470 -0.1544  0.3400
12736TIP3    H159623   6.329   3.674  11.683  0.7614 -1.7178  0.8243
12736TIP3    H259624   6.408   3.650  11.556 -1.8653  1.5794 -1.6268
12737TIP3   OH259625   5.209   2.184   6.759  0.3696  0.5359  0.1463
12737TIP3    H159626   5.202   2.142   6.674 -0.9657 -0.6415  0.8029
12737TIP3    H259627   5.247   2.117   6.816 -1.7765  0.1287  1.2041
12738TIP3   OH259628   6.357   3.570  12.695  0.2674  0.0431  0.2919
12738TIP3    H159629   6.376   3.479  12.672 -1.9497 -0.0315 -1.5920
12738TIP3    H259630   6.288   3.564  12.761  0.4538  0.3576  0.5163
12739TIP3   OH259631   4.678   6.254  13.000  0.4582 -0.1057 -0.0059
12739TIP3    H159632   4.584   6.244  12.984  0.4650  0.7809 -0.6698
12739TIP3    H259633   4.714   6.276  12.914  1.3464 -0.8603  0.1589
12740TIP3   OH259634   4.745   3.550   0.962 -0.3308  0.4813  0.1452
12740TIP3    H159635   4.773   3.537   1.052 -0.1193  1.6209  0.2590
12740TIP3    H259636   4.822   3.585   0.917 -0.6480  0.6163 -0.3008
12741TIP3   OH259637   5.366   4.131   0.361  0.5763  0.1149  0.1113
12741TIP3    H159638   5.452   4.096   0.386  1.0293 -0.7955 -2.4098
12741TIP3    H259639   5.375   4.154   0.268 -1.5389  1.2579  0.1174
12742TIP3   OH259640   2.711   1.855   0.374 -0.4031 -0.2248 -0.2290
12742TIP3    H159641   2.639   1.900   0.419  0.4931  0.2248  0.8022
12742TIP3    H259642   2.750   1.798   0.441 -1.1562 -2.1655 -1.3614
12743TIP3   OH259643   5.414   6.308   6.107  0.3678 -0.1297  0.5717
12743TIP3    H159644   5.468   6.352   6.173  0.4351 -0.2435  0.5931
12743TIP3    H259645   5.447   6.218   6.105  0.3864 -0.1204  0.3635
12744TIP3   OH259646   4.762   4.796   2.960 -0.3768  0.3827 -0.5631
12744TIP3    H159647   4.748   4.889   2.940  0.6446  0.7920  0.5171
12744TIP3    H259648   4.794   4.758   2.879  0.5533  1.2931 -0.6428
12745TIP3   OH259649   0.646   0.486  15.106  0.4965 -0.3136 -0.2984
12745TIP3    H159650   0.567   0.528  15.141 -0.4952 -0.6820 -1.9764
12745TIP3    H259651   0.718   0.534  15.146 -0.5559 -0.2575  1.6297
12746TIP3   OH259652   3.555   2.427   5.547 -0.5327 -0.4173 -0.2195
12746TIP3    H159653   3.538   2.357   5.610 -0.6277 -0.3890 -0.2129
12746TIP3    H259654   3.484   2.489   5.561 -0.0722  0.0095  0.2433
12747TIP3   OH259655   0.795   0.706  11.775 -0.2171  0.3339 -0.2300
12747TIP3    H159656   0.871   0.649  11.761 -0.3486 -0.4487  1.9190
12747TIP3    H259657   0.720   0.653  11.747 -0.1103  0.5370 -0.9158
12748TIP3   OH259658   3.054   5.279  17.003 -0.1086  0.2931  0.1716
12748TIP3    H159659   2.981   5.244  16.951  1.3126 -0.7080 -1.2584
12748TIP3    H259660   3.015   5.351  17.053 -1.8816  0.3920 -1.2244
12749TIP3   OH259661   3.778   6.344  11.141 -0.0209  0.1171 -0.2128
12749TIP3    H159662   3.715   6.312  11.077 -0.4756  1.2164 -0.3369
12749TIP3    H259663   3.732   6.338  11.225  0.2612 -0.4965 -0.0947
12750TIP3   OH259664   1.923   2.622  10.796  0.3423  0.0165 -0.2981
12750TIP3    H159665   1.847   2.591  10.845  0.8571 -0.3529  0.2809
12750TIP3    H259666   1.919   2.576  10.712 -0.0621 -0.0108 -0.2646
12751TIP3   OH259667   0.634   3.458  12.403  0.5194 -0.3685 -0.0455
12751TIP3    H159668   0.592   3.441  12.487  1.5120 -0.7282  0.4017
12751TIP3    H259669   0.619   3.379  12.352  0.2405 -0.3006 -0.0699
12752TIP3   OH259670   4.930   5.011  11.765 -0.0699 -0.2599  0.2044
12752TIP3    H159671   4.893   4.974  11.846  1.8492  1.0663  1.7947
12752TIP3    H259672   5.022   4.987  11.768  1.2300  3.9335  1.1144
12753TIP3   OH259673   1.483   3.380   4.471  0.1032  0.2169  0.1433
12753TIP3    H159674   1.556   3.325   4.442 -0.3544 -0.2508 -0.1304
12753TIP3    H259675   1.452   3.338   4.551 -0.0548  0.2476  0.0986
12754TIP3   OH259676   1.239   3.463  12.779  0.3990  0.0578 -0.0487
12754TIP3    H159677   1.224   3.462  12.873  1.6111  0.1220  0.1651
12754TIP3    H259678   1.178   3.529  12.746 -1.9054 -1.7795  0.3080
12755TIP3   OH259679   2.681   3.641  13.381  0.0610  0.2452  0.4022
12755TIP3    H159680   2.764   3.685  13.400  0.2372  0.6052 -1.0825
12755TIP3    H259681   2.626   3.709  13.342 -1.1706  0.1565  1.8861
12756TIP3   OH259682   4.295   4.932  10.578 -0.1444  0.5777  0.3039
12756TIP3    H159683   4.353   4.960  10.648 -0.9445  0.9190  0.8458
12756TIP3    H259684   4.315   4.992  10.505  0.6496  0.2532  0.2559
12757TIP3   OH259685   2.578   5.081  12.213  0.0218 -0.0105 -0.0358
12757TIP3    H159686   2.563   5.063  12.306 -1.0832  0.4413 -0.1139
12757TIP3    H259687   2.659   5.034  12.193 -0.4444 -1.2302  0.8174
12758TIP3   OH259688   6.433   1.602   0.141  0.2944  0.3111 -0.0249
12758TIP3    H159689   6.359   1.581   0.198  1.6078 -0.8504  1.3457
12758TIP3    H259690   6.394   1.613   0.054 -1.4713 -0.2364  0.6525
12759TIP3   OH259691   2.676   4.285  15.769 -0.0079  0.0387  0.5532
12759TIP3    H159692   2.737   4.236  15.824  0.6227  0.5696  0.3297
12759TIP3    H259693   2.730   4.350  15.725 -0.2916 -1.0602 -1.5466
12760TIP3   OH259694   0.186   6.233  14.670  0.7584 -0.4970 -0.4865
12760TIP3    H159695   0.150   6.321  14.672  0.7797 -0.4955 -0.1701
12760TIP3    H259696   0.196   6.213  14.577  2.2973  0.4783 -0.5719
12761TIP3   OH259697   4.458   5.749  16.046  0.3646  0.2031  0.6115
12761TIP3    H159698   4.388   5.763  15.982  0.0935  0.5141  0.9704
12761TIP3    H259699   4.424   5.681  16.105 -0.5842  1.8787  2.1060
12762TIP3   OH259700   2.621   3.122   2.452 -0.1666 -0.0154  0.4390
12762TIP3    H159701   2.675   3.199   2.470  0.8380 -0.6001 -0.0263
12762TIP3    H259702   2.532   3.150   2.475  0.0336  1.5815 -0.5676
12763TIP3   OH259703   6.408   6.570   0.362  0.0632 -0.2662 -0.0662
12763TIP3    H159704   6.329   6.618   0.387  0.3211 -0.7437  1.8143
12763TIP3    H259705   6.379   6.479   0.352 -0.0066 -0.1064 -1.4537
12764TIP3   OH259706   2.762   4.315  13.441 -0.4112  0.0444 -0.5693
12764TIP3    H159707   2.723   4.356  13.518  1.8120  1.4582 -0.1221
12764TIP3    H259708   2.854   4.305  13.462  0.0342 -0.6759 -2.5872
12765TIP3   OH259709   2.096   5.047   4.737  0.0051  0.2349 -0.1615
12765TIP3    H159710   2.030   5.028   4.671 -0.5110  1.7099 -0.1014
12765TIP3    H259711   2.172   5.079   4.687 -0.8391  2.6380 -0.0524
12766TIP3   OH259712   2.241   5.294   3.851  0.2644  0.6490  0.1761
12766TIP3    H159713   2.169   5.327   3.906  0.3193  0.1807  0.5339
12766TIP3    H259714   2.220   5.202   3.838  0.5160  0.6416 -0.1835
12767TIP3   OH259715   2.799   3.909  12.185 -0.5355  0.6150  0.4223
12767TIP3    H159716   2.871   3.874  12.134 -0.8335  0.4504  0.1100
12767TIP3    H259717   2.726   3.850  12.168 -0.9365  1.1651  0.1896
12768TIP3   OH259718   5.733   1.416  11.800  0.6928  0.1906 -0.2576
12768TIP3    H159719   5.650   1.379  11.833  0.2105  1.0720 -0.4567
12768TIP3    H259720   5.721   1.421  11.705  1.1295 -0.0233 -0.3278
12769TIP3   OH259721   1.061   2.931  10.642  0.1099  0.0099 -0.9030
12769TIP3    H159722   0.965   2.941  10.643  0.1824  1.0187  0.8614
12769TIP3    H259723   1.077   2.849  10.688  0.0586 -1.6038 -3.5419
12770TIP3   OH259724   5.180   2.628   3.425 -0.0589 -0.4248 -0.3502
12770TIP3    H159725   5.130   2.603   3.502 -2.1135  1.9715 -0.7806
12770TIP3    H259726   5.246   2.690   3.458 -0.7683  0.3984 -0.4502
12771TIP3   OH259727   2.090   3.713   2.973 -0.1533 -0.0180  0.4017
12771TIP3    H159728   2.033   3.645   3.010 -1.3425  0.6591 -0.1203
12771TIP3    H259729   2.131   3.670   2.897 -1.4396  0.0109 -0.3519
12772TIP3   OH259730   1.659   1.517  15.272  0.0117  0.2568  0.0667
12772TIP3    H159731   1.624   1.547  15.189  0.3125  0.1329 -0.1059
12772TIP3    H259732   1.635   1.586  15.335  0.6122  0.8133 -0.3031
12773TIP3   OH259733   0.029   0.464  16.120  0.3723  0.1452 -0.3263
12773TIP3    H159734   0.104   0.430  16.169  0.7330  0.6520 -0.5264
12773TIP3    H259735   0.067   0.511  16.046 -0.1774 -1.4351 -1.6692
12774TIP3   OH259736   0.034   1.703   2.820  0.3174  0.2753 -0.0304
12774TIP3    H159737  -0.007   1.755   2.888  1.9420  0.6565  0.6950
12774TIP3    H259738  -0.013   1.727   2.740 -2.4295 -1.0610  1.0449
12775TIP3   OH259739   2.838   0.424  15.729  0.3745 -0.3961  0.2494
12775TIP3    H159740   2.808   0.504  15.772  0.6694 -0.3446  0.3646
12775TIP3    H259741   2.934   0.427  15.737  0.3023 -1.7792  2.0953
12776TIP3   OH259742   2.474   2.816   2.479  0.1451  0.1541 -0.2406
12776TIP3    H159743   2.429   2.756   2.419 -1.9750  2.1359 -0.7575
12776TIP3    H259744   2.544   2.855   2.425  0.8408 -1.0006 -0.2064
12777TIP3   OH259745   0.925   0.716  16.056 -0.0146 -0.7091 -0.0824
12777TIP3    H159746   0.951   0.702  16.147  2.1395  0.8289 -0.4000
12777TIP3    H259747   0.872   0.796  16.059 -1.1548 -1.4285 -0.0504
12778TIP3   OH259748   4.041   1.257  14.278  0.6780  0.6869 -0.1285
12778TIP3    H159749   4.057   1.329  14.339  0.7783  1.0154 -0.5382
12778TIP3    H259750   4.057   1.178  14.330  0.0151  0.9419  0.4808
12779TIP3   OH259751   0.257   4.718   0.204  0.2158  0.0964 -0.4425
12779TIP3    H159752   0.215   4.699   0.120 -0.4301  0.6042 -0.2442
12779TIP3    H259753   0.312   4.642   0.221 -0.1777 -0.3220 -0.9998
12780TIP3   OH259754   6.415   3.890  16.762 -0.4174  0.2415 -0.2767
12780TIP3    H159755   6.322   3.907  16.754 -0.4471 -0.2288 -0.9640
12780TIP3    H259756   6.421   3.809  16.814 -0.4549 -0.5671 -1.4908
12781TIP3   OH259757   5.263   4.917   6.684 -0.1919 -0.0946 -0.3941
12781TIP3    H159758   5.282   5.008   6.706  0.0962 -0.5046  1.1146
12781TIP3    H259759   5.273   4.913   6.588 -0.1162  1.4212 -0.4668
12782TIP3   OH259760   6.111   5.190   6.130 -0.3013 -0.0715 -0.5185
12782TIP3    H159761   6.074   5.229   6.051 -0.1782 -1.3879 -1.2483
12782TIP3    H259762   6.161   5.261   6.170 -3.4645  1.8108  0.4944
12783TIP3   OH259763   4.004   3.912   3.310  0.1407 -0.4571  0.5496
12783TIP3    H159764   3.912   3.932   3.328 -0.1900  1.0120 -2.3139
12783TIP3    H259765   4.001   3.849   3.238  1.3833 -0.1578  0.2200
12784TIP3   OH259766   4.959   5.343  13.230  0.1362  0.2246 -0.0874
12784TIP3    H159767   4.900   5.313  13.162 -0.3582  0.1543  0.3698
12784TIP3    H259768   5.024   5.273  13.238 -0.3360 -0.1901  0.1568
12785TIP3   OH259769   0.797   0.564  11.063  0.0764  0.4903  0.1850
12785TIP3    H159770   0.811   0.533  11.153 -0.2506 -1.4565 -0.3844
12785TIP3    H259771   0.847   0.645  11.058  0.6453  0.3063  1.9303
12786TIP3   OH259772   2.371   6.261   2.694  0.7342  0.4325  0.3077
12786TIP3    H159773   2.287   6.220   2.717  1.0839 -0.0170  0.8284
12786TIP3    H259774   2.352   6.312   2.616 -0.3273  1.3615  1.1338
12787TIP3   OH259775   4.476   0.173  15.363  0.0867 -0.3013  0.1013
12787TIP3    H159776   4.447   0.246  15.308  0.0545 -0.3720  0.0238
12787TIP3    H259777   4.534   0.213  15.428 -1.9486  0.2460  1.7065
12788TIP3   OH259778   1.057   1.476  13.419 -0.1373  0.4532  0.2240
12788TIP3    H159779   1.121   1.423  13.372 -0.3398 -0.1284  0.5935
12788TIP3    H259780   1.020   1.534  13.352  1.4921  1.5254  0.1972
12789TIP3   OH259781   1.666   2.789   1.092  0.8085 -0.4958 -0.2006
12789TIP3    H159782   1.642   2.850   1.022 -0.5930 -0.4676  0.2773
12789TIP3    H259783   1.651   2.702   1.054 -0.1002 -0.4789  0.0853
12790TIP3   OH259784   2.892   3.544  16.822  0.2605 -0.2331 -0.1710
12790TIP3    H159785   2.868   3.454  16.801  0.2320  0.0914 -1.6428
12790TIP3    H259786   2.967   3.563  16.766 -0.0786  0.8257 -0.3049
12791TIP3   OH259787   5.269   5.645  11.504 -0.3784 -0.1524  0.2452
12791TIP3    H159788   5.323   5.588  11.559 -0.0828 -1.0279 -0.9127
12791TIP3    H259789   5.311   5.642  11.418  0.5782  3.0888  0.4709
12792TIP3   OH259790   5.518   0.054  16.069 -0.3880  0.0862 -0.4653
12792TIP3    H159791   5.535   0.012  16.154 -2.3653 -0.9109 -0.5044
12792TIP3    H259792   5.453   0.121  16.088 -0.2336  0.4199 -1.0835
12793TIP3   OH259793   6.406   4.723  10.787 -0.3614  0.5178 -0.1504
12793TIP3    H159794   6.447   4.638  10.800 -0.0807  0.7339  0.3916
12793TIP3    H259795   6.326   4.719  10.839 -0.2704  0.6463 -0.0041
12794TIP3   OH259796   2.104   6.535   2.880 -0.5400  0.0928 -0.3075
12794TIP3    H159797   2.133   6.531   2.971  1.0734  1.2288 -0.7371
12794TIP3    H259798   2.070   6.447   2.863 -0.0071 -0.4289  1.1043
12795TIP3   OH259799   2.492   3.469  11.156  1.0510  0.5263 -0.5178
12795TIP3    H159800   2.427   3.448  11.089 -1.3200  0.9773  1.4967
12795TIP3    H259801   2.567   3.414  11.135 -0.9740 -2.0710 -1.4453
12796TIP3   OH259802   2.175   3.571   3.351  0.1545  0.1892  0.2008
12796TIP3    H159803   2.141   3.521   3.425  1.6388  0.2430  0.9529
12796TIP3    H259804   2.142   3.525   3.274 -1.0802 -0.1060  0.8640
12797TIP3   OH259805   1.373   4.157   0.483 -0.1062 -0.0426 -0.2390
12797TIP3    H159806   1.335   4.151   0.571 -1.6305 -1.0334 -0.9212
12797TIP3    H259807   1.368   4.068   0.449  1.0700  0.2014 -1.1001
12798TIP3   OH259808   0.535   4.115   2.655 -0.1688  0.2935  0.0220
12798TIP3    H159809   0.587   4.104   2.735 -0.8383  0.1149  0.4421
12798TIP3    H259810   0.445   4.105   2.684 -0.3880 -0.3852 -0.8709
12799TIP3   OH259811   0.888   1.994  16.201  0.1464 -0.0139 -0.3758
12799TIP3    H159812   0.815   1.997  16.262  0.9029  0.5174  0.5248
12799TIP3    H259813   0.847   1.988  16.115 -0.9859  0.9920  0.0605
12800TIP3   OH259814   3.250   0.695   4.980 -0.1120 -0.1803  0.0843
12800TIP3    H159815   3.184   0.685   4.911 -0.7885  0.0200  0.6833
12800TIP3    H259816   3.329   0.657   4.943 -0.9383 -1.8029 -0.0944
12801TIP3   OH259817   6.025   5.466   2.158  0.2356 -0.0297  0.9519
12801TIP3    H159818   6.045   5.395   2.218  1.0297  0.9735  1.9220
12801TIP3    H259819   6.109   5.491   2.121 -0.1708 -0.2369 -0.1368
12802TIP3   OH259820   5.554   1.555   1.706 -0.1538 -0.2783 -0.0203
12802TIP3    H159821   5.597   1.520   1.628 -0.7361  1.9070 -1.4094
12802TIP3    H259822   5.582   1.497   1.777  2.0524 -1.1294 -1.4762
12803TIP3   OH259823   4.901   3.516  13.814  0.2769  0.4896 -0.4000
12803TIP3    H159824   4.909   3.555  13.727 -0.6338  0.0727 -0.6827
12803TIP3    H259825   4.814   3.476  13.815  0.9131 -0.9521  0.1265
12804TIP3   OH259826   4.876   2.477  13.788  0.6864 -0.0556  0.2150
12804TIP3    H159827   4.821   2.518  13.722  1.1333 -2.5153 -1.8383
12804TIP3    H259828   4.954   2.448  13.740  1.3668 -1.3160  1.9805
12805TIP3   OH259829   5.464   1.041  17.047  0.3427  0.0801  0.2681
12805TIP3    H159830   5.548   1.001  17.073 -0.9435 -1.7633  1.9847
12805TIP3    H259831   5.435   0.989  16.972 -0.4957 -1.1590  1.3984
12806TIP3   OH259832   5.922   3.214   1.143 -0.2537  0.3525  0.0915
12806TIP3    H159833   5.935   3.279   1.074 -3.6609  1.3335  0.1892
12806TIP3    H259834   5.878   3.261   1.213 -2.0370 -1.8143  0.5556
12807TIP3   OH259835   0.236   2.653   0.873  0.1891 -0.8001 -0.0452
12807TIP3    H159836   0.195   2.568   0.888 -2.1834  0.3183  0.3543
12807TIP3    H259837   0.222   2.671   0.780 -0.7043 -0.2461  0.1716
12808TIP3   OH259838   0.002   3.590  14.870  0.0413 -0.0643 -0.7491
12808TIP3    H159839   0.094   3.568  14.883  0.0989  1.1312  1.1863
12808TIP3    H259840   0.003   3.681  14.841 -0.5268 -0.3456 -1.7217
12809TIP3   OH259841   0.574   0.569  16.523  0.5119  0.2493  0.3413
12809TIP3    H159842   0.599   0.516  16.599 -0.1867 -0.2288  0.2446
12809TIP3    H259843   0.521   0.639  16.560 -0.0274 -0.1179  0.2761
12810TIP3   OH259844   0.596   3.995  17.256  0.2559  0.3849 -0.0757
12810TIP3    H159845   0.572   4.017  17.346 -0.0720  0.8915 -0.2849
12810TIP3    H259846   0.668   3.933  17.265 -1.5128 -1.7061  0.5816
12811TIP3   OH259847   2.936   1.622  17.244 -0.7271  0.5414  0.5500
12811TIP3    H159848   3.002   1.608  17.176 -1.2995 -1.0585  0.2796
12811TIP3    H259849   2.970   1.576  17.321 -1.0840  0.5167  0.6962
12812TIP3   OH259850   3.238   3.678   0.420  0.0687  0.1529 -0.0445
12812TIP3    H159851   3.214   3.711   0.334  1.1082  1.2556  0.0528
12812TIP3    H259852   3.220   3.751   0.480 -1.4131 -0.8772  0.8132
12813TIP3   OH259853   2.185   4.212   6.474  0.1634 -0.5197 -0.4557
12813TIP3    H159854   2.215   4.294   6.513 -0.7693 -0.3900  0.0049
12813TIP3    H259855   2.265   4.163   6.459  0.6562  0.0314  0.2751
12814TIP3   OH259856   2.891   3.504   3.466  0.2155 -0.1404 -0.3318
12814TIP3    H159857   2.902   3.516   3.371  1.1024 -0.9109 -0.3317
12814TIP3    H259858   2.803   3.468   3.475 -0.4776  1.3678 -0.7317
12815TIP3   OH259859   2.137   5.038   3.992  0.2867 -0.2999  0.6299
12815TIP3    H159860   2.081   5.115   3.983  0.3023 -0.4001 -0.5741
12815TIP3    H259861   2.216   5.070   4.034 -0.3110  0.0232  1.5375
12816TIP3   OH259862   6.616   0.860  12.495  0.2586 -0.4770  0.0485
12816TIP3    H159863   6.597   0.938  12.546  0.8060  0.3455 -0.9686
12816TIP3    H259864   6.574   0.876  12.410  0.8465 -1.0276 -0.3622
12817TIP3   OH259865   0.598   0.090  13.961 -0.5493 -0.4117 -0.0610
12817TIP3    H159866   0.608  -0.002  13.983  0.2271 -0.4292 -0.4656
12817TIP3    H259867   0.572   0.132  14.043 -1.3482 -1.0471  0.0282
12818TIP3   OH259868   4.225   6.553  11.939  0.0401 -0.2107 -0.7655
12818TIP3    H159869   4.286   6.584  11.873  2.1091 -0.4250  0.9559
12818TIP3    H259870   4.139   6.558  11.896  1.0107  1.7541 -2.6777
12819TIP3   OH259871   1.605   1.041   4.382 -0.0281 -0.2263  0.2142
12819TIP3    H159872   1.637   0.982   4.314 -0.1617 -1.1520  0.9533
12819TIP3    H259873   1.572   0.984   4.451 -0.1347  0.7065  0.9536
12820TIP3   OH259874   0.045   6.459  12.556 -0.6849 -0.0381  0.4103
12820TIP3    H159875   0.023   6.404  12.631 -2.3501 -0.4531 -0.3345
12820TIP3    H259876  -0.035   6.462  12.504  0.9115 -1.3388 -2.3480
12821TIP3   OH259877   0.277   2.877   5.174 -0.1190  0.2784  0.3975
12821TIP3    H159878   0.204   2.826   5.211 -2.0425  2.3844 -0.2595
12821TIP3    H259879   0.304   2.934   5.246  1.1852 -0.7650  0.7564
12822TIP3   OH259880   5.750   1.913   4.245 -0.1567  0.2940  0.6859
12822TIP3    H159881   5.804   1.963   4.306  1.7469 -1.5360  0.6421
12822TIP3    H259882   5.804   1.837   4.223 -3.5676 -2.9912  2.4267
12823TIP3   OH259883   5.684   0.265  12.377 -0.1378 -0.3654 -0.8867
12823TIP3    H159884   5.744   0.241  12.307  0.5700  0.3277 -0.5475
12823TIP3    H259885   5.682   0.361  12.374  1.2807 -0.2098  1.1046
12824TIP3   OH259886   4.212   2.289   2.631 -0.2010  0.1178 -0.4141
12824TIP3    H159887   4.240   2.222   2.569 -1.9393 -1.0800  0.0338
12824TIP3    H259888   4.294   2.330   2.660  0.8136 -0.9366 -1.6533
12825TIP3   OH259889   4.992   0.189  14.637 -0.0201 -0.8188  0.2777
12825TIP3    H159890   5.057   0.197  14.567  0.0197 -1.2709  0.2639
12825TIP3    H259891   4.998   0.098  14.666 -0.7223 -0.8945  0.2029
12826TIP3   OH259892   1.428   3.755  15.256  0.2712 -0.3576 -0.0416
12826TIP3    H159893   1.443   3.688  15.189  1.6380  0.7379 -0.9038
12826TIP3    H259894   1.431   3.837  15.207 -0.9471  0.3600  1.0526
12827TIP3   OH259895   5.350   5.695   4.263  0.3511 -0.2857 -0.2206
12827TIP3    H159896   5.292   5.726   4.194  0.4301 -1.9751 -1.1129
12827TIP3    H259897   5.325   5.745   4.340 -0.3507  1.0234 -1.2521
12828TIP3   OH259898   4.362   2.801   2.704 -0.3584  0.2158 -0.0877
12828TIP3    H159899   4.445   2.830   2.665 -0.3847 -0.5047 -0.7073
12828TIP3    H259900   4.295   2.843   2.651 -0.3955 -0.8542 -0.9143
12829TIP3   OH259901   4.203   1.611  14.063  0.0328  0.0633  0.3996
12829TIP3    H159902   4.223   1.627  13.971  1.8816  0.8557  0.9017
12829TIP3    H259903   4.204   1.516  14.072  1.3294  0.0101 -0.1137
12830TIP3   OH259904   3.320   2.844   2.809 -0.1964 -0.2808  0.4437
12830TIP3    H159905   3.273   2.898   2.872  0.5769 -1.8379  2.4455
12830TIP3    H259906   3.412   2.863   2.825  0.0210 -0.5550 -0.3917
12831TIP3   OH259907   5.531   3.549   4.886 -0.0219  0.8242  0.2531
12831TIP3    H159908   5.543   3.582   4.975 -0.8224 -0.1876  0.7504
12831TIP3    H259909   5.542   3.626   4.830  1.3156  1.3199  1.1543
12832TIP3   OH259910   5.744   6.504  16.371  0.1915  0.0691 -0.1012
12832TIP3    H159911   5.823   6.550  16.399  0.1787 -0.0050  0.0561
12832TIP3    H259912   5.770   6.412  16.368 -0.1286 -0.0670  0.8206
12833TIP3   OH259913   0.974   6.266  15.336 -0.6090 -0.4546  0.0287
12833TIP3    H159914   0.995   6.224  15.419  0.0422 -0.8873 -0.3520
12833TIP3    H259915   0.931   6.198  15.285  0.5100 -0.6950 -0.6176
12834TIP3   OH259916   1.332   4.737  11.977 -0.2093  0.3129  0.1965
12834TIP3    H159917   1.384   4.817  11.970 -0.1484  0.3540  1.0329
12834TIP3    H259918   1.276   4.738  11.899 -0.1332  1.1090  0.1428
12835TIP3   OH259919   0.544   0.310   0.398 -0.1546  0.3620  0.1867
12835TIP3    H159920   0.590   0.349   0.472  0.5093 -1.5746  0.8583
12835TIP3    H259921   0.568   0.365   0.323 -0.3396  1.9857  1.2643
12836TIP3   OH259922   6.590   3.908   5.630 -0.2280  0.1742 -0.1238
12836TIP3    H159923   6.535   3.874   5.559  0.7210 -1.8695  0.0496
12836TIP3    H259924   6.535   3.904   5.708 -2.0118  4.3865 -0.9147
12837TIP3   OH259925   2.833   4.127   4.129 -0.0642  0.8067  0.2909
12837TIP3    H159926   2.914   4.178   4.125  0.9617 -0.5323  2.3051
12837TIP3    H259927   2.809   4.112   4.038  1.9823  1.1955 -0.3498
12838TIP3   OH259928   3.980   4.140  12.985  0.4749 -0.3298  0.3431
12838TIP3    H159929   3.922   4.064  12.977 -2.1588  1.5778 -0.1286
12838TIP3    H259930   3.971   4.187  12.902  0.5175  1.4653  1.2891
12839TIP3   OH259931   2.034   1.299  15.759 -0.2140 -0.0780 -0.4733
12839TIP3    H159932   2.081   1.340  15.832 -1.0090  0.5919 -0.3242
12839TIP3    H259933   2.095   1.306  15.685 -0.0577  0.7700 -0.2798
12840TIP3   OH259934   1.927   4.462  12.363  0.6258  0.2057  0.0877
12840TIP3    H159935   2.014   4.440  12.330  0.4171  0.7034 -0.8280
12840TIP3    H259936   1.927   4.557  12.370  0.0814  0.2258 -0.1317
12841TIP3   OH259937   0.179   2.293   2.497  0.0687  0.1598  0.2265
12841TIP3    H159938   0.169   2.388   2.510 -1.4824  0.3534 -1.8894
12841TIP3    H259939   0.118   2.254   2.560  1.2386  0.4775  1.6196
12842TIP3   OH259940   3.073   2.628  17.068 -0.2395  0.0653 -0.0790
12842TIP3    H159941   3.159   2.586  17.060 -0.3130 -0.1012  0.0020
12842TIP3    H259942   3.023   2.594  16.994  0.0784  0.9298 -0.7126
12843TIP3   OH259943   6.299   4.843  14.300 -0.4960 -0.6368  0.5722
12843TIP3    H159944   6.371   4.878  14.248 -1.5161 -0.5262 -0.8367
12843TIP3    H259945   6.296   4.750  14.279 -1.2223 -0.5004 -0.0086
12844TIP3   OH259946   1.043   3.002   5.000  0.5302 -0.4326 -0.6551
12844TIP3    H159947   0.961   2.953   5.003 -0.5519  1.2689 -0.8164
12844TIP3    H259948   1.083   2.979   4.916 -1.2643  0.8959 -1.9592
12845TIP3   OH259949   4.527   0.552  11.865 -0.1313 -0.4373  0.4799
12845TIP3    H159950   4.560   0.516  11.783 -0.7322 -0.8895  0.4253
12845TIP3    H259951   4.480   0.479  11.906 -0.8172  0.1023  0.6792
12846TIP3   OH259952   2.572   0.332  12.153 -0.5358  0.8816  0.1159
12846TIP3    H159953   2.555   0.383  12.233 -0.5994 -0.3399  0.9113
12846TIP3    H259954   2.614   0.253  12.185  0.1805  0.7298 -1.1648
12847TIP3   OH259955   5.705   3.807   2.870  0.1157 -0.1287 -0.6478
12847TIP3    H159956   5.615   3.774   2.865  0.1687 -0.2600 -0.7143
12847TIP3    H259957   5.722   3.815   2.964 -0.1028  0.2682 -0.6388
12848TIP3   OH259958   0.340   4.328  10.932  0.0218  0.5150 -0.4878
12848TIP3    H159959   0.283   4.279  10.873  2.0817 -0.9708 -1.3985
12848TIP3    H259960   0.414   4.355  10.877  1.2177  0.5097  1.0382
12849TIP3   OH259961   6.146   6.479   0.778 -0.1318  0.2362 -0.7501
12849TIP3    H159962   6.112   6.546   0.719 -1.1792 -0.6779 -1.2177
12849TIP3    H259963   6.073   6.458   0.836  1.0933  1.6459  1.4271
12850TIP3   OH259964   1.195   5.392  14.948 -0.4472 -0.4708  0.0547
12850TIP3    H159965   1.272   5.342  14.921 -0.6936 -0.9405  0.2150
12850TIP3    H259966   1.141   5.329  14.996 -1.5236 -0.4708 -1.1110
12851TIP3   OH259967   5.418   3.943  12.448 -0.2862 -0.1376  0.0814
12851TIP3    H159968   5.371   3.892  12.514 -1.8076  0.1661 -0.7176
12851TIP3    H259969   5.453   4.018  12.496  0.8573 -1.2182  1.0127
12852TIP3   OH259970   2.557   3.770  12.074  0.3924  0.3972  0.2329
12852TIP3    H159971   2.574   3.736  12.162  1.8669 -0.7315 -0.4451
12852TIP3    H259972   2.612   3.717  12.017 -0.1675  1.4313 -1.3293
12853TIP3   OH259973   5.979   2.160   0.463 -0.4866 -0.4444  0.4892
12853TIP3    H159974   6.008   2.251   0.454  0.2311 -0.6349  0.7888
12853TIP3    H259975   5.988   2.124   0.375  1.8494 -0.9629  0.8915
12854TIP3   OH259976   4.282   2.907  11.861  0.4418  0.0946 -0.8732
12854TIP3    H159977   4.290   2.827  11.809 -0.6416 -1.1527  0.7596
12854TIP3    H259978   4.214   2.886  11.926  1.8769  1.4654  1.1689
12855TIP3   OH259979   0.070   2.112   1.713  0.3795  0.4778  0.2321
12855TIP3    H159980   0.118   2.031   1.730 -2.0198 -0.8176  1.2384
12855TIP3    H259981   0.077   2.161   1.795 -0.1914  0.1842  0.4586
12856TIP3   OH259982   5.783   2.149  16.660 -0.3562 -0.4506 -0.0862
12856TIP3    H159983   5.856   2.175  16.717  1.9539 -1.5639 -2.3370
12856TIP3    H259984   5.793   2.204  16.583 -4.6405  2.5040  1.1116
12857TIP3   OH259985   4.497   2.762   1.523 -0.5511  0.4939 -0.3154
12857TIP3    H159986   4.519   2.844   1.567  0.2296  0.2035 -0.1581
12857TIP3    H259987   4.406   2.746   1.547 -0.6662  1.2339 -0.2225
12858TIP3   OH259988   3.711   3.815  10.747  0.7581  0.0796 -0.0690
12858TIP3    H159989   3.660   3.895  10.735  1.2179  0.2285 -1.2190
12858TIP3    H259990   3.649   3.744  10.732  0.7461  0.2522 -0.8845
12859TIP3   OH259991   0.827   2.768  15.183 -0.3002  0.3622 -0.1345
12859TIP3    H159992   0.857   2.780  15.273 -0.6008  1.6399 -0.1920
12859TIP3    H259993   0.733   2.751  15.192 -0.3574  0.6371 -0.2198
12860TIP3   OH259994   0.444   6.236  13.495  0.6784 -0.0732 -0.0023
12860TIP3    H159995   0.423   6.171  13.428 -1.5174 -0.7884  1.2810
12860TIP3    H259996   0.469   6.184  13.572  0.2068  0.6289  0.6397
12861TIP3   OH259997   5.317   5.605  16.045 -0.6458  0.2664  0.4467
12861TIP3    H159998   5.347   5.657  15.971  0.0507  0.5768  0.9351
12861TIP3    H259999   5.248   5.658  16.085 -0.8725  0.1965  0.1512
12862TIP3   OH260000   5.459   2.907  13.680  0.3451 -0.2334 -0.4954
12862TIP3    H160001   5.438   2.822  13.641 -0.3061  0.4078 -1.5956
12862TIP3    H260002   5.554   2.906  13.691  0.7698  0.0041 -3.2998
12863TIP3   OH260003   6.235   0.927  11.360  0.2978  0.3437  0.7166
12863TIP3    H160004   6.237   0.837  11.394  1.4079 -0.5144 -1.4119
12863TIP3    H260005   6.168   0.925  11.291  0.6786  0.9948  0.3168
12864TIP3   OH260006   6.268   4.761  13.615  0.5241 -0.2164  0.0101
12864TIP3    H160007   6.212   4.835  13.592  0.3049 -0.0385  1.0719
12864TIP3    H260008   6.320   4.745  13.536  0.4475  0.9513 -0.2953
12865TIP3   OH260009   6.593   2.732  13.542 -0.3512 -0.1160  0.0357
12865TIP3    H160010   6.604   2.691  13.628  0.8840 -0.0294 -0.0681
12865TIP3    H260011   6.573   2.659  13.484 -2.9864  0.0045  0.6491
12866TIP3   OH260012   1.265   3.139   6.113 -0.2108  0.2954  0.1700
12866TIP3    H160013   1.170   3.149   6.104 -0.0702  3.4831  1.2419
12866TIP3    H260014   1.301   3.179   6.034  0.3183 -2.2724 -0.9969
12867TIP3   OH260015   5.499   3.842   4.702  0.0667 -0.6234  0.4441
12867TIP3    H160016   5.507   3.867   4.610 -0.9441  3.3487  1.2644
12867TIP3    H260017   5.405   3.840   4.719  0.2190 -1.8271  1.3032
12868TIP3   OH260018   1.672   0.554   4.204 -0.1948  0.1623 -0.6367
12868TIP3    H160019   1.650   0.484   4.143  0.5140 -0.8829  0.2802
12868TIP3    H260020   1.722   0.616   4.151 -0.6217 -0.1200 -1.4019
12869TIP3   OH260021   2.695   0.787   3.511  0.4579  0.1129 -0.2298
12869TIP3    H160022   2.620   0.737   3.481  0.5533 -1.1804  1.5189
12869TIP3    H260023   2.675   0.878   3.487 -0.7682 -0.4480 -1.4405
12870TIP3   OH260024   0.835   3.190   1.630  0.1966  0.1307  0.1319
12870TIP3    H160025   0.806   3.098   1.629  1.1807 -0.2026  0.8553
12870TIP3    H260026   0.754   3.241   1.626 -0.4254 -0.7717  0.8119
12871TIP3   OH260027   1.675   4.934   3.271  0.6981  0.2872  0.4237
12871TIP3    H160028   1.722   4.853   3.252  1.0761  0.4973  0.4317
12871TIP3    H260029   1.743   4.994   3.302  0.4573  0.6611  0.2450
12872TIP3   OH260030   2.729   4.463   2.441  0.2575 -0.1860 -0.5093
12872TIP3    H160031   2.815   4.478   2.401 -0.1957 -0.0352 -1.4541
12872TIP3    H260032   2.679   4.542   2.423 -0.5214 -0.8059 -1.1745
12873TIP3   OH260033   2.070   2.871   5.973 -0.3224 -0.1744 -0.3790
12873TIP3    H160034   2.103   2.816   5.902 -0.2221 -0.7730  0.1220
12873TIP3    H260035   2.148   2.897   6.021 -0.0317  2.7160 -2.1765
12874TIP3   OH260036   2.245   4.359  13.027 -0.6334  0.3620 -0.2808
12874TIP3    H160037   2.211   4.334  12.941 -0.8747 -0.6329  0.0815
12874TIP3    H260038   2.337   4.380  13.011  0.2622 -2.9855 -0.3244
12875TIP3   OH260039   4.157   1.732  15.335 -0.2100  0.1199  0.0251
12875TIP3    H160040   4.191   1.819  15.355  0.5522  0.0271 -0.7656
12875TIP3    H260041   4.213   1.672  15.384 -0.5214  0.0649  0.3099
12876TIP3   OH260042   3.621   4.354  12.088 -0.4297  0.4991 -0.1725
12876TIP3    H160043   3.640   4.400  12.006 -1.5452 -0.0759 -0.7783
12876TIP3    H260044   3.564   4.281  12.062  1.0087 -1.0567  0.7898
12877TIP3   OH260045   3.414   0.868  14.267  0.3911 -0.2282 -0.2630
12877TIP3    H160046   3.453   0.954  14.287 -0.0708 -0.4859  2.0201
12877TIP3    H260047   3.327   0.889  14.232  0.0906  0.2490  0.7360
12878TIP3   OH260048   2.726   2.938  11.812  0.5061 -0.5682  0.1259
12878TIP3    H160049   2.749   3.026  11.781  0.2779 -0.5496  0.0013
12878TIP3    H260050   2.636   2.948  11.845  0.5858 -0.6892  0.3817
12879TIP3   OH260051   4.812   3.664   2.289  0.0575 -0.0948 -0.1449
12879TIP3    H160052   4.750   3.663   2.362  0.6018 -1.9956  0.3358
12879TIP3    H260053   4.761   3.700   2.216 -1.5947 -1.4633  0.2703
12880TIP3   OH260054   4.140   1.268  14.550  0.1473  0.4984  0.0498
12880TIP3    H160055   4.168   1.188  14.505 -1.3523 -0.5928  0.9561
12880TIP3    H260056   4.221   1.316  14.566  1.3065 -1.5933  0.8412
12881TIP3   OH260057   4.573   4.803   1.300  0.1395  0.1894 -0.1841
12881TIP3    H160058   4.627   4.741   1.252  2.0009  1.0871  0.6760
12881TIP3    H260059   4.483   4.778   1.278  0.8791 -1.1050 -1.9531
12882TIP3   OH260060   2.493   3.157  16.148  0.1363 -0.2612  0.8829
12882TIP3    H160061   2.479   3.107  16.068 -2.4032  0.2471  0.9382
12882TIP3    H260062   2.518   3.245  16.118  0.6399 -0.4586  0.7083
12883TIP3   OH260063   6.227   2.735  13.998 -0.1854 -0.2633  0.2879
12883TIP3    H160064   6.191   2.647  14.006  1.3571 -0.9809 -0.1486
12883TIP3    H260065   6.209   2.760  13.907  1.7557 -1.3012 -0.4436
12884TIP3   OH260066   2.318   5.902   0.203 -0.5405  0.1653 -0.0571
12884TIP3    H160067   2.298   5.834   0.139 -0.7622 -1.8012  1.9884
12884TIP3    H260068   2.414   5.911   0.199 -0.4806 -0.4814 -0.1257
12885TIP3   OH260069   1.623   3.088   4.435 -0.3944  0.4192  0.4945
12885TIP3    H160070   1.651   2.997   4.447  0.7638 -0.0254 -3.8063
12885TIP3    H260071   1.530   3.082   4.416 -0.0288 -0.2218 -1.4195
12886TIP3   OH260072   3.521   4.064   3.588  0.4481 -0.2846 -0.1755
12886TIP3    H160073   3.550   4.129   3.651  0.1858  1.0705 -1.4093
12886TIP3    H260074   3.481   3.995   3.641  2.0357 -0.1530  1.2521
12887TIP3   OH260075   6.360   0.104   6.507 -0.8672  0.4957  0.0822
12887TIP3    H160076   6.441   0.058   6.530 -1.0900  0.5581  1.0066
12887TIP3    H260077   6.291   0.039   6.521 -0.8354 -0.2912 -2.8109
12888TIP3   OH260078   3.721   0.876   0.526  0.0881 -0.4071  0.2831
12888TIP3    H160079   3.743   0.800   0.579  1.9022 -0.2578 -0.1825
12888TIP3    H260080   3.703   0.946   0.589  1.8245 -0.3361  0.7358
12889TIP3   OH260081   4.065   5.532   6.130 -0.6364 -0.3793  0.3736
12889TIP3    H160082   4.088   5.457   6.074 -0.1155  0.7363 -0.9647
12889TIP3    H260083   4.144   5.585   6.133 -0.3955 -0.7640  2.8564
12890TIP3   OH260084   0.310   0.046   4.821 -0.0443 -0.7204 -0.6042
12890TIP3    H160085   0.264   0.065   4.903  0.4801  0.9224 -0.6407
12890TIP3    H260086   0.289   0.121   4.765  1.7854 -0.4416 -0.9840
12891TIP3   OH260087   4.527   0.170   4.875  0.4609 -0.3439 -0.2488
12891TIP3    H160088   4.566   0.189   4.960  0.5928  0.2154 -0.4293
12891TIP3    H260089   4.454   0.111   4.894  0.7186 -0.5179  0.2076
12892TIP3   OH260090   5.828   0.881   2.584  0.8387 -0.3725 -0.3482
12892TIP3    H160091   5.910   0.850   2.621  0.9132 -0.6849 -0.7595
12892TIP3    H260092   5.849   0.900   2.492  0.9866  1.6151  0.0454
12893TIP3   OH260093   4.468   2.417   5.974  0.2717 -0.2658 -0.2642
12893TIP3    H160094   4.474   2.461   5.889 -2.5207 -0.6713 -0.7541
12893TIP3    H260095   4.389   2.454   6.014  0.0152 -2.0275  0.9656
12894TIP3   OH260096   2.196   5.568   3.860 -0.5129 -0.3683 -0.5722
12894TIP3    H160097   2.263   5.500   3.856 -0.9942 -1.0866  1.9155
12894TIP3    H260098   2.218   5.628   3.789  3.1102 -0.2706  0.4408
12895TIP3   OH260099   3.589   0.089  12.015 -0.2038  0.2431  0.1777
12895TIP3    H160100   3.528   0.017  12.000 -0.6268  0.1231  2.1938
12895TIP3    H260101   3.674   0.047  12.025 -0.2310  0.1497  0.0068
12896TIP3   OH260102   4.161   0.982   0.310  0.0060 -0.1871  0.0864
12896TIP3    H160103   4.085   1.038   0.327 -0.5644 -0.7475 -0.5251
12896TIP3    H260104   4.227   1.040   0.272  0.2492  0.4981  1.4983
12897TIP3   OH260105   5.522   1.670  15.372 -0.2431 -0.2422 -0.0405
12897TIP3    H160106   5.554   1.749  15.416 -1.8113 -0.6536  1.9963
12897TIP3    H260107   5.590   1.605  15.389 -0.4030 -0.1471  1.0691
12898TIP3   OH260108   0.855   5.548  11.755 -0.1103  0.6090  0.4980
12898TIP3    H160109   0.943   5.585  11.763 -1.4757  3.8664  3.0749
12898TIP3    H260110   0.808   5.609  11.699 -0.5146 -1.8401 -2.0265
12899TIP3   OH260111   0.955   6.636  17.109  0.6656  0.3069 -0.5066
12899TIP3    H160112   0.932   6.559  17.160 -1.2244  0.8435 -0.4552
12899TIP3    H260113   1.032   6.672  17.152  1.0091 -1.0324  0.0167
12900TIP3   OH260114   3.209   2.695  10.602 -0.3573 -0.2632  0.3948
12900TIP3    H160115   3.277   2.736  10.656 -0.3598 -0.3615  0.4731
12900TIP3    H260116   3.249   2.688  10.515  0.0080 -1.0031  0.6111
12901TIP3   OH260117   4.239   1.396  12.350  0.1175 -0.2571 -0.4838
12901TIP3    H160118   4.244   1.341  12.272 -1.6175 -0.6735 -0.3482
12901TIP3    H260119   4.185   1.346  12.411  0.2427  0.6961  0.4321
12902TIP3   OH260120   0.732   5.736  11.315  0.1021 -0.8704  0.5214
12902TIP3    H160121   0.814   5.782  11.294 -0.3385 -0.3286 -0.0335
12902TIP3    H260122   0.707   5.693  11.234 -0.4053 -0.6555  0.5609
12903TIP3   OH260123   3.228   6.375   5.077 -0.0163 -0.1871 -0.6723
12903TIP3    H160124   3.320   6.398   5.064  0.7342 -2.2853  0.4676
12903TIP3    H260125   3.204   6.330   4.996  1.0316 -2.5891  0.2586
12904TIP3   OH260126   5.303   2.088   3.007  0.0949  0.4251  0.1254
12904TIP3    H160127   5.395   2.061   3.002  0.1397  0.3734  1.1153
12904TIP3    H260128   5.290   2.141   2.928  0.7564 -0.2034 -0.4241
12905TIP3   OH260129   2.855   1.890   4.124 -0.4156 -0.0533 -0.5784
12905TIP3    H160130   2.931   1.947   4.134  0.8205 -1.9138  1.7986
12905TIP3    H260131   2.863   1.855   4.036  1.0537  0.4192 -0.6580
12906TIP3   OH260132   6.761   5.236  16.327 -1.0301 -0.2828 -0.2445
12906TIP3    H160133   6.810   5.156  16.308 -1.8665 -0.8104 -0.2214
12906TIP3    H260134   6.783   5.294  16.254 -0.1890 -0.4156 -0.1130
12907TIP3   OH260135   4.083   3.006   0.093  0.1567  0.2436  1.0071
12907TIP3    H160136   4.175   3.011   0.069 -0.1683 -0.3655 -0.4875
12907TIP3    H260137   4.078   2.938   0.160  0.6606 -0.4286  0.3625
12908TIP3   OH260138   1.694   4.426  17.159 -0.1774  0.0738  0.1720
12908TIP3    H160139   1.785   4.453  17.154 -0.2681  0.1714 -2.2984
12908TIP3    H260140   1.691   4.342  17.112 -1.1775 -0.5329  1.2574
12909TIP3   OH260141   1.671   3.493  15.311 -0.5495  0.5202  0.3809
12909TIP3    H160142   1.610   3.420  15.326 -0.6499  0.8219  1.5280
12909TIP3    H260143   1.728   3.462  15.240 -0.2586 -0.8907  1.1862
12910TIP3   OH260144   2.288   6.158  15.873 -0.6031  0.2184 -0.0241
12910TIP3    H160145   2.201   6.195  15.860 -1.1123 -1.0454 -0.3901
12910TIP3    H260146   2.326   6.153  15.785  0.4203  2.0426  0.2645
12911TIP3   OH260147   1.719   3.745   0.845 -0.3389 -0.2237 -0.1854
12911TIP3    H160148   1.698   3.754   0.938 -1.1253  0.5799 -0.4296
12911TIP3    H260149   1.636   3.758   0.800  0.0711 -0.4128 -1.0123
12912TIP3   OH260150   3.921   2.086  15.063  0.2077 -0.5359 -0.0790
12912TIP3    H160151   3.929   2.078  14.968  1.3620 -1.9024  0.1046
12912TIP3    H260152   4.008   2.067  15.096  0.1621  1.3019  1.2141
12913TIP3   OH260153   0.920   1.709   1.693  0.3966 -0.0950  0.1047
12913TIP3    H160154   0.950   1.691   1.782  1.0817 -1.8439 -0.4339
12913TIP3    H260155   0.838   1.659   1.685  0.0002  0.5686 -0.0535
12914TIP3   OH260156   6.635   5.874  15.971 -0.2237  0.2125  0.3330
12914TIP3    H160157   6.601   5.956  15.936 -2.2712 -0.6155  0.1987
12914TIP3    H260158   6.581   5.806  15.929  1.5171 -1.2334  0.2924
12915TIP3   OH260159   0.134   6.011  14.822 -0.1849  0.3103 -0.1732
12915TIP3    H160160   0.120   5.931  14.771  1.1379 -0.4228  0.5642
12915TIP3    H260161   0.161   6.077  14.757  0.7250 -0.4102 -0.5549
12916TIP3   OH260162   5.470   0.813  14.316 -0.1716 -0.2499 -0.4199
12916TIP3    H160163   5.515   0.776  14.240 -0.1223  0.3594 -0.6935
12916TIP3    H260164   5.490   0.906  14.312 -1.3286  0.0061 -0.4587
12917TIP3   OH260165   0.442   2.115   6.680 -0.6203  0.0193 -0.0507
12917TIP3    H160166   0.391   2.180   6.631 -0.8267  1.1840  1.6230
12917TIP3    H260167   0.526   2.158   6.695 -1.2355  0.5559  2.2911
12918TIP3   OH260168   4.834   4.761  15.604 -0.1909 -0.2616 -0.2119
12918TIP3    H160169   4.803   4.690  15.661 -0.6087 -0.1382 -0.2796
12918TIP3    H260170   4.849   4.834  15.664 -0.1188 -0.2954 -0.1894
12919TIP3   OH260171   5.740   0.229  13.634  0.4119  0.2685  0.4951
12919TIP3    H160172   5.720   0.153  13.581 -0.8092  0.2269  0.9802
12919TIP3    H260173   5.778   0.193  13.715  0.8635  0.2450  0.2745
12920TIP3   OH260174   2.297   2.152   1.833  0.0831 -0.1376 -0.3847
12920TIP3    H160175   2.240   2.220   1.799 -0.7442 -0.2091  0.7895
12920TIP3    H260176   2.350   2.195   1.900  2.5312  0.2823 -2.4105
12921TIP3   OH260177   5.993   2.062   1.426  0.1752 -0.5279 -0.7055
12921TIP3    H160178   5.970   2.053   1.333  1.7561  0.8364 -1.2820
12921TIP3    H260179   6.033   2.149   1.432  0.3601 -0.7099  1.2208
12922TIP3   OH260180   6.321   3.168   1.517 -0.3598  0.2111 -0.3194
12922TIP3    H160181   6.362   3.137   1.598 -0.6488 -1.2111 -0.6878
12922TIP3    H260182   6.227   3.164   1.535 -0.4195  0.1263 -0.6421
12923TIP3   OH260183   4.030   4.799   4.074 -0.1309 -0.1931 -0.3289
12923TIP3    H160184   4.109   4.798   4.128 -0.0703 -1.5914 -0.4190
12923TIP3    H260185   4.029   4.886   4.034  1.6107 -0.3082 -0.6889
12924TIP3   OH260186   5.412   3.127  12.176 -0.1293  0.7328 -0.0119
12924TIP3    H160187   5.327   3.098  12.144  0.9493 -1.3999 -1.2034
12924TIP3    H260188   5.418   3.091  12.264  0.1926 -0.6651 -0.5730
12925TIP3   OH260189   4.920   1.737   5.044 -0.0431  0.3378 -0.4788
12925TIP3    H160190   4.953   1.651   5.073  1.8246  0.3020 -2.4038
12925TIP3    H260191   4.894   1.722   4.953 -3.5911  0.9344  0.2978
12926TIP3   OH260192   5.025   4.356   3.594  0.4230  0.1662  0.1100
12926TIP3    H160193   5.078   4.434   3.581 -0.4952  0.5104 -2.1487
12926TIP3    H260194   5.006   4.325   3.505  0.0998 -2.1922  0.9087
12927TIP3   OH260195   6.016   4.172   3.526  0.3933  0.2676  0.3754
12927TIP3    H160196   5.981   4.084   3.539  1.4458 -0.0085  1.5298
12927TIP3    H260197   5.951   4.215   3.471 -0.9899 -0.6936  1.1784
12928TIP3   OH260198   4.052   5.333   5.391  0.1696  0.2212  0.1356
12928TIP3    H160199   4.001   5.358   5.468 -0.8768  3.3531 -1.4152
12928TIP3    H260200   3.999   5.265   5.348 -0.7275  0.5888  0.6265
12929TIP3   OH260201   3.789   2.478   1.677  0.4478  0.4882  0.3719
12929TIP3    H160202   3.828   2.437   1.754  0.5515  0.9714  0.5826
12929TIP3    H260203   3.730   2.544   1.714 -0.7719 -0.4017  0.0728
12930TIP3   OH260204   6.150   5.928   5.932 -0.1776  0.4024 -0.3287
12930TIP3    H160205   6.213   5.902   5.999 -1.5360  1.0679  1.2686
12930TIP3    H260206   6.186   6.009   5.895  1.2538 -0.6721 -1.4163
12931TIP3   OH260207   0.125   0.159   0.631 -0.0684 -0.4453  0.0502
12931TIP3    H160208   0.100   0.225   0.696  2.3103 -0.3295  0.9502
12931TIP3    H260209   0.128   0.077   0.680 -0.1679 -0.7167 -0.3938
12932TIP3   OH260210   6.236   2.835   4.312  0.1672 -0.4163  0.0174
12932TIP3    H160211   6.238   2.924   4.349  0.9380 -0.5756  0.3973
12932TIP3    H260212   6.322   2.825   4.270  1.1478 -1.8494  2.1532
12933TIP3   OH260213   4.336   5.392   3.375  0.3489  0.0507 -0.1348
12933TIP3    H160214   4.365   5.446   3.302 -0.9363  2.0556  0.7537
12933TIP3    H260215   4.417   5.373   3.424  0.8681  1.0606 -0.5561
12934TIP3   OH260216   0.056   3.565  16.726  0.1295 -0.4129 -0.4984
12934TIP3    H160217   0.102   3.644  16.753 -1.4515  0.5988 -0.6676
12934TIP3    H260218   0.050   3.573  16.630  0.9752 -1.3327 -0.6473
12935TIP3   OH260219   0.539   2.979  17.029 -0.5129  0.1188  0.2634
12935TIP3    H160220   0.456   3.019  17.003  0.3392  1.3439 -0.6963
12935TIP3    H260221   0.594   2.985  16.950  1.4263  1.9184  1.6461
12936TIP3   OH260222   6.393   6.016  15.555  0.1923 -0.1653  0.1674
12936TIP3    H160223   6.317   6.069  15.530  0.4816 -0.3836 -1.2528
12936TIP3    H260224   6.451   6.077  15.600 -0.0155  0.4432 -0.3735
12937TIP3   OH260225   0.981   2.899  11.267 -0.3031  0.5446  0.0937
12937TIP3    H160226   0.929   2.952  11.327  1.0046  0.3115  1.5031
12937TIP3    H260227   0.917   2.848  11.219 -1.3917 -1.1103  3.0457
12938TIP3   OH260228   2.063   2.195  13.175 -0.3279 -0.4929  0.1001
12938TIP3    H160229   1.973   2.168  13.193 -0.8663  0.4198 -1.1003
12938TIP3    H260230   2.069   2.284  13.211  0.4431 -0.9401  1.1317
12939TIP3   OH260231   4.173   1.015  16.566 -0.6933  0.4446  0.9406
12939TIP3    H160232   4.106   0.950  16.542 -0.4210  0.2327  0.7573
12939TIP3    H260233   4.256   0.971  16.550 -0.5062  0.8137  0.8894
12940TIP3   OH260234   1.634   6.171   2.856  0.3489  0.2205 -0.1509
12940TIP3    H160235   1.588   6.089   2.874  2.9837 -1.0864  1.1923
12940TIP3    H260236   1.652   6.168   2.762  0.5266 -0.8361 -0.1019
12941TIP3   OH260237   4.902   2.001   1.462 -0.7424 -0.3132  0.3584
12941TIP3    H160238   4.929   1.915   1.492 -0.9419 -0.3971  0.2999
12941TIP3    H260239   4.916   2.059   1.537 -0.2058 -0.3177  0.2606
12942TIP3   OH260240   1.258   2.977   3.358 -0.4671 -0.2656 -0.5901
12942TIP3    H160241   1.218   2.903   3.404 -2.4217  0.6163 -0.7381
12942TIP3    H260242   1.338   2.995   3.406 -1.3785 -0.7043  1.1931
12943TIP3   OH260243   4.628   6.086   5.293  0.4357  0.1669  0.4699
12943TIP3    H160244   4.557   6.042   5.246 -0.6806  0.9776  1.3455
12943TIP3    H260245   4.603   6.079   5.385  1.5010  0.4816  0.7952
12944TIP3   OH260246   2.687   1.428   4.607  0.4905  0.0341  0.5621
12944TIP3    H160247   2.670   1.496   4.673 -0.8776  0.4083 -0.1260
12944TIP3    H260248   2.610   1.431   4.551  1.0937 -1.1000 -0.3513
12945TIP3   OH260249   2.834   1.974   0.726 -0.3381  0.5282 -0.2261
12945TIP3    H160250   2.781   1.898   0.750 -0.7444  1.2876  1.3702
12945TIP3    H260251   2.924   1.947   0.743 -0.3313 -0.1152 -1.1726
12946TIP3   OH260252   2.873   5.528  10.969  0.0136  0.1378  0.1822
12946TIP3    H160253   2.846   5.604  10.918  1.5396  0.0033 -0.9016
12946TIP3    H260254   2.963   5.547  10.994  0.1938 -1.0241  0.4581
12947TIP3   OH260255   3.342   5.053   1.852  0.0217 -0.3205  0.5932
12947TIP3    H160256   3.395   5.120   1.896 -0.1165 -0.2929  0.7192
12947TIP3    H260257   3.377   5.050   1.763 -0.6309  0.6352  0.2859
12948TIP3   OH260258   6.337   3.771  12.416  0.6399  0.1156 -0.1699
12948TIP3    H160259   6.358   3.678  12.416  0.0859 -0.0152  0.0145
12948TIP3    H260260   6.241   3.774  12.424  0.8539  0.7745  4.2184
12949TIP3   OH260261   0.950   1.120  11.791 -0.0561  0.7837 -0.0813
12949TIP3    H160262   0.890   1.074  11.849 -0.0134  1.7208  0.7286
12949TIP3    H260263   1.015   1.160  11.849  0.8620  0.5092 -0.8779
12950TIP3   OH260264   4.617   0.723  16.771  0.4021  0.1323  0.3089
12950TIP3    H160265   4.526   0.695  16.784  0.7079 -1.4305 -0.7381
12950TIP3    H260266   4.611   0.818  16.761 -0.8306  0.3666  2.6193
12951TIP3   OH260267   0.644   4.990   1.823  0.7937 -0.5094 -0.3262
12951TIP3    H160268   0.567   4.944   1.790  0.7625 -0.3662 -0.4576
12951TIP3    H260269   0.669   4.943   1.902  0.7995 -0.7895 -0.4938
12952TIP3   OH260270   1.333   1.423  11.845  0.1635 -0.1955 -0.1109
12952TIP3    H160271   1.302   1.428  11.935 -0.2219  0.2599 -0.2639
12952TIP3    H260272   1.254   1.424  11.792  0.4116  0.9207 -0.4999
12953TIP3   OH260273   0.777   6.231   5.933 -0.4216  0.2450  0.1063
12953TIP3    H160274   0.750   6.185   6.012  2.5064  0.0291  1.0741
12953TIP3    H260275   0.720   6.196   5.864 -2.2801 -0.3839  1.8716
12954TIP3   OH260276   2.320   1.831  17.222 -0.2745 -0.2884  0.2055
12954TIP3    H160277   2.266   1.855  17.147  0.3289  0.9577  0.1481
12954TIP3    H260278   2.274   1.757  17.262 -0.8995 -0.6039 -1.0516
12955TIP3   OH260279   4.469   0.425   4.246 -0.1377 -0.0979  0.1371
12955TIP3    H160280   4.440   0.383   4.165  0.1242 -1.4262  0.7073
12955TIP3    H260281   4.562   0.402   4.253 -0.4609 -1.1342  1.4665
12956TIP3   OH260282   3.480   2.245   5.729 -0.2702  0.3406  0.2171
12956TIP3    H160283   3.396   2.206   5.755 -0.9050  0.6067 -1.3127
12956TIP3    H260284   3.525   2.174   5.683  0.0926  0.3734  0.5219
12957TIP3   OH260285   4.811   0.636  13.073  0.0969  0.6577 -0.0360
12957TIP3    H160286   4.879   0.685  13.118  2.2988 -1.8449 -0.3625
12957TIP3    H260287   4.786   0.566  13.134 -1.0305  0.5844 -0.5427
12958TIP3   OH260288   4.205   6.350   2.388 -0.1172 -0.2590 -0.0860
12958TIP3    H160289   4.209   6.263   2.427  1.3318  0.6466  1.9868
12958TIP3    H260290   4.113   6.375   2.396 -0.3333 -1.1400  0.3662
12959TIP3   OH260291   4.690   5.848  12.816 -0.0192  0.2977  0.1872
12959TIP3    H160292   4.699   5.782  12.747 -0.7899  0.1162  0.2568
12959TIP3    H260293   4.748   5.816  12.886 -1.3396 -1.0213  0.7472
12960TIP3   OH260294   4.805   3.762   5.885  0.0553 -0.6961  0.9085
12960TIP3    H160295   4.777   3.759   5.977  2.2635 -0.9467  1.6268
12960TIP3    H260296   4.746   3.701   5.840 -0.7642 -0.9277  2.2417
12961TIP3   OH260297   2.324   1.743  11.339  0.7600  0.4892  0.0007
12961TIP3    H160298   2.369   1.674  11.290  0.2902  0.7761 -0.8579
12961TIP3    H260299   2.252   1.770  11.282 -0.1994  0.3927  1.1272
12962TIP3   OH260300   0.950   5.027  13.016  0.0427  0.0125  0.3080
12962TIP3    H160301   0.999   5.085  12.957  0.1077  0.5424  0.8743
12962TIP3    H260302   0.863   5.022  12.977  0.5287 -0.9673 -0.7321
12963TIP3   OH260303   6.051   4.937  13.563  0.2496  0.4708  0.3155
12963TIP3    H160304   6.035   4.955  13.471  2.2681  0.0226 -0.1811
12963TIP3    H260305   6.038   5.021  13.607  0.1681  0.9048 -0.5224
12964TIP3   OH260306   3.811   1.715   5.581 -0.0303  0.3189 -0.9522
12964TIP3    H160307   3.740   1.723   5.518 -1.2656  1.5845  0.5149
12964TIP3    H260308   3.856   1.800   5.577 -0.9334  0.9296  0.7137
12965TIP3   OH260309   2.046   4.075   5.676  0.0644 -0.0267  0.1960
12965TIP3    H160310   2.066   4.034   5.592  1.5834 -0.5797  0.7956
12965TIP3    H260311   2.010   4.004   5.730  0.1175  0.0654  0.3557
12966TIP3   OH260312   0.215   4.257   5.518 -0.1644  0.1963 -0.2253
12966TIP3    H160313   0.127   4.221   5.527 -0.9840  2.2632  0.8156
12966TIP3    H260314   0.233   4.298   5.603  1.5959  0.2683 -0.5940
12967TIP3   OH260315   4.495   1.643   2.723 -0.0217  0.0709  0.6442
12967TIP3    H160316   4.444   1.610   2.797  0.3655 -0.4106  0.7031
12967TIP3    H260317   4.579   1.666   2.760  1.1184 -2.6008 -0.0317
12968TIP3   OH260318   5.495   3.894  14.798 -0.0929 -0.1616  0.6398
12968TIP3    H160319   5.532   3.959  14.857 -1.3702  1.3089 -0.1246
12968TIP3    H260320   5.500   3.934  14.711 -0.4281 -1.2974  0.0761
12969TIP3   OH260321   3.275   2.113   5.260 -0.5891 -0.3283 -0.1424
12969TIP3    H160322   3.353   2.150   5.218  0.0705 -1.4982  0.0028
12969TIP3    H260323   3.212   2.185   5.263  0.3665  0.5409 -0.5782
12970TIP3   OH260324   1.503   1.444   2.416 -0.7799  0.2332  0.4339
12970TIP3    H160325   1.482   1.497   2.493 -2.0846  0.1628  0.1524
12970TIP3    H260326   1.599   1.440   2.415 -0.6631  1.9624  0.8860
12971TIP3   OH260327   1.284   4.330  14.747  0.5545 -0.3803 -0.1000
12971TIP3    H160328   1.249   4.304  14.662  1.3862  0.9599 -0.8922
12971TIP3    H260329   1.231   4.406  14.772  0.2188 -0.8564  0.6551
12972TIP3   OH260330   4.950   4.101  12.393 -0.3706  0.0870 -0.4963
12972TIP3    H160331   4.919   4.191  12.397  0.5211  0.3815  0.4339
12972TIP3    H260332   4.871   4.048  12.381 -1.0219  0.9222  0.0149
12973TIP3   OH260333   0.708   0.364  11.852 -0.3229  0.5164 -0.1338
12973TIP3    H160334   0.662   0.389  11.772  1.4438  0.4235 -1.2413
12973TIP3    H260335   0.774   0.302  11.823 -1.0853 -1.2794  1.7663
12974TIP3   OH260336   1.486   0.431  12.500  0.1722 -0.1571 -0.1289
12974TIP3    H160337   1.499   0.508  12.444 -0.1598 -0.4989 -0.6839
12974TIP3    H260338   1.454   0.363  12.440  1.2409 -0.9761  0.1925
12975TIP3   OH260339   1.697   5.380  10.813 -0.0845  0.6041 -0.3009
12975TIP3    H160340   1.790   5.373  10.791 -0.4481 -0.2745 -1.6737
12975TIP3    H260341   1.674   5.469  10.788  0.5444  1.1181  0.8263
12976TIP3   OH260342   0.144   0.733   0.858 -0.3125 -0.3874  0.5009
12976TIP3    H160343   0.091   0.721   0.779 -1.2449 -0.1907  1.0805
12976TIP3    H260344   0.181   0.646   0.874  2.8494  0.2609 -2.1297
12977TIP3   OH260345   2.867   5.206   0.650  0.2851  0.0161 -0.0817
12977TIP3    H160346   2.772   5.195   0.657  0.2292 -0.5434 -1.4051
12977TIP3    H260347   2.898   5.120   0.620  1.3914 -0.2461  1.6412
12978TIP3   OH260348   2.430   3.590  15.925  0.6285  0.1203 -0.0554
12978TIP3    H160349   2.363   3.584  15.857  0.1426 -0.3310  0.4536
12978TIP3    H260350   2.380   3.605  16.006  1.2955  2.6407 -0.0449
12979TIP3   OH260351   5.525   6.440   0.785 -0.5167  0.4674  0.1775
12979TIP3    H160352   5.514   6.524   0.830 -0.0113 -0.3139  1.8594
12979TIP3    H260353   5.453   6.386   0.818  1.0741 -0.8007  1.7836
12980TIP3   OH260354   0.639   6.380  15.131  0.2818  1.1155  0.2004
12980TIP3    H160355   0.675   6.388  15.219 -1.1702  0.5206  0.8760
12980TIP3    H260356   0.569   6.445  15.128 -1.0801 -0.3118  0.2479
12981TIP3   OH260357   1.012   3.516   5.386  0.0752 -0.0189  0.4192
12981TIP3    H160358   1.056   3.559   5.459 -1.3939  0.1858  1.2321
12981TIP3    H260359   0.919   3.527   5.405 -0.3438  0.1151 -1.5486
12982TIP3   OH260360   4.634   5.061   1.994  0.6998  1.1071  0.0174
12982TIP3    H160361   4.541   5.064   1.974  0.6746  1.1565  0.1386
12982TIP3    H260362   4.676   5.113   1.926  0.7828 -0.0720 -0.8670
12983TIP3   OH260363   2.495   3.604  12.995  0.0805  0.0529  0.0069
12983TIP3    H160364   2.568   3.553  12.959  0.7317  1.4261 -0.7086
12983TIP3    H260365   2.479   3.567  13.082  0.8408 -1.0341 -0.3062
12984TIP3   OH260366   4.450   1.322  13.771 -0.3821 -0.3806 -0.1750
12984TIP3    H160367   4.366   1.292  13.807  0.3072 -0.5470  1.3945
12984TIP3    H260368   4.429   1.353  13.683 -2.1271 -0.2416  0.2476
12985TIP3   OH260369   5.404   4.942   1.451  0.1583 -0.1897 -0.1284
12985TIP3    H160370   5.368   4.991   1.377  2.5011  1.0260 -0.5519
12985TIP3    H260371   5.457   4.873   1.410 -1.1267 -1.5998  0.4715
12986TIP3   OH260372   4.184   0.286   0.629 -0.7931  0.3590  0.1779
12986TIP3    H160373   4.111   0.345   0.613  0.4811  1.9357 -0.0739
12986TIP3    H260374   4.234   0.286   0.548  0.0831  0.1904  0.7023
12987TIP3   OH260375   3.185   3.820  11.112  0.1768  0.2664  0.0623
12987TIP3    H160376   3.101   3.833  11.069  0.7084 -0.5696 -1.2984
12987TIP3    H260377   3.249   3.828  11.041  1.0091 -2.5578  0.3695
12988TIP3   OH260378   2.418   5.314   2.296  0.0809 -0.1581  0.7612
12988TIP3    H160379   2.440   5.235   2.345  1.5159  0.9062  1.8921
12988TIP3    H260380   2.502   5.355   2.276 -0.6640  1.6901  1.2049
12989TIP3   OH260381   5.846   0.067  15.186 -0.1088 -0.0470 -0.5058
12989TIP3    H160382   5.836   0.128  15.260 -2.3261 -2.8124  1.6762
12989TIP3    H260383   5.771   0.087  15.129 -1.2478 -1.0803  0.5673
12990TIP3   OH260384   6.147   5.344  14.906 -0.1267  0.2056  0.4165
12990TIP3    H160385   6.066   5.394  14.920  0.4788  0.9742  1.3774
12990TIP3    H260386   6.195   5.395  14.841 -0.6366 -0.5439 -0.5682
12991TIP3   OH260387   1.460   5.165   3.374 -0.2160  0.4481  0.7073
12991TIP3    H160388   1.441   5.082   3.330  1.2257  0.5520 -0.1413
12991TIP3    H260389   1.469   5.141   3.467 -0.9986 -0.1345  0.6443
12992TIP3   OH260390   0.786   3.225  12.729 -0.4567  0.0804  0.0154
12992TIP3    H160391   0.714   3.288  12.722 -0.3331  0.0738 -1.6925
12992TIP3    H260392   0.779   3.171  12.651  1.1375 -0.2072  0.0331
12993TIP3   OH260393   6.070   0.616  11.046 -0.7912  0.2163  0.0218
12993TIP3    H160394   6.072   0.570  10.962 -2.5568  2.2540 -1.2523
12993TIP3    H260395   6.154   0.596  11.087 -0.0355 -1.1490 -2.0550
12994TIP3   OH260396   1.349   3.336   4.930 -0.1208  0.3432  0.0264
12994TIP3    H160397   1.281   3.397   4.960 -0.4827 -0.2016  0.3269
12994TIP3    H260398   1.396   3.311   5.009  1.5959  2.0628 -0.3774
12995TIP3   OH260399   5.930   2.449   0.888  0.0762 -0.0167  0.3568
12995TIP3    H160400   5.926   2.377   0.951  0.2793 -1.0215 -0.7434
12995TIP3    H260401   5.906   2.409   0.804  1.7709  0.8259 -0.5895
12996TIP3   OH260402   5.931   2.017  14.453  0.4006 -0.2787  0.6174
12996TIP3    H160403   5.881   2.092  14.484 -0.4825 -0.7645  0.4021
12996TIP3    H260404   5.885   1.941  14.488  0.8427 -0.7467  0.2002
12997TIP3   OH260405   3.913   6.445   1.400 -0.2491  0.5959 -0.2617
12997TIP3    H160406   3.932   6.521   1.346 -1.9278  0.0339 -1.7615
12997TIP3    H260407   3.874   6.481   1.479  2.7299  1.4659  0.9426
12998TIP3   OH260408   6.527   5.810  12.234  0.3523 -0.4754  0.7281
12998TIP3    H160409   6.595   5.846  12.177 -0.5196 -0.3945 -0.2973
12998TIP3    H260410   6.449   5.862  12.214  0.0430 -0.3927  2.0738
12999TIP3   OH260411   5.733   2.874  13.684 -0.1736  0.9691  0.7153
12999TIP3    H160412   5.748   2.874  13.778 -2.0330  0.8919  1.0565
12999TIP3    H260413   5.757   2.786  13.655  2.1310  1.5259  0.7591
13000TIP3   OH260414   2.368   6.156  16.261  0.1819  0.5343 -0.5871
13000TIP3    H160415   2.314   6.230  16.288  1.7273  1.4728 -0.0018
13000TIP3    H260416   2.458   6.187  16.266  0.8794 -1.3557 -0.3880
13001TIP3   OH260417   4.950   0.068   2.310  0.2599 -0.4224  0.0074
13001TIP3    H160418   4.935   0.039   2.400 -0.4463 -0.3862 -0.0986
13001TIP3    H260419   4.916   0.157   2.307 -0.2394 -0.6241 -0.4426
13002TIP3   OH260420   3.179   0.479  12.928  0.2017  0.2888 -0.5111
13002TIP3    H160421   3.161   0.396  12.973  0.1122 -0.4802 -1.9125
13002TIP3    H260422   3.224   0.532  12.994  1.0960 -1.1996  0.1364
13003TIP3   OH260423   3.995   1.917   4.326 -0.2668 -0.1713 -0.5119
13003TIP3    H160424   3.944   1.841   4.298 -0.8052 -0.3179  0.8143
13003TIP3    H260425   4.026   1.894   4.414 -0.0147  0.9383 -0.3009
13004TIP3   OH260426   0.999   0.212   4.658  0.1928 -0.0891  0.0542
13004TIP3    H160427   0.948   0.232   4.580  1.2954 -0.1120 -0.7015
13004TIP3    H260428   1.055   0.290   4.670  2.0615 -1.2166 -0.8788
13005TIP3   OH260429   6.510   1.108   2.966  0.0621  0.2776 -0.1406
13005TIP3    H160430   6.428   1.072   2.933  1.0363 -3.1237  0.7513
13005TIP3    H260431   6.507   1.093   3.060  0.2871  3.4443  0.5026
13006TIP3   OH260432   5.477   5.893  14.639 -0.8432  0.0476  0.1892
13006TIP3    H160433   5.568   5.919  14.656 -1.8360  2.8556  1.9603
13006TIP3    H260434   5.453   5.941  14.560 -0.6495 -1.2377 -0.6852
13007TIP3   OH260435   6.063   4.922   6.149 -0.1644 -0.6496  0.6438
13007TIP3    H160436   5.968   4.932   6.156 -0.2626 -0.6162 -0.4419
13007TIP3    H260437   6.096   5.011   6.149 -0.0863 -0.6743  1.4800
13008TIP3   OH260438   2.976   2.799  11.967  0.0370 -0.2691 -0.1952
13008TIP3    H160439   2.940   2.824  12.052 -1.8866  1.5310 -1.4490
13008TIP3    H260440   2.903   2.810  11.906  1.5684 -0.7445 -2.2063
13009TIP3   OH260441   2.599   3.187  14.101  0.4757  0.3082 -0.1255
13009TIP3    H160442   2.520   3.220  14.143  0.2506 -0.1633 -0.1781
13009TIP3    H260443   2.626   3.258  14.043 -0.0243  0.3923 -0.2609
13010TIP3   OH260444   4.699   2.270   1.155 -0.1925  0.2751  0.7349
13010TIP3    H160445   4.693   2.312   1.241 -0.1445  0.8318  0.4708
13010TIP3    H260446   4.610   2.239   1.138 -1.2010  3.5326 -0.6731
13011TIP3   OH260447   4.293   5.615  10.861  0.0132 -0.0117  0.6382
13011TIP3    H160448   4.337   5.694  10.892 -0.8727  0.7314  0.0282
13011TIP3    H260449   4.215   5.646  10.815  0.5508 -1.1246 -1.1660
13012TIP3   OH260450   0.141   5.382  15.640  0.1574 -0.0744 -0.3238
13012TIP3    H160451   0.156   5.395  15.733 -2.0059  2.0000 -0.1779
13012TIP3    H260452   0.081   5.307  15.636  2.1266 -1.7296 -0.2767
13013TIP3   OH260453   2.324   5.628  16.654 -0.0422  0.4066  0.3724
13013TIP3    H160454   2.373   5.687  16.597 -1.1749 -0.0463 -1.1354
13013TIP3    H260455   2.232   5.651  16.640 -0.4787 -1.2296  0.2580
13014TIP3   OH260456   3.091   4.035  11.967  0.0484 -0.0359  0.6948
13014TIP3    H160457   3.166   4.064  12.019  0.1574  0.5941  0.1977
13014TIP3    H260458   3.106   4.071  11.880 -1.7656  1.7654  1.0556
13015TIP3   OH260459   1.006   2.140  12.520 -0.1174  0.2701 -0.2113
13015TIP3    H160460   1.092   2.133  12.561 -0.7502  0.4342  1.1740
13015TIP3    H260461   0.999   2.232  12.494 -0.4737  0.6122  1.0510
13016TIP3   OH260462   2.777   5.993   6.726  0.0943 -0.1021  0.1078
13016TIP3    H160463   2.793   5.904   6.757  1.2065 -0.7179 -2.0414
13016TIP3    H260464   2.721   5.982   6.649  0.3776  1.0546 -0.2804
13017TIP3   OH260465   3.823   2.791   5.117  0.1870  0.6986  0.3239
13017TIP3    H160466   3.875   2.825   5.190  0.3334 -0.1541  0.6362
13017TIP3    H260467   3.741   2.840   5.120  0.1307  0.5646  1.1639
13018TIP3   OH260468   5.007   2.527  16.793 -0.2305  0.8864 -0.5855
13018TIP3    H160469   5.008   2.605  16.736 -1.8434  0.7728 -0.8122
13018TIP3    H260470   4.920   2.490  16.782 -1.0063  1.3968  2.6895
13019TIP3   OH260471   2.031   1.904  13.114  0.2798  0.2335  0.3690
13019TIP3    H160472   2.033   1.999  13.126  1.9906  0.1031  1.4439
13019TIP3    H260473   1.946   1.887  13.075 -0.2300  2.1689  0.5256
13020TIP3   OH260474   6.710   5.167  12.987 -0.0530 -0.7186  0.2787
13020TIP3    H160475   6.708   5.154  13.081 -2.4771  0.1199  0.3978
13020TIP3    H260476   6.696   5.260  12.974 -0.6322 -0.9475 -0.9222
13021TIP3   OH260477   2.556   5.073  12.561 -0.1703  0.6078 -0.1214
13021TIP3    H160478   2.563   5.075  12.657 -1.6578  2.3329  0.0212
13021TIP3    H260479   2.516   4.988  12.542  2.8361 -1.0754  0.4665
13022TIP3   OH260480   3.621   5.244   4.137  0.6277 -0.5656  0.0635
13022TIP3    H160481   3.697   5.215   4.188  0.6663 -0.0486  0.3028
13022TIP3    H260482   3.548   5.243   4.199  0.4832 -0.8265 -0.1057
13023TIP3   OH260483   6.219   4.172   4.942  0.1817 -0.3021 -0.3176
13023TIP3    H160484   6.260   4.114   4.877 -0.1555 -1.0031  0.0919
13023TIP3    H260485   6.125   4.160   4.928  0.0707 -1.5539  1.2313
13024TIP3   OH260486   6.405   2.599  17.043  0.1922 -0.7191 -0.0486
13024TIP3    H160487   6.462   2.675  17.038  1.6846 -1.8689 -1.5324
13024TIP3    H260488   6.318   2.633  17.024  0.4352  0.9421  1.5347
13025TIP3   OH260489   2.174   4.539   2.878 -0.3100 -0.5714  0.5728
13025TIP3    H160490   2.097   4.572   2.922 -0.0244 -1.1349  1.5344
13025TIP3    H260491   2.164   4.443   2.881  0.8826 -0.6889  1.6043
13026TIP3   OH260492   1.346   5.220   2.779 -0.4666 -0.5168 -0.3764
13026TIP3    H160493   1.254   5.239   2.794 -0.3511  1.6486 -1.9508
13026TIP3    H260494   1.387   5.230   2.864 -1.2369  1.6846 -0.2173
13027TIP3   OH260495   3.554   6.708  15.338 -0.1582  0.3509 -0.5463
13027TIP3    H160496   3.536   6.624  15.381 -2.0403  0.8707 -0.2316
13027TIP3    H260497   3.630   6.743  15.385  1.2640 -1.5648 -1.3003
13028TIP3   OH260498   1.429   4.044  14.081 -0.3809 -0.1185  0.0343
13028TIP3    H160499   1.442   4.051  13.986 -1.1287  0.4116 -0.0390
13028TIP3    H260500   1.442   3.951  14.100  0.2818 -0.1467 -0.5070
13029TIP3   OH260501   0.141   1.407  14.343 -0.0734  0.0922 -0.1821
13029TIP3    H160502   0.143   1.390  14.249 -0.6306 -0.9658 -0.0124
13029TIP3    H260503   0.194   1.337  14.381 -0.5883 -0.0093  0.3648
13030TIP3   OH260504   5.542   3.140   1.934 -0.2475  0.9665 -0.7532
13030TIP3    H160505   5.556   3.153   1.840 -0.5636 -0.2565 -0.9831
13030TIP3    H260506   5.589   3.059   1.954  0.2107  1.4713  0.2426
13031TIP3   OH260507   2.295   4.339  16.952  0.2320  0.4563 -0.1538
13031TIP3    H160508   2.298   4.385  16.867 -0.6843  1.6362  0.4270
13031TIP3    H260509   2.256   4.402  17.012  0.9480 -0.3284  1.1901
13032TIP3   OH260510   0.065   1.483  15.636  0.6837 -0.0921 -0.1480
13032TIP3    H160511   0.160   1.492  15.644  0.6964 -0.7613  0.6246
13032TIP3    H260512   0.052   1.438  15.552  1.1753 -1.6705  0.5802
13033TIP3   OH260513   6.263   3.353   0.175  0.0977 -1.1443 -0.3513
13033TIP3    H160514   6.208   3.277   0.193  0.0876 -0.7427  1.5249
13033TIP3    H260515   6.352   3.319   0.176 -0.0156 -1.7021 -2.8915
13034TIP3   OH260516   0.260   0.301  14.941  0.3241 -0.0456 -0.0443
13034TIP3    H160517   0.277   0.388  14.976 -1.6266  1.3367 -2.1849
13034TIP3    H260518   0.214   0.255  15.012 -0.8400  1.5760  0.3054
13035TIP3   OH260519   0.267   2.149  13.389 -0.4643  0.0323  0.4271
13035TIP3    H160520   0.261   2.244  13.401 -0.2551  0.0846  0.1195
13035TIP3    H260521   0.208   2.130  13.317 -1.7726 -0.2926  1.5382
13036TIP3   OH260522   0.818   5.683   3.343 -0.0772  0.2337 -0.4556
13036TIP3    H160523   0.837   5.777   3.351 -0.7031  0.5277 -2.0467
13036TIP3    H260524   0.737   5.671   3.391 -0.1600  0.5714 -0.5083
13037TIP3   OH260525   4.710   1.858   4.838 -0.2630  0.3300  0.0633
13037TIP3    H160526   4.639   1.900   4.788 -0.2921 -1.0504 -1.1165
13037TIP3    H260527   4.710   1.767   4.808  1.0609 -0.0563  1.1328
13038TIP3   OH260528   5.949   0.735  16.191  0.2173 -0.3712 -0.1334
13038TIP3    H160529   5.975   0.673  16.123  0.3859  0.5746 -0.9557
13038TIP3    H260530   6.004   0.812  16.175 -1.3852  0.7650 -0.4155
13039TIP3   OH260531   1.258   2.452  16.993 -0.3492  0.1160 -0.1720
13039TIP3    H160532   1.279   2.402  16.914  2.3325 -0.8976  1.0679
13039TIP3    H260533   1.335   2.507  17.008 -0.8588  0.4013  1.6450
13040TIP3   OH260534   1.163   6.014   0.735 -0.1470 -0.3962  0.2456
13040TIP3    H160535   1.252   5.980   0.745  0.2316  0.4795 -0.0224
13040TIP3    H260536   1.175   6.107   0.719 -0.9547 -0.6199 -2.1978
13041TIP3   OH260537   5.591   6.587  12.542  0.3763 -0.1088 -0.0241
13041TIP3    H160538   5.585   6.682  12.555  1.1980 -0.0693  0.1337
13041TIP3    H260539   5.671   6.562  12.587  0.9524 -0.6493 -1.2993
13042TIP3   OH260540   4.226   1.162  13.906 -0.1732 -0.5543 -0.1101
13042TIP3    H160541   4.201   1.083  13.953  1.6672 -1.8629 -1.1988
13042TIP3    H260542   4.211   1.141  13.814  0.6543  0.2282 -0.4388
13043TIP3   OH260543   3.218   1.841  17.201 -0.4821  0.1676  0.3661
13043TIP3    H160544   3.140   1.789  17.183 -1.8315  2.0642  0.4646
13043TIP3    H260545   3.214   1.859  17.295 -0.2123  0.6874  0.2864
13044TIP3   OH260546   1.270   3.173   0.179  0.0080  0.0266 -0.7219
13044TIP3    H160547   1.213   3.188   0.255 -0.4365  0.9164 -1.2184
13044TIP3    H260548   1.289   3.079   0.182 -0.1180  0.0166  0.4046
13045TIP3   OH260549   6.152   1.661   1.746  0.4427 -0.1089  0.3861
13045TIP3    H160550   6.087   1.598   1.714 -1.1581  1.2510  0.7977
13045TIP3    H260551   6.171   1.717   1.671 -0.0085  0.4126  0.6564
13046TIP3   OH260552   2.453   0.776   1.929 -0.0468  0.5134  0.4445
13046TIP3    H160553   2.483   0.694   1.968 -0.7086 -0.4561 -0.9784
13046TIP3    H260554   2.367   0.755   1.892 -0.1694  1.8097 -0.0893
13047TIP3   OH260555   4.267   2.696  12.074  0.7481  0.2852  0.3133
13047TIP3    H160556   4.315   2.654  12.145 -1.1449 -0.1998  1.3848
13047TIP3    H260557   4.239   2.624  12.018 -0.7736  0.2666  1.0497
13048TIP3   OH260558   2.822   4.034   3.846 -0.2636 -0.2705  0.2868
13048TIP3    H160559   2.865   4.099   3.789  0.7376 -1.0002  0.1798
13048TIP3    H260560   2.742   4.011   3.800  1.0976 -1.7598 -1.5095
13049TIP3   OH260561   2.476   1.590  16.585 -0.3618 -0.0071  0.0039
13049TIP3    H160562   2.464   1.582  16.679 -2.6343  0.1343 -0.2253
13049TIP3    H260563   2.392   1.622  16.552 -1.4419 -4.6982 -2.6743
13050TIP3   OH260564   3.850   3.982   6.137  0.1132  0.0209 -0.4273
13050TIP3    H160565   3.781   4.047   6.150 -0.4575 -0.3789 -1.3182
13050TIP3    H260566   3.814   3.900   6.172  0.5466  0.0252  0.0445
13051TIP3   OH260567   3.465   1.560  14.522 -0.3357  0.0469 -0.2807
13051TIP3    H160568   3.556   1.541  14.543  0.0226  0.1821 -1.6439
13051TIP3    H260569   3.432   1.606  14.599  0.5495 -0.5757  0.4975
13052TIP3   OH260570   1.237   5.925  12.220  0.5617  0.4000  0.2209
13052TIP3    H160571   1.248   5.984  12.294  0.9460 -0.3798  0.8003
13052TIP3    H260572   1.198   5.979  12.151  1.8131  1.5626  0.3968
13053TIP3   OH260573   1.115   5.172   0.580 -0.1579 -0.6287  0.3465
13053TIP3    H160574   1.094   5.261   0.608 -0.3913 -0.1775 -1.1535
13053TIP3    H260575   1.208   5.175   0.557 -0.2678 -0.6329 -0.1222
13054TIP3   OH260576   4.500   4.714  12.805  0.0621 -0.7623 -0.1739
13054TIP3    H160577   4.428   4.694  12.745  0.0710  0.2320 -0.5378
13054TIP3    H260578   4.562   4.643  12.793 -0.9374 -1.7426  0.2821
13055TIP3   OH260579   3.553   3.413  12.883 -0.4064 -0.3938  0.8467
13055TIP3    H160580   3.465   3.426  12.918 -0.1701 -0.9977  1.7125
13055TIP3    H260581   3.598   3.496  12.899 -0.7976 -0.1037  0.4553
13056TIP3   OH260582   1.267   3.789  15.763  0.3744  0.1784  0.0277
13056TIP3    H160583   1.174   3.808  15.749  0.9367  1.0573 -3.0472
13056TIP3    H260584   1.301   3.867  15.807 -0.1263  0.2460  0.3059
13057TIP3   OH260585   4.436   2.126  16.483  0.2991  0.0880 -0.0287
13057TIP3    H160586   4.448   2.077  16.402 -0.3505 -2.5372  1.3357
13057TIP3    H260587   4.349   2.164  16.475  0.4966  0.3929 -0.8113
13058TIP3   OH260588   5.597   6.204   3.019  0.0270  0.0334 -0.1936
13058TIP3    H160589   5.678   6.225   2.971  0.3976 -1.2743 -0.1712
13058TIP3    H260590   5.585   6.110   3.006  0.1780 -0.4156  2.3099
13059TIP3   OH260591   5.167   1.544  16.096  0.5210  0.0031  0.1722
13059TIP3    H160592   5.116   1.566  16.173 -0.5914 -1.7142 -0.0288
13059TIP3    H260593   5.212   1.463  16.119 -0.1717 -0.7746 -1.1073
13060TIP3   OH260594   2.551   0.016  17.116  0.4543 -0.1930 -0.5208
13060TIP3    H160595   2.600   0.070  17.178 -0.3136 -0.1949  0.0852
13060TIP3    H260596   2.527  -0.063  17.165  1.1097 -0.8758 -1.2481
13061TIP3   OH260597   4.488   1.356  11.902 -0.1937 -0.0059 -0.2005
13061TIP3    H160598   4.524   1.435  11.943  0.0466 -0.0854 -0.2519
13061TIP3    H260599   4.418   1.388  11.846  0.0480  0.1982 -0.3911
13062TIP3   OH260600   5.481   5.736  12.660  0.0507  0.1968 -0.3496
13062TIP3    H160601   5.532   5.678  12.603  0.7251 -0.5580  0.9692
13062TIP3    H260602   5.482   5.821  12.616 -0.2832 -0.5862 -1.9349
13063TIP3   OH260603   2.202   6.042   3.005  0.2304  0.3988  0.3662
13063TIP3    H160604   2.189   5.950   2.983  2.4616  0.2842 -0.7597
13063TIP3    H260605   2.247   6.040   3.090  0.8281  0.3908  0.0589
13064TIP3   OH260606   2.100   6.138   0.057 -0.7732  0.2682 -0.4786
13064TIP3    H160607   2.143   6.221   0.036  0.0248 -0.0099  0.0229
13064TIP3    H260608   2.050   6.117  -0.022  0.6565  0.2083 -1.4160
13065TIP3   OH260609   2.498   4.153  11.291 -0.2128 -0.2376 -0.1505
13065TIP3    H160610   2.488   4.111  11.205 -0.9965 -0.7333  0.1765
13065TIP3    H260611   2.583   4.122  11.323  0.8232  1.1497 -1.3863
13066TIP3   OH260612   5.973   5.685   1.721 -0.4823  0.2438 -0.0363
13066TIP3    H160613   5.946   5.602   1.760  0.1697 -0.5159 -1.1490
13066TIP3    H260614   6.004   5.662   1.633 -2.5602  1.9686 -1.3232
13067TIP3   OH260615   6.342   4.345   1.523  0.6413 -0.0582 -0.1226
13067TIP3    H160616   6.324   4.272   1.464  1.5092  0.1259 -0.6386
13067TIP3    H260617   6.393   4.406   1.470  1.3345  0.1660  0.7797
13068TIP3   OH260618   2.221   2.145   1.549  0.0097 -0.0053 -0.4968
13068TIP3    H160619   2.240   2.239   1.550 -1.7752  0.3809 -0.6381
13068TIP3    H260620   2.260   2.114   1.467 -1.1669  1.0290 -1.4804
13069TIP3   OH260621   6.264   4.949   2.490 -0.5955  0.2312  0.0054
13069TIP3    H160622   6.274   4.977   2.399 -0.0428  0.0095 -0.0089
13069TIP3    H260623   6.317   4.870   2.496  0.1104  0.7438  0.7472
13070TIP3   OH260624   0.058   6.505  10.395 -0.0133 -0.3594 -0.2936
13070TIP3    H160625  -0.036   6.515  10.385 -0.1075 -1.1326 -0.2922
13070TIP3    H260626   0.096   6.575  10.342 -0.5950  1.3225  1.4360
13071TIP3   OH260627   5.410   1.713  14.951  0.2118 -0.2949  0.4179
13071TIP3    H160628   5.351   1.703  15.025 -0.3857  0.4379  0.0592
13071TIP3    H260629   5.385   1.644  14.890 -0.2464 -0.0150  0.2870
13072TIP3   OH260630   6.447   1.304  11.709 -0.0564 -0.1749 -0.4961
13072TIP3    H160631   6.438   1.211  11.731 -2.1545  0.3837  1.3762
13072TIP3    H260632   6.371   1.323  11.654  0.0472  0.5746 -0.3874
13073TIP3   OH260633   3.950   3.676   1.715 -0.2741  0.3046 -0.1813
13073TIP3    H160634   3.970   3.602   1.772 -2.1933  0.5526  0.8700
13073TIP3    H260635   4.035   3.699   1.675  0.1905 -3.1511 -1.4817
13074TIP3   OH260636   6.242   3.894   5.323  0.2345 -0.3840  0.2495
13074TIP3    H160637   6.174   3.931   5.379 -1.3019 -1.4490 -0.8286
13074TIP3    H260638   6.304   3.965   5.310 -2.0256  1.5255 -0.8503
13075TIP3   OH260639   3.783   0.541   0.353  0.1361  0.7693  0.0711
13075TIP3    H160640   3.737   0.511   0.274  0.1594  1.7670 -0.3328
13075TIP3    H260641   3.846   0.605   0.321  0.9638  0.3174  0.7765
13076TIP3   OH260642   3.550   2.751   3.220 -0.2065 -0.1185  0.3665
13076TIP3    H160643   3.460   2.782   3.208 -1.0649 -1.6465  2.3156
13076TIP3    H260644   3.602   2.805   3.160 -2.4385  0.5847 -1.0598
13077TIP3   OH260645   6.132   4.616  12.129 -0.6113 -0.0487 -0.3492
13077TIP3    H160646   6.061   4.566  12.087  0.7306 -1.6264 -0.8593
13077TIP3    H260647   6.126   4.593  12.221 -2.0708  1.5505  0.0185
13078TIP3   OH260648   4.618   5.567   0.810 -0.1044 -0.0528 -0.4024
13078TIP3    H160649   4.645   5.567   0.718 -0.6042  0.7828 -0.5639
13078TIP3    H260650   4.693   5.532   0.857  0.7693  0.9651 -0.9790
13079TIP3   OH260651   5.741   4.156  16.239 -0.5242 -0.0945 -0.1207
13079TIP3    H160652   5.713   4.203  16.160 -3.3124 -0.7850  0.3288
13079TIP3    H260653   5.726   4.217  16.311  1.3314  0.2799 -0.0064
13080TIP3   OH260654   0.027   4.074   5.026  0.5101  0.4645  0.4465
13080TIP3    H160655   0.112   4.053   5.065 -0.2649  0.6903  2.3274
13080TIP3    H260656  -0.036   4.061   5.096 -1.1170 -0.2664 -1.0768
13081TIP3   OH260657   2.979   4.103   0.028 -0.1953 -0.4848 -0.0026
13081TIP3    H160658   3.043   4.095   0.100 -0.2837 -1.7208 -0.0374
13081TIP3    H260659   2.924   4.177   0.053  2.1648  1.6617 -0.7156
13082TIP3   OH260660   2.093   3.020  14.557  0.1828 -0.0290 -0.3882
13082TIP3    H160661   2.107   3.094  14.616  0.9764 -0.1806 -0.3702
13082TIP3    H260662   1.999   3.007  14.555  0.1902 -0.8707  1.9281
13083TIP3   OH260663   3.827   2.450   1.982 -0.3330 -0.0659  0.0226
13083TIP3    H160664   3.898   2.502   2.022  1.7570 -2.4571 -0.3105
13083TIP3    H260665   3.749   2.474   2.032  0.7625  2.3438  0.7286
13084TIP3   OH260666   0.792   6.725  13.452 -0.1308 -0.5136  0.2831
13084TIP3    H160667   0.817   6.784  13.524 -0.6781 -0.4294  0.4056
13084TIP3    H260668   0.864   6.733  13.390  1.4215 -2.1997  1.7572
13085TIP3   OH260669   1.340   6.271   2.001 -0.5095  0.1328  0.3128
13085TIP3    H160670   1.256   6.249   1.959 -0.4116  2.2339 -1.1795
13085TIP3    H260671   1.332   6.365   2.019  1.4108  0.2994  0.4020
13086TIP3   OH260672   0.823   3.449  17.120 -0.1541  0.5808 -0.2213
13086TIP3    H160673   0.729   3.461  17.108 -0.0531  1.1816 -0.4406
13086TIP3    H260674   0.831   3.413  17.208 -0.4674  2.3775  0.5826
13087TIP3   OH260675   5.612   3.929  16.428  0.1079 -0.3167 -0.2348
13087TIP3    H160676   5.607   3.953  16.520  1.4779  0.1807 -0.2582
13087TIP3    H260677   5.599   4.010  16.381  1.0664 -0.2477 -0.4137
13088TIP3   OH260678   2.210   3.478   1.205 -0.6362 -0.2550 -0.3035
13088TIP3    H160679   2.122   3.457   1.173 -1.1732  1.7808 -0.3135
13088TIP3    H260680   2.194   3.534   1.281  0.6666 -0.3013  0.0219
13089TIP3   OH260681   4.802   2.768   1.560  0.2781 -0.4326  0.2965
13089TIP3    H160682   4.797   2.699   1.626 -0.4292 -1.0594 -0.4010
13089TIP3    H260683   4.712   2.795   1.546  0.2185 -1.3911 -1.5139
13090TIP3   OH260684   3.027   2.127  16.332 -0.6132 -0.2313 -0.5922
13090TIP3    H160685   3.087   2.111  16.404 -1.2537 -0.0913 -0.0180
13090TIP3    H260686   3.082   2.160  16.261 -0.2333  1.4699  0.4563
13091TIP3   OH260687   3.607   3.704  13.395  0.7595 -0.3113  0.4585
13091TIP3    H160688   3.700   3.680  13.386  0.7170 -1.9904  3.1914
13091TIP3    H260689   3.559   3.626  13.369  0.2216 -0.2489  1.2358
13092TIP3   OH260690   2.156   6.600   0.667  0.0977  0.9296 -0.1360
13092TIP3    H160691   2.063   6.584   0.683  0.2986 -0.0074  0.2144
13092TIP3    H260692   2.160   6.635   0.578 -0.4853 -0.3296 -0.6811
13093TIP3   OH260693   4.387   5.062   2.238  0.2813 -0.1987 -0.0106
13093TIP3    H160694   4.428   5.108   2.165  0.8410 -1.3379 -0.4453
13093TIP3    H260695   4.296   5.048   2.211 -0.9668  3.5940  1.5348
13094TIP3   OH260696   2.606   5.144   3.783  0.5132 -0.0380 -0.4687
13094TIP3    H160697   2.648   5.158   3.698 -3.2601  2.0743 -2.2486
13094TIP3    H260698   2.638   5.215   3.837  0.6999  0.4104 -1.1516
13095TIP3   OH260699   0.706   5.860  15.651 -0.7880  0.1222  0.4475
13095TIP3    H160700   0.633   5.857  15.713 -2.8595  0.2399 -1.8316
13095TIP3    H260701   0.784   5.851  15.706 -2.5362 -1.5904  2.8969
13096TIP3   OH260702   4.733   2.662  13.393 -0.1055  0.0811 -0.0803
13096TIP3    H160703   4.811   2.608  13.385  0.9211  1.6162 -0.9458
13096TIP3    H260704   4.686   2.648  13.311 -0.2292 -0.0471  0.0108
13097TIP3   OH260705   0.909   1.233  16.217 -0.4388 -0.3034  0.5524
13097TIP3    H160706   0.949   1.249  16.131 -0.8971  0.6542  0.5009
13097TIP3    H260707   0.818   1.211  16.196  0.0040 -2.5058  0.6660
13098TIP3   OH260708   4.908   0.670   1.875 -0.4474 -0.0715  0.3575
13098TIP3    H160709   4.943   0.703   1.792 -0.9463 -0.2392  0.0830
13098TIP3    H260710   4.895   0.577   1.861 -0.8190 -0.0471  0.5229
13099TIP3   OH260711   4.194   0.931  16.837 -0.4790  0.1339 -0.2241
13099TIP3    H160712   4.153   0.846  16.822 -1.1489  0.3891  0.1573
13099TIP3    H260713   4.183   0.978  16.754  0.8702 -0.5399 -0.8169
13100TIP3   OH260714   0.337   5.292  16.122  0.0758 -0.8661 -0.1819
13100TIP3    H160715   0.285   5.372  16.112  0.6955 -0.5761 -1.2067
13100TIP3    H260716   0.272   5.224  16.140 -0.3470  0.1273  2.6051
13101TIP3   OH260717   3.467   5.552   1.694 -0.6024  0.1884 -0.3198
13101TIP3    H160718   3.489   5.638   1.656 -0.6867 -0.5139 -2.0567
13101TIP3    H260719   3.499   5.489   1.630 -3.6787 -1.0005 -0.8835
13102TIP3   OH260720   5.662   2.717   2.290 -0.1485  0.2272 -0.1194
13102TIP3    H160721   5.667   2.716   2.385 -1.2278  2.0957  0.0085
13102TIP3    H260722   5.621   2.634   2.266  1.8341 -1.1063  0.8724
13103TIP3   OH260723   3.225   5.783   6.314  0.2412 -0.1122 -0.7175
13103TIP3    H160724   3.208   5.701   6.267  1.3353 -0.8887  0.1977
13103TIP3    H260725   3.186   5.770   6.400  2.4771 -0.6644  0.2834
13104TIP3   OH260726   3.836   3.891   1.052  0.5871 -0.1805  0.2358
13104TIP3    H160727   3.757   3.944   1.038  1.2438  0.7225 -0.1361
13104TIP3    H260728   3.810   3.826   1.117 -0.3257  0.4067  0.4742
13105TIP3   OH260729   1.549   6.714   0.336 -0.3816  0.5033 -0.1763
13105TIP3    H160730   1.529   6.774   0.264  2.1674  1.0700 -0.4873
13105TIP3    H260731   1.526   6.628   0.303  0.9975  0.7108 -1.8302
13106TIP3   OH260732   0.861   2.041   4.262 -0.9571 -0.3141  0.3683
13106TIP3    H160733   0.877   2.090   4.342 -2.7067 -0.3387  0.7713
13106TIP3    H260734   0.937   1.983   4.253 -0.6830 -0.2280  1.9463
13107TIP3   OH260735   5.701   4.128   1.333  0.1707 -0.2105  0.2887
13107TIP3    H160736   5.716   4.041   1.297 -1.2108 -0.5845  0.5695
13107TIP3    H260737   5.675   4.113   1.423 -0.3855  0.4662  0.2500
13108TIP3   OH260738   5.629   0.245   4.464  0.6424  0.5124 -0.1115
13108TIP3    H160739   5.703   0.287   4.421  0.6654 -1.7205 -2.4677
13108TIP3    H260740   5.665   0.165   4.501 -0.5092 -0.5408 -1.1744
13109TIP3   OH260741   0.424   1.297   3.477  0.4092  0.0451  0.3409
13109TIP3    H160742   0.330   1.304   3.494 -0.0939 -4.0902  0.3358
13109TIP3    H260743   0.440   1.203   3.470  3.7558  0.6275 -4.3661
13110TIP3   OH260744   1.655   2.473   3.504 -0.1978 -0.4605 -0.2062
13110TIP3    H160745   1.661   2.564   3.477 -0.5898  0.4698  2.5218
13110TIP3    H260746   1.727   2.429   3.459  0.4548  1.3376 -0.9886
13111TIP3   OH260747   3.190   4.900   0.707  0.2256 -0.0982 -0.1142
13111TIP3    H160748   3.283   4.888   0.726  0.0586 -0.3046  0.5857
13111TIP3    H260749   3.156   4.947   0.783  0.2748  2.3340 -1.4922
13112TIP3   OH260750   5.500   3.445   3.547 -0.3668 -0.4241  0.0433
13112TIP3    H160751   5.427   3.428   3.487 -1.3759  3.9960 -0.2922
13112TIP3    H260752   5.458   3.469   3.629  0.6567  1.8120 -0.0342
13113TIP3   OH260753   2.618   6.006   3.410  0.0693  0.0165  0.2337
13113TIP3    H160754   2.687   5.944   3.435  1.5157  1.1267 -0.8096
13113TIP3    H260755   2.663   6.090   3.405 -0.9721  0.5144 -2.0923
13114TIP3   OH260756   5.039   6.205  15.362  0.5561  0.4468  0.4822
13114TIP3    H160757   5.013   6.114  15.373  1.7170  0.1850  1.2936
13114TIP3    H260758   4.983   6.238  15.293 -0.3346 -0.6983  0.6256
13115TIP3   OH260759   0.156   2.884   2.859 -0.5487  0.0104  0.2488
13115TIP3    H160760   0.186   2.920   2.775 -0.4559  0.4209  0.4557
13115TIP3    H260761   0.225   2.907   2.921 -0.3795 -0.7178  0.3468
13116TIP3   OH260762   1.676   4.741  16.322  0.1124  0.6449 -0.5496
13116TIP3    H160763   1.599   4.798  16.316 -0.7408 -0.5770 -1.8671
13116TIP3    H260764   1.691   4.713  16.232  1.2946 -0.2009 -0.1059
13117TIP3   OH260765   3.800   1.626   1.422  0.6244 -0.1961  0.1206
13117TIP3    H160766   3.870   1.598   1.481  1.4852  0.2114 -0.6796
13117TIP3    H260767   3.800   1.561   1.352 -0.1689 -0.4959  0.3971
13118TIP3   OH260768   6.655   1.918  15.771 -0.6372  0.8452 -0.0684
13118TIP3    H160769   6.673   1.997  15.822  0.0647  0.2503  0.6284
13118TIP3    H260770   6.629   1.853  15.836 -1.0803  0.4675 -0.6218
13119TIP3   OH260771   6.008   1.791   0.441 -0.6096 -0.0679  0.1418
13119TIP3    H160772   6.091   1.759   0.407 -0.6967 -0.8540  0.6523
13119TIP3    H260773   5.971   1.844   0.369 -0.3655 -0.9400 -0.6376
13120TIP3   OH260774   1.423   0.771   0.200 -0.2216 -0.1538 -0.3110
13120TIP3    H160775   1.361   0.747   0.131  0.8153 -0.1450 -1.2831
13120TIP3    H260776   1.414   0.866   0.208  1.0622  0.1601 -1.9159
13121TIP3   OH260777   6.363   6.140   3.289  0.1439 -0.6210  0.1501
13121TIP3    H160778   6.269   6.140   3.303  0.0209  1.2425 -0.3185
13121TIP3    H260779   6.376   6.199   3.214  1.7670  0.4265  1.1886
13122TIP3   OH260780   5.457   6.696  13.272 -0.2162 -0.3250  0.9724
13122TIP3    H160781   5.399   6.720  13.200 -0.3775  1.0519  1.5399
13122TIP3    H260782   5.402   6.645  13.331 -0.5804  0.1006  1.0051
13123TIP3   OH260783   0.539   2.677  15.066 -0.2493  0.2128  0.1361
13123TIP3    H160784   0.461   2.685  15.010 -0.6313  0.0393  0.6319
13123TIP3    H260785   0.548   2.763  15.107 -0.0366  0.3053 -0.1016
13124TIP3   OH260786   2.125   1.449  14.896 -0.0219  0.1104  0.4985
13124TIP3    H160787   2.202   1.502  14.875  0.7115 -0.9624  0.3750
13124TIP3    H260788   2.062   1.469  14.826  0.8969 -0.4500 -0.5142
13125TIP3   OH260789   2.745   1.806   5.163 -0.5217 -0.2143  0.3210
13125TIP3    H160790   2.790   1.890   5.165 -0.7491 -0.0545 -0.5048
13125TIP3    H260791   2.803   1.745   5.207 -0.7561  0.5587  1.7377
13126TIP3   OH260792   3.860   3.638  15.014 -0.2225  0.1105 -0.1499
13126TIP3    H160793   3.952   3.656  14.990  0.1022  1.0106  1.5949
13126TIP3    H260794   3.866   3.573  15.084 -0.7803  1.4554  1.1883
13127TIP3   OH260795   0.573   5.195  11.129 -0.0058 -0.4975  0.4136
13127TIP3    H160796   0.503   5.130  11.133 -1.2923  0.6997 -1.3689
13127TIP3    H260797   0.583   5.215  11.036  2.4925 -0.3553  0.6331
13128TIP3   OH260798   1.314   0.234  11.891 -0.1590 -0.0970 -0.7075
13128TIP3    H160799   1.397   0.212  11.934 -1.5267 -1.9236  1.2419
13128TIP3    H260800   1.288   0.317  11.930 -0.1050 -0.4323  0.0630
13129TIP3   OH260801   5.946   0.998   1.474 -0.0503 -0.5269 -0.2203
13129TIP3    H160802   5.853   1.015   1.488  0.1222 -0.6549  1.2040
13129TIP3    H260803   5.989   1.082   1.492  0.0996 -0.3701 -1.2244
13130TIP3   OH260804   4.660   2.015   5.280 -0.0349  0.3224  0.0403
13130TIP3    H160805   4.568   1.990   5.267 -0.5553  0.8269  2.3609
13130TIP3    H260806   4.657   2.110   5.294  0.6947  0.1948  1.1480
13131TIP3   OH260807   0.870   1.901  12.363  0.1188  0.2204  0.2254
13131TIP3    H160808   0.940   1.845  12.397  2.1644  2.9100  0.8370
13131TIP3    H260809   0.852   1.962  12.435 -0.8437  1.3477 -0.9386
13132TIP3   OH260810   6.779   0.093   1.997  0.2051 -0.2140 -0.1069
13132TIP3    H160811   6.744   0.104   2.086  0.3902 -1.4344  0.1325
13132TIP3    H260812   6.767   0.179   1.956 -1.8471 -0.2207  0.3873
13133TIP3   OH260813   6.476   1.949   3.085  0.0678  0.5692  0.1890
13133TIP3    H160814   6.416   1.900   3.141 -0.8879 -0.4482 -1.6071
13133TIP3    H260815   6.419   2.001   3.028  1.0143  2.1198  0.5828
13134TIP3   OH260816   0.535   2.109  12.642  0.4420 -0.2751  0.1876
13134TIP3    H160817   0.561   2.201  12.633 -2.0051  0.4637 -0.2663
13134TIP3    H260818   0.616   2.060  12.635  2.1311  1.9264  2.4221
13135TIP3   OH260819   5.544   5.851  13.671  0.0905 -0.5330 -0.0975
13135TIP3    H160820   5.493   5.775  13.642  0.7082 -1.1383  0.3723
13135TIP3    H260821   5.570   5.830  13.760  0.4123  0.1629 -0.0181
13136TIP3   OH260822   4.008   6.145   4.247 -0.0043 -0.5960 -0.6658
13136TIP3    H160823   3.986   6.053   4.255  0.1973 -0.5083  1.7908
13136TIP3    H260824   4.083   6.157   4.306  0.1872  1.0690 -1.1839
13137TIP3   OH260825   5.293   6.136   3.586  0.6661  0.2884  0.4092
13137TIP3    H160826   5.342   6.199   3.533  1.5242  0.1671  1.0379
13137TIP3    H260827   5.350   6.118   3.661  1.1259 -2.3837 -0.4899
13138TIP3   OH260828   3.001   4.973   5.856  0.0371  0.2239  0.0106
13138TIP3    H160829   2.977   4.881   5.845  1.1749 -0.2261  1.1344
13138TIP3    H260830   3.002   5.008   5.766 -0.9969 -0.6869 -0.3738
13139TIP3   OH260831   6.301   3.577  15.955 -0.0296 -0.3166 -0.6032
13139TIP3    H160832   6.316   3.581  16.050 -0.4816 -0.5304 -0.5211
13139TIP3    H260833   6.215   3.617  15.943 -0.3371 -1.0383 -0.8337
13140TIP3   OH260834   3.001   3.892  13.840  0.6349 -0.2627  0.3768
13140TIP3    H160835   2.931   3.846  13.886 -0.2587  0.3597 -0.3190
13140TIP3    H260836   3.032   3.957  13.903  0.2202 -0.1943  0.5170
13141TIP3   OH260837   0.281   2.149  14.330  0.1890  0.2611  0.8247
13141TIP3    H160838   0.288   2.077  14.268 -1.8388  0.3443  0.4525
13141TIP3    H260839   0.188   2.170  14.334  0.5012  1.6376  2.3385
13142TIP3   OH260840   0.022   1.398   1.391 -0.1988  0.2470  0.2212
13142TIP3    H160841  -0.014   1.486   1.398 -2.1588 -0.4442 -0.5346
13142TIP3    H260842   0.092   1.396   1.456  1.7785  3.2141 -1.5459
13143TIP3   OH260843   1.762   5.865  15.010 -0.0753 -0.0736  0.0618
13143TIP3    H160844   1.682   5.828  15.049  1.3571 -0.9852  2.3355
13143TIP3    H260845   1.790   5.931  15.073 -0.0542  1.6742 -1.6984
13144TIP3   OH260846   2.372   1.743   6.390  0.1692 -0.4615 -0.1065
13144TIP3    H160847   2.446   1.797   6.364 -1.4318  1.7205 -0.4754
13144TIP3    H260848   2.404   1.653   6.385  2.5323  0.3587 -0.9617
13145TIP3   OH260849   0.578   3.400   1.560  0.1737 -0.0237 -0.1525
13145TIP3    H160850   0.651   3.460   1.569 -0.9006  1.2690  0.2621
13145TIP3    H260851   0.501   3.456   1.546 -0.9059 -1.2741  0.4667
13146TIP3   OH260852   5.054   3.570  12.039  0.0638 -0.5352 -0.5709
13146TIP3    H160853   5.141   3.539  12.064 -0.4227 -1.3058  0.2551
13146TIP3    H260854   5.032   3.636  12.105 -0.0889 -0.5300 -0.6269
13147TIP3   OH260855   4.424   6.777  15.130 -0.2641  0.0714 -0.6897
13147TIP3    H160856   4.379   6.851  15.087 -1.2749  0.0406  0.2703
13147TIP3    H260857   4.447   6.810  15.216 -1.7307 -1.0433  0.1792
13148TIP3   OH260858   1.685   1.185   2.299  0.2543  0.2805  0.6845
13148TIP3    H160859   1.725   1.229   2.374  1.4268 -0.1174  0.3271
13148TIP3    H260860   1.658   1.100   2.333  1.4633 -0.1949  0.5154
13149TIP3   OH260861   0.096   2.645   3.226  0.0024 -0.1719  0.0187
13149TIP3    H160862   0.049   2.728   3.222  0.2857 -0.0603 -2.4474
13149TIP3    H260863   0.064   2.596   3.150  0.5854 -1.9229  0.8499
13150TIP3   OH260864   0.474   1.668  12.245  0.5129 -0.1117  0.2270
13150TIP3    H160865   0.505   1.758  12.257  2.4648 -0.6971 -0.0957
13150TIP3    H260866   0.525   1.635  12.171 -1.4914 -0.9356 -0.8460
13151TIP3   OH260867   6.291   0.740   0.265  0.1239  0.4879  0.6131
13151TIP3    H160868   6.234   0.791   0.323 -0.3203  0.2641  0.3853
13151TIP3    H260869   6.234   0.671   0.231  0.4681  0.4123  0.1762
13152TIP3   OH260870   6.039   4.797  15.429  0.4020 -0.4411 -0.0359
13152TIP3    H160871   6.035   4.808  15.334 -0.0047  0.1067  0.0394
13152TIP3    H260872   6.131   4.774  15.446  1.0103  1.5283 -0.3725
13153TIP3   OH260873   4.165   1.546  15.085  0.0574  0.5555  0.1048
13153TIP3    H160874   4.136   1.617  15.143 -1.4052 -0.9657  1.3214
13153TIP3    H260875   4.139   1.575  14.997  0.6715  2.0810  0.3878
13154TIP3   OH260876   2.048   4.673  15.884  0.3551 -0.2168  0.0780
13154TIP3    H160877   2.137   4.703  15.898  0.6792 -0.9375 -0.4071
13154TIP3    H260878   2.016   4.652  15.972  0.6918 -0.0564  0.2414
13155TIP3   OH260879   0.023   0.449  15.579 -0.0405 -0.0286 -0.2207
13155TIP3    H160880   0.072   0.376  15.541  1.7916  0.4707  1.0991
13155TIP3    H260881   0.049   0.452  15.671 -1.4773  1.1602  0.1993
13156TIP3   OH260882   3.458   5.942   3.785 -0.1403 -0.2147 -0.0877
13156TIP3    H160883   3.500   5.952   3.700 -2.5394 -0.2927 -1.3600
13156TIP3    H260884   3.451   5.847   3.798  0.4906 -0.2070  0.3626
13157TIP3   OH260885   4.090   0.849   4.130  0.1093  0.3811  0.3959
13157TIP3    H160886   4.050   0.769   4.164 -1.0017 -0.3654 -2.3462
13157TIP3    H260887   4.027   0.918   4.150 -0.7082 -0.1048 -0.4290
13158TIP3   OH260888   3.758   1.772  11.458  0.2983  0.2308  1.2071
13158TIP3    H160889   3.823   1.784  11.389 -0.0610  1.8049  1.0974
13158TIP3    H260890   3.732   1.680  11.452  0.9864  0.1052 -0.0936
13159TIP3   OH260891   3.143   3.971   2.934  0.1951  0.3514 -0.6247
13159TIP3    H160892   3.128   3.946   2.843  0.0788 -1.4303 -0.1689
13159TIP3    H260893   3.109   3.896   2.984 -0.4184  1.6041  0.9132
13160TIP3   OH260894   2.046   4.099   1.295 -0.0485 -0.3112  0.3749
13160TIP3    H160895   2.118   4.162   1.299  1.1236 -1.4656 -0.9541
13160TIP3    H260896   2.044   4.059   1.382  0.4659  0.2250  0.6370
13161TIP3   OH260897   0.221   2.559  17.260  0.2001 -0.0300  0.1305
13161TIP3    H160898   0.230   2.524  17.349  3.0634  0.1349  0.0041
13161TIP3    H260899   0.269   2.642  17.262  1.8048 -0.8220 -1.9540
13162TIP3   OH260900   4.700   4.781   2.028  0.2097 -0.1401 -0.0878
13162TIP3    H160901   4.678   4.767   1.936 -0.2616  1.7109 -0.3120
13162TIP3    H260902   4.671   4.871   2.046  0.0256 -0.5507  1.9497
13163TIP3   OH260903   1.127   4.465   4.674  0.7411  0.0012 -0.6027
13163TIP3    H160904   1.101   4.430   4.589 -1.3611 -0.0766  0.0133
13163TIP3    H260905   1.131   4.388   4.731 -0.2478  0.3002 -0.1022
13164TIP3   OH260906   0.552   1.098  12.165 -0.1021 -0.7186 -0.0622
13164TIP3    H160907   0.550   1.002  12.163 -2.1794 -0.7814  1.6668
13164TIP3    H260908   0.460   1.124  12.167  0.4130  1.2354  1.1140
13165TIP3   OH260909   4.086   0.595   0.132  0.0214 -0.3860  0.6070
13165TIP3    H160910   4.044   0.516   0.166 -1.2474 -2.3743 -4.7033
13165TIP3    H260911   4.017   0.661   0.133 -0.7102 -1.1164 -0.2036
13166TIP3   OH260912   5.925   6.768   1.593  0.1593  0.3675 -0.4687
13166TIP3    H160913   5.884   6.701   1.648 -0.1750 -0.3666 -1.5813
13166TIP3    H260914   5.972   6.824   1.655  2.0814 -2.0014  0.3644
13167TIP3   OH260915   0.610   4.056  16.684 -0.2080 -0.3909  0.1160
13167TIP3    H160916   0.684   4.106  16.649 -0.8267  0.7081  0.3237
13167TIP3    H260917   0.649   3.999  16.751  0.7711 -1.4663 -1.2942
13168TIP3   OH260918   0.880   0.393  12.916  0.1815 -0.1058 -0.7441
13168TIP3    H160919   0.871   0.487  12.901 -1.0316 -0.2757 -1.1945
13168TIP3    H260920   0.845   0.352  12.837  0.1079 -0.9411 -0.2967
13169TIP3   OH260921   1.784   6.437   2.896  0.5808 -0.1718 -0.0134
13169TIP3    H160922   1.841   6.363   2.878  1.5952  0.6434 -0.2155
13169TIP3    H260923   1.707   6.422   2.841  0.1479 -1.7461  0.9395
13170TIP3   OH260924   4.993   2.597  15.894  0.1235 -0.1199 -0.6975
13170TIP3    H160925   5.029   2.550  15.819 -0.8785 -0.3180 -1.0570
13170TIP3    H260926   4.984   2.688  15.864  0.3828 -0.0537 -0.5819
13171TIP3   OH260927   4.270   6.106   4.782 -0.2326 -0.7246 -0.3638
13171TIP3    H160928   4.343   6.155   4.742 -0.9373 -0.7802 -1.7970
13171TIP3    H260929   4.223   6.172   4.834  0.2703 -0.4652 -0.2317
13172TIP3   OH260930   3.332   1.550   3.900  0.3133  0.4167  0.2729
13172TIP3    H160931   3.237   1.552   3.908  0.3098  0.7456  0.1675
13172TIP3    H260932   3.351   1.603   3.823  0.5665  0.1298  0.1345
13173TIP3   OH260933   2.215   5.448  15.311  0.5102 -0.0422  0.2429
13173TIP3    H160934   2.210   5.468  15.218  0.4277 -2.7108 -0.4218
13173TIP3    H260935   2.199   5.354  15.316  1.1156 -0.0908  2.9109
13174TIP3   OH260936   2.869   4.497   5.566  0.2475  0.4630 -0.2807
13174TIP3    H160937   2.781   4.476   5.535  0.4654 -0.7032 -0.1718
13174TIP3    H260938   2.926   4.437   5.518  1.0591  1.5942 -0.7659
13175TIP3   OH260939   2.725   5.287  15.135  0.4354 -0.2501  0.1762
13175TIP3    H160940   2.811   5.263  15.169  0.1984 -2.4451 -0.6034
13175TIP3    H260941   2.668   5.215  15.161 -1.0258  0.8139  0.0449
13176TIP3   OH260942   0.738   6.705   1.610  0.1901  0.1470  0.3178
13176TIP3    H160943   0.745   6.720   1.516 -0.8573 -2.2344 -0.2315
13176TIP3    H260944   0.827   6.685   1.639  0.1886 -1.5179 -0.7078
13177TIP3   OH260945   6.588   0.960   4.996 -0.7969  0.1282  0.0764
13177TIP3    H160946   6.609   0.878   5.041 -0.9238  0.0677  0.0272
13177TIP3    H260947   6.610   1.029   5.059  2.0748  0.2213 -0.8772
13178TIP3   OH260948   1.444   5.981   0.331  0.2825 -0.2839 -0.0704
13178TIP3    H160949   1.459   5.887   0.341  1.2259 -0.0789  0.6221
13178TIP3    H260950   1.514   6.022   0.382 -0.1790  0.7962 -0.2712
13179TIP3   OH260951   5.408   4.710   5.103 -0.1961  0.2436  0.3856
13179TIP3    H160952   5.437   4.768   5.173 -1.7123  0.1225  1.1399
13179TIP3    H260953   5.338   4.658   5.141 -0.3835 -0.5311 -0.9342
13180TIP3   OH260954   6.221   0.126   2.132 -0.8827 -0.2659  0.3080
13180TIP3    H160955   6.198   0.213   2.165 -2.3110 -0.6404  0.3783
13180TIP3    H260956   6.159   0.067   2.176 -0.7724 -1.1600 -0.6969
13181TIP3   OH260957   3.661   6.153  16.147 -0.4892  0.1591  0.4662
13181TIP3    H160958   3.685   6.090  16.215  0.9942 -2.2041 -2.0550
13181TIP3    H260959   3.585   6.114  16.104 -0.5163  0.8607 -0.1437
13182TIP3   OH260960   3.794   0.994   4.196  0.3517  0.4885 -0.5685
13182TIP3    H160961   3.825   1.017   4.283 -0.1404 -2.5876  0.5577
13182TIP3    H260962   3.706   1.030   4.191  0.2354  0.3605  0.3864
13183TIP3   OH260963   1.378   0.100   2.497 -0.1825 -0.1558  0.1483
13183TIP3    H160964   1.344   0.129   2.412  0.0220 -0.6298 -0.0975
13183TIP3    H260965   1.340   0.013   2.509  0.6194 -0.5271  0.0571
13184TIP3   OH260966   6.667   0.135  11.576  0.0662 -0.3596  0.7776
13184TIP3    H160967   6.718   0.197  11.525 -0.8928 -0.1038  0.1039
13184TIP3    H260968   6.700   0.144  11.666 -0.6780  1.8136  0.8788
13185TIP3   OH260969   1.223   0.895  11.163 -0.1924 -0.0267  0.0237
13185TIP3    H160970   1.279   0.819  11.148 -0.8179 -0.4548 -0.2117
13185TIP3    H260971   1.149   0.862  11.213  1.3565  1.1947  3.4387
13186TIP3   OH260972   0.604   2.577  11.806 -0.5130  0.0926 -0.2697
13186TIP3    H160973   0.628   2.490  11.773 -1.0193 -0.4621  0.7814
13186TIP3    H260974   0.662   2.590  11.882  0.8132  1.4534 -1.4384
13187TIP3   OH260975   5.484   5.280  11.245 -0.3717 -0.3246  0.5545
13187TIP3    H160976   5.409   5.227  11.219 -0.3111 -0.3717  0.4781
13187TIP3    H260977   5.557   5.219  11.246 -0.5580 -0.5629  1.8263
13188TIP3   OH260978   4.354   2.403  13.049 -0.0907 -0.1963 -0.0813
13188TIP3    H160979   4.435   2.371  13.089  0.7409 -0.1953 -1.6980
13188TIP3    H260980   4.349   2.495  13.074  1.3799  0.2846 -1.4548
13189TIP3   OH260981   3.860   2.090  16.916  0.5716  0.6136 -0.5619
13189TIP3    H160982   3.809   2.028  16.969  1.8692  0.1275  0.1677
13189TIP3    H260983   3.831   2.073  16.827 -0.6036  0.4222 -0.1691
13190TIP3   OH260984   1.806   2.091  13.172  0.4132  0.4348  0.4161
13190TIP3    H160985   1.795   2.019  13.111  0.1743  1.5106 -0.8706
13190TIP3    H260986   1.758   2.065  13.250  0.7816 -1.0054  0.1776
13191TIP3   OH260987   1.685   2.479  13.238 -0.3806  0.1848  0.0296
13191TIP3    H160988   1.683   2.454  13.330 -1.4968 -0.9449 -0.2685
13191TIP3    H260989   1.598   2.516  13.221 -0.3517 -0.0464 -0.6740
13192TIP3   OH260990   1.851   0.385  11.286 -0.3363  0.2504  0.1663
13192TIP3    H160991   1.873   0.291  11.286 -2.0135 -0.1973  1.6335
13192TIP3    H260992   1.801   0.398  11.206  0.3161  0.0120 -0.2892
13193TIP3   OH260993   0.731   3.494   0.640  0.0128 -0.1789 -0.1976
13193TIP3    H160994   0.692   3.521   0.723 -0.5445  0.2137 -0.5831
13193TIP3    H260995   0.759   3.576   0.599 -0.0035 -0.3448 -0.5417
13194TIP3   OH260996   5.507   5.439   0.492 -0.1230 -0.4962 -0.2538
13194TIP3    H160997   5.534   5.424   0.401  0.6242 -1.5771  0.1319
13194TIP3    H260998   5.572   5.500   0.526 -1.1325  0.9316 -0.7902
13195TIP3   OH260999   3.634   6.707  14.290 -0.0289 -0.2297 -0.8127
13195TIP3    H161000   3.645   6.617  14.319 -3.2678 -0.5862 -0.2882
13195TIP3    H261001   3.710   6.724  14.234  1.8399 -2.4711  0.8323
13196TIP3   OH261002   2.277   2.568  13.347  0.2876  0.3301  0.8075
13196TIP3    H161003   2.365   2.531  13.349  0.2439  0.2329  1.0896
13196TIP3    H261004   2.258   2.590  13.439  0.0466  0.4152  0.7397
13197TIP3   OH261005   1.308   5.978   1.825 -0.3417  0.1504 -0.1002
13197TIP3    H161006   1.346   5.983   1.738 -1.3311 -1.4603 -0.6607
13197TIP3    H261007   1.381   5.953   1.882 -0.2217 -1.6553 -0.9621
13198TIP3   OH261008   5.333   5.191  15.680  0.4982  0.3946 -0.0689
13198TIP3    H161009   5.335   5.286  15.684  0.6669  0.4454 -1.2291
13198TIP3    H261010   5.422   5.166  15.655  0.5386 -0.0909  0.5333
13199TIP3   OH261011   0.233   0.855  13.068  0.3622  0.4377 -0.6772
13199TIP3    H161012   0.216   0.783  13.128 -1.6771  1.5074  0.1188
13199TIP3    H261013   0.326   0.847  13.047  0.6601 -1.1813  0.9966
13200TIP3   OH261014   1.839   0.959  13.165 -0.2132 -0.0503  0.2182
13200TIP3    H161015   1.868   1.050  13.166  3.3636 -1.0158  0.1014
13200TIP3    H261016   1.884   0.920  13.090 -0.4042 -2.2309  1.1404
13201TIP3   OH261017   3.250   1.486   3.113 -0.2919  0.6648  0.2479
13201TIP3    H161018   3.172   1.506   3.164 -0.3494 -1.5869  1.1274
13201TIP3    H261019   3.299   1.424   3.166  1.0333  0.3902 -1.2157
13202TIP3   OH261020   0.944   3.984  12.624 -0.3407  0.0202 -0.0773
13202TIP3    H161021   1.004   4.048  12.586  0.7924 -0.0483  1.4780
13202TIP3    H261022   0.887   4.036  12.681 -0.3018 -0.1969  0.1599
13203TIP3   OH261023   6.407   4.037  13.959 -0.2954 -0.1026 -0.4303
13203TIP3    H161024   6.490   4.009  13.996 -1.6189 -0.2910  2.6483
13203TIP3    H261025   6.417   4.131  13.945  0.5749 -0.2033 -0.5197
13204TIP3   OH261026   5.229   3.499   6.077 -0.2059 -0.9710 -0.0788
13204TIP3    H161027   5.166   3.569   6.060  1.6581  0.8798  0.3757
13204TIP3    H261028   5.274   3.486   5.993  0.3491 -0.7004  0.1741
13205TIP3   OH261029   4.145   0.806  15.614  0.3390 -0.2778  0.0955
13205TIP3    H161030   4.176   0.784  15.526 -0.2752 -0.1111 -0.1652
13205TIP3    H261031   4.221   0.789  15.670  1.2406  1.0751 -0.6459
13206TIP3   OH261032   6.436   1.869  14.507  0.2816 -0.2813 -0.1657
13206TIP3    H161033   6.494   1.879  14.432  0.1082 -0.1448 -0.2825
13206TIP3    H261034   6.494   1.845  14.580  0.3186 -1.6059 -0.6018
13207TIP3   OH261035   6.739   3.070  11.757  0.4640  0.2497  0.0192
13207TIP3    H161036   6.687   2.992  11.772  1.7719 -0.2594  2.3361
13207TIP3    H261037   6.747   3.111  11.843  0.7768  2.3380 -0.9404
13208TIP3   OH261038   1.580   4.496  11.690 -0.1702  0.3421 -0.6576
13208TIP3    H161039   1.513   4.551  11.650  0.7673  1.4637 -0.7247
13208TIP3    H261040   1.643   4.557  11.728 -1.8080 -0.5122  4.1676
13209TIP3   OH261041   4.174   1.929  12.265  0.1235 -0.4533  0.2930
13209TIP3    H161042   4.177   1.834  12.266 -0.3175 -0.4729 -0.0012
13209TIP3    H261043   4.083   1.950  12.286  0.3630 -0.0821  1.0165
13210TIP3   OH261044   4.221   1.838  13.244  0.2046 -0.0504  0.5351
13210TIP3    H161045   4.183   1.923  13.264  0.4142  0.4482 -0.9957
13210TIP3    H261046   4.146   1.784  13.220  0.2601  0.4949 -1.0143
13211TIP3   OH261047   0.056   2.938  13.669 -0.1733  0.4072  0.1079
13211TIP3    H161048   0.018   2.971  13.587  0.4590 -0.1189 -0.4065
13211TIP3    H261049  -0.016   2.890  13.711 -1.0597  2.2458  0.7913
13212TIP3   OH261050   2.117   2.031  11.341  0.0735 -0.4728  0.3244
13212TIP3    H161051   2.032   2.006  11.377  0.0285 -1.3683 -0.3705
13212TIP3    H261052   2.146   1.954  11.292  0.7632  0.2230 -0.3935
13213TIP3   OH261053   4.234   2.564   3.061  0.7729 -0.5602 -0.0068
13213TIP3    H161054   4.152   2.529   3.026  1.1292 -0.1560 -1.3023
13213TIP3    H261055   4.252   2.511   3.139 -1.9255  0.8782  1.7331
13214TIP3   OH261056   0.380   6.413   3.924 -0.8239 -0.4407 -0.4410
13214TIP3    H161057   0.362   6.333   3.873 -2.5321 -0.3688 -0.0100
13214TIP3    H261058   0.310   6.473   3.899  1.6396  1.8444 -2.4738
13215TIP3   OH261059   4.291   4.364  14.030 -0.0267  0.9508  0.3252
13215TIP3    H161060   4.260   4.357  14.120  1.4347 -2.1357  0.7440
13215TIP3    H261061   4.213   4.388  13.980 -1.3169  0.8886  2.1734
13216TIP3   OH261062   2.431   3.356   1.267 -0.5120  0.0212  0.5843
13216TIP3    H161063   2.478   3.431   1.304 -1.6634  1.5144 -0.8405
13216TIP3    H261064   2.356   3.394   1.222  0.6776 -1.5684 -3.2096
13217TIP3   OH261065   4.476   3.178  14.296  0.0644 -0.2895  0.0697
13217TIP3    H161066   4.551   3.205  14.348 -0.4487 -1.3324  1.4063
13217TIP3    H261067   4.400   3.196  14.351 -0.4419 -2.1193  0.0566
13218TIP3   OH261068   6.417   1.333  14.462 -0.1008 -1.0737  0.4534
13218TIP3    H161069   6.353   1.403  14.474 -0.2817 -0.9835 -0.9003
13218TIP3    H261070   6.396   1.296  14.377  1.2539 -1.4511  0.2613
13219TIP3   OH261071   0.920   0.319  13.314  0.3167  0.6959  0.3249
13219TIP3    H161072   0.934   0.398  13.262  0.6526  0.0058 -0.6568
13219TIP3    H261073   0.946   0.344  13.403  2.3071  1.1324 -0.3385
13220TIP3   OH261074   5.779   2.521   2.475 -0.8693 -0.5361 -0.4241
13220TIP3    H161075   5.798   2.492   2.385  1.5626 -1.1428  0.2130
13220TIP3    H261076   5.813   2.450   2.530  0.0227  0.9489  1.0207
13221TIP3   OH261077   5.251   6.457   0.430 -0.7119 -0.1573  0.0534
13221TIP3    H161078   5.280   6.393   0.495 -0.5462 -0.9536 -0.7682
13221TIP3    H261079   5.176   6.415   0.387 -1.2583  0.6512  0.1935
13222TIP3   OH261080   1.915   3.598   5.543  0.0200 -0.0644 -0.0742
13222TIP3    H161081   1.905   3.518   5.595 -1.6117  1.1967  1.6411
13222TIP3    H261082   1.981   3.575   5.477  1.2638 -2.1076  1.7634
13223TIP3   OH261083   1.267   1.480  16.813 -0.2446 -0.5744  0.4042
13223TIP3    H161084   1.211   1.487  16.890 -0.0876 -0.9650  0.5569
13223TIP3    H261085   1.210   1.506  16.740 -0.1697  0.5674  0.7318
13224TIP3   OH261086   5.187   5.202  13.253  0.7532 -0.2716 -0.0229
13224TIP3    H161087   5.280   5.209  13.278  0.5498 -2.3522  1.5484
13224TIP3    H261088   5.186   5.135  13.185  0.5047  0.6426 -0.9470
13225TIP3   OH261089   6.373   1.750   2.309  0.0773 -0.1410 -0.1246
13225TIP3    H161090   6.301   1.778   2.366  0.8540 -0.6633  1.1746
13225TIP3    H261091   6.449   1.797   2.343  1.2316 -2.9194  1.5215
13226TIP3   OH261092   1.614   0.635   5.640 -0.1277  0.0413  0.3487
13226TIP3    H161093   1.632   0.607   5.550  2.5635  3.6599 -0.4903
13226TIP3    H261094   1.524   0.609   5.656 -1.2011  0.3906 -3.9287
13227TIP3   OH261095   4.642   3.470  14.722  0.5711 -0.2319 -0.1452
13227TIP3    H161096   4.589   3.419  14.784  1.3552 -1.1283 -0.1998
13227TIP3    H261097   4.666   3.549  14.771 -0.6738  0.1252 -0.0682
13228TIP3   OH261098   5.415   3.759  10.961 -0.0200 -0.0902 -0.4081
13228TIP3    H161099   5.368   3.695  11.015 -0.6280  0.3311 -0.4317
13228TIP3    H261100   5.462   3.814  11.024 -1.6649  1.1470 -0.2049
13229TIP3   OH261101   0.670   5.991   4.238 -0.3281  0.1385  0.0568
13229TIP3    H161102   0.593   5.996   4.295 -0.8897 -2.3536 -0.3628
13229TIP3    H261103   0.655   6.059   4.172 -3.3007 -1.6139 -1.2490
13230TIP3   OH261104   1.684   5.297  13.578 -0.2613 -0.0538  0.4112
13230TIP3    H161105   1.680   5.336  13.491  1.4147 -0.9186 -0.0974
13230TIP3    H261106   1.686   5.203  13.562  0.2233 -0.2163  1.3586
13231TIP3   OH261107   0.735   0.366   0.140  0.1375  0.0187  0.2551
13231TIP3    H161108   0.828   0.388   0.149  0.0928 -0.1556  1.2708
13231TIP3    H261109   0.735   0.274   0.112  0.2673 -0.2406  1.0837
13232TIP3   OH261110   3.647   0.678  16.991 -0.6287  0.4680 -0.2156
13232TIP3    H161111   3.643   0.595  17.039 -2.0354 -0.3281 -1.5926
13232TIP3    H261112   3.598   0.740  17.046 -1.0834 -0.0808  0.0138
13233TIP3   OH261113   3.767   5.028  11.746  0.6342  0.6678 -0.5578
13233TIP3    H161114   3.827   4.992  11.680  1.0345 -1.5363  0.8973
13233TIP3    H261115   3.765   4.961  11.815 -1.1079  2.1046  0.8693
13234TIP3   OH261116   6.010   4.147  12.043  0.2401  0.0932 -0.0091
13234TIP3    H161117   6.069   4.077  12.018  0.5532 -0.2511  1.5808
13234TIP3    H261118   5.985   4.188  11.960  1.1246 -1.0132 -0.8580
13235TIP3   OH261119   2.063   4.756   3.644 -0.4811 -0.6097  0.5231
13235TIP3    H161120   2.138   4.766   3.585  0.6137 -0.3832  1.9146
13235TIP3    H261121   2.026   4.671   3.620  0.5457 -0.9741  0.1682
13236TIP3   OH261122   2.948   5.937  11.298 -0.2595 -0.1684 -0.0041
13236TIP3    H161123   2.947   5.941  11.202 -0.5244 -0.5861 -0.0219
13236TIP3    H261124   3.029   5.890  11.319  0.2864  0.7505  0.0190
13237TIP3   OH261125   3.879   4.535  12.572  0.0410  0.3513 -0.3519
13237TIP3    H161126   3.788   4.555  12.594  0.3782  0.4477  1.0386
13237TIP3    H261127   3.930   4.578  12.640  1.1615  0.6309 -1.3438
13238TIP3   OH261128   4.904   2.283   6.145  0.0009 -0.3619  0.2446
13238TIP3    H161129   4.838   2.351   6.134  1.3164  0.9712  0.3446
13238TIP3    H261130   4.983   2.318   6.105  1.1127 -1.2015  1.5773
13239TIP3   OH261131   5.158   4.968   5.240  0.5729  0.7206 -0.1456
13239TIP3    H161132   5.186   5.059   5.229 -1.6839  1.4688 -0.1855
13239TIP3    H261133   5.123   4.943   5.154  1.8029 -0.4670 -0.3400
13240TIP3   OH261134   6.186   6.140   0.743 -0.1082 -0.2229  0.6397
13240TIP3    H161135   6.160   6.228   0.770  1.2595 -0.1449  1.8128
13240TIP3    H261136   6.258   6.154   0.680 -0.0954 -0.4972  0.5901
13241TIP3   OH261137   3.345   4.208  13.430  0.1709 -0.4964  0.1349
13241TIP3    H161138   3.386   4.294  13.438 -1.1479  0.1018  0.6901
13241TIP3    H261139   3.276   4.220  13.366 -0.2725 -1.0403  0.4984
13242TIP3   OH261140   3.393   6.030  14.377 -0.0283 -1.0610 -0.6477
13242TIP3    H161141   3.424   6.049  14.465  0.5351  1.5409 -1.3138
13242TIP3    H261142   3.472   6.003  14.329 -0.2672 -2.1131 -0.4651
13243TIP3   OH261143   0.778   0.996  11.260  0.0328 -0.1279  0.2676
13243TIP3    H161144   0.730   1.012  11.179  0.3344  0.2456  0.1559
13243TIP3    H261145   0.711   0.976  11.325 -0.1617 -1.2567 -0.2556
13244TIP3   OH261146   2.629   4.386   3.959 -0.3754 -0.1446  0.8580
13244TIP3    H161147   2.588   4.300   3.962  0.2689 -0.4760  0.0944
13244TIP3    H261148   2.716   4.373   3.997 -0.0060  0.0106  0.0773
13245TIP3   OH261149   5.170   4.077  12.236  0.0868  0.4521 -0.3993
13245TIP3    H161150   5.087   4.078  12.283  0.4376 -0.4094  0.2553
13245TIP3    H261151   5.235   4.053  12.302  0.5628 -0.9460 -1.3240
13246TIP3   OH261152   1.079   0.346  14.225  0.1746 -0.0309 -0.4475
13246TIP3    H161153   1.139   0.379  14.292  0.3634 -0.2417 -0.5120
13246TIP3    H261154   1.119   0.265  14.194 -0.8074 -0.9162  0.4608
13247TIP3   OH261155   4.504   4.408   6.047  0.1051 -0.5897 -0.0029
13247TIP3    H161156   4.569   4.460   6.095  0.1227 -0.5985 -0.0173
13247TIP3    H261157   4.526   4.423   5.954 -0.0867 -0.3741 -0.0123
13248TIP3   OH261158   4.650   6.087   3.963  0.3433 -0.4303 -0.0826
13248TIP3    H161159   4.712   6.140   4.012  1.0877 -1.2468 -0.1176
13248TIP3    H261160   4.636   6.010   4.018  0.7260 -1.0760 -0.8732
13249TIP3   OH261161   2.753   4.615   3.852  0.2737  0.0050  0.3668
13249TIP3    H161162   2.703   4.543   3.891  1.3895 -1.4956 -0.8514
13249TIP3    H261163   2.686   4.674   3.817 -0.6688 -0.4665  1.3077
13250TIP3   OH261164   5.643   3.644  15.738 -0.3821  0.5666 -0.2337
13250TIP3    H161165   5.601   3.574  15.687  1.4366 -1.1070  0.4412
13250TIP3    H261166   5.662   3.712  15.673 -1.3106  0.0347 -1.1041
13251TIP3   OH261167   4.009   2.592   2.328 -0.4458 -0.2735  0.2140
13251TIP3    H161168   4.029   2.596   2.234 -1.4041 -0.6977 -0.0229
13251TIP3    H261169   3.920   2.558   2.332  0.0930 -1.6856  1.3263
13252TIP3   OH261170   2.707   2.056   1.938  0.2421  0.2014 -0.2590
13252TIP3    H161171   2.750   1.979   1.975 -1.3316 -0.6067 -0.0013
13252TIP3    H261172   2.645   2.083   2.006  0.8024  1.7315 -0.3344
13253TIP3   OH261173   4.717   4.452   1.535 -0.3421 -0.1772  0.5806
13253TIP3    H161174   4.767   4.468   1.615  1.2508  1.2445 -0.6248
13253TIP3    H261175   4.742   4.363   1.509 -0.1114 -0.2792  1.1375
13254TIP3   OH261176   1.648   2.256   2.665 -0.0623 -0.9974  0.6684
13254TIP3    H161177   1.736   2.237   2.632 -0.3497 -1.1103 -0.0332
13254TIP3    H261178   1.591   2.192   2.623 -1.0009  1.1053 -1.4887
13255TIP3   OH261179   4.092   3.994   0.985 -0.3958  0.3838  0.4820
13255TIP3    H161180   4.124   4.079   1.014  0.2927  0.4804 -0.5149
13255TIP3    H261181   4.003   3.988   1.021 -0.4470  1.5135  0.5745
13256TIP3   OH261182   5.913   5.424  16.484 -0.2048 -0.6865  0.5959
13256TIP3    H161183   5.902   5.329  16.480  1.6136 -0.9082 -0.4448
13256TIP3    H261184   5.897   5.453  16.394  0.3881 -0.1581  0.6564
13257TIP3   OH261185   3.628   2.228   2.373 -0.1781 -0.1840 -0.5604
13257TIP3    H161186   3.643   2.136   2.395  4.4067  0.6165  0.7680
13257TIP3    H261187   3.677   2.241   2.291 -1.5452  0.9394 -1.2453
13258TIP3   OH261188   4.919   3.641   0.331 -0.6937  0.3010 -0.4970
13258TIP3    H161189   4.837   3.685   0.352 -1.4385 -1.5778  0.7627
13258TIP3    H261190   4.893   3.565   0.279  0.2425 -0.2534 -0.1790
13259TIP3   OH261191   0.980   2.707  13.864  0.0758 -0.8528 -0.1517
13259TIP3    H161192   1.016   2.671  13.945 -0.5018  0.1606  0.5762
13259TIP3    H261193   1.038   2.780  13.843 -1.6645  1.0391  1.2404
13260TIP3   OH261194   6.738   0.610  12.409  0.4741 -0.3792  0.4865
13260TIP3    H161195   6.833   0.614  12.419  0.3719 -0.6275  1.7294
13260TIP3    H261196   6.708   0.699  12.427  0.3987 -0.5219  1.0867
13261TIP3   OH261197   3.636   2.513  13.673  0.0459 -0.2563 -0.0950
13261TIP3    H161198   3.669   2.603  13.662 -0.4349  0.0110  0.6113
13261TIP3    H261199   3.583   2.497  13.595  0.9469 -0.3012 -0.7174
13262TIP3   OH261200   5.609   6.458   0.014  0.1843  0.0727 -0.3604
13262TIP3    H161201   5.545   6.418  -0.045  1.1479 -1.1122 -0.6523
13262TIP3    H261202   5.567   6.457   0.100 -0.3837 -0.2214 -0.6397
13263TIP3   OH261203   3.282   6.208   5.709  0.2504  0.6647 -0.1252
13263TIP3    H161204   3.264   6.301   5.695 -1.3224  0.7543  1.9378
13263TIP3    H261205   3.249   6.190   5.797  1.3442 -1.6590 -0.1042
13264TIP3   OH261206   4.049   5.211  11.242 -0.2721  0.7192  0.1067
13264TIP3    H161207   3.998   5.242  11.317  0.6803  1.8243  0.3354
13264TIP3    H261208   4.044   5.115  11.248 -0.4065  0.7809  1.4659
13265TIP3   OH261209   2.103   5.919   1.637  0.4263  0.1986 -0.2422
13265TIP3    H161210   2.050   5.999   1.634  1.5310  0.9372 -1.1401
13265TIP3    H261211   2.103   5.892   1.728  1.3701  2.1779  0.3952
13266TIP3   OH261212   0.154   2.821  12.659  0.3580 -0.1965  0.4296
13266TIP3    H161213   0.079   2.829  12.600  1.6391 -0.2049 -1.2628
13266TIP3    H261214   0.170   2.727  12.666  0.8075 -0.1506  0.0128
13267TIP3   OH261215   2.271   1.862  15.710  0.8789  0.2119  0.0581
13267TIP3    H161216   2.280   1.841  15.803  2.0754 -0.9648 -0.2877
13267TIP3    H261217   2.297   1.954  15.704 -1.4303  1.0078  1.1671
13268TIP3   OH261218   2.409   6.655   0.064  0.2787 -0.2708  0.0760
13268TIP3    H161219   2.430   6.596  -0.008 -0.6751  0.1579 -0.5756
13268TIP3    H261220   2.494   6.673   0.106  0.7469 -1.0705 -0.5059
13269TIP3   OH261221   6.112   0.348   3.418  0.6183 -0.5278 -0.3213
13269TIP3    H161222   6.115   0.393   3.333 -0.4425  0.9106  0.3494
13269TIP3    H261223   6.020   0.324   3.429  1.1750 -3.1121 -0.7139
13270TIP3   OH261224   4.990   1.006  13.837  0.2651 -0.1161  0.3867
13270TIP3    H161225   4.988   1.099  13.814 -1.1465 -0.4166 -0.9302
13270TIP3    H261226   4.898   0.983  13.849  0.4367 -1.7148 -1.0072
13271TIP3   OH261227   4.632   3.241   1.110  0.0231  0.1135  0.0698
13271TIP3    H161228   4.573   3.299   1.157  2.7003  1.2875  2.2205
13271TIP3    H261229   4.579   3.163   1.092 -2.5569  1.6335  0.5250
13272TIP3   OH261230   2.153   6.478  16.683 -0.1099  0.6965  0.4007
13272TIP3    H161231   2.104   6.414  16.735  1.0118  0.6185  1.3860
13272TIP3    H261232   2.106   6.560  16.695 -1.2041  0.2099 -0.3758
13273TIP3   OH261233   4.961   4.096   5.561 -0.6642 -0.2890 -0.0528
13273TIP3    H161234   4.974   4.005   5.532 -0.4917 -0.1714 -0.3380
13273TIP3    H261235   5.039   4.115   5.614 -0.6089 -0.2408 -0.1527
13274TIP3   OH261236   5.209   2.327  11.104  0.1478  0.0700  0.1937
13274TIP3    H161237   5.226   2.289  11.017  0.8782  2.9254 -1.0190
13274TIP3    H261238   5.114   2.321  11.114  0.2708 -2.7734  0.5054
13275TIP3   OH261239   3.213   0.499  12.013 -0.5712 -0.6999 -0.0323
13275TIP3    H161240   3.232   0.413  12.050 -4.1951 -0.2756  3.5650
13275TIP3    H261241   3.209   0.484  11.919 -3.0186 -5.1354  0.4791
13276TIP3   OH261242   6.058   2.118  12.629  0.6102 -0.5444  0.5144
13276TIP3    H161243   6.121   2.045  12.625  1.2119 -0.3407  3.6053
13276TIP3    H261244   6.112   2.195  12.643 -0.1926  0.0982  0.1084
13277TIP3   OH261245   0.650   5.066  16.509  0.0595 -0.0439  0.4350
13277TIP3    H161246   0.613   4.997  16.563 -0.9429 -0.4784 -0.7638
13277TIP3    H261247   0.588   5.138  16.515 -0.6416 -0.4914 -0.9560
13278TIP3   OH261248   5.604   1.537   0.561  0.1274  0.2163 -0.0107
13278TIP3    H161249   5.584   1.588   0.483 -1.2329  0.4840  0.4830
13278TIP3    H261250   5.652   1.597   0.618  0.8719  0.1076 -0.5171
13279TIP3   OH261251   3.385   5.429  11.752  0.1164 -0.0111  0.6082
13279TIP3    H161252   3.321   5.375  11.706 -2.4455  1.7636  1.8741
13279TIP3    H261253   3.392   5.390  11.839  1.4201 -0.6324  0.2609
13280TIP3   OH261254   0.170   6.749  13.480  0.3990 -0.2556  0.7838
13280TIP3    H161255   0.181   6.816  13.547  1.7865 -0.4407  0.7628
13280TIP3    H261256   0.159   6.668  13.529 -2.0078  0.0245  0.8285
13281TIP3   OH261257   1.553   3.326  14.715  0.5518  0.7435  0.0158
13281TIP3    H161258   1.462   3.331  14.741  0.1130  0.6956 -1.4102
13281TIP3    H261259   1.571   3.410  14.674  0.7758  0.3065 -0.8064
13282TIP3   OH261260   5.818   0.778   2.092 -0.0838  0.1703  0.0017
13282TIP3    H161261   5.803   0.688   2.062  2.2736 -0.2500 -0.1685
13282TIP3    H261262   5.864   0.820   2.020  1.0308  0.7401  1.0056
13283TIP3   OH261263   4.874   3.514   1.242  0.5833 -0.2280  0.1631
13283TIP3    H161264   4.919   3.594   1.215  1.9437 -1.7584 -2.4877
13283TIP3    H261265   4.876   3.517   1.337  0.0271  3.1523  0.1990
13284TIP3   OH261266   3.638   5.353  11.537 -0.7554  0.1706  0.0788
13284TIP3    H161267   3.630   5.258  11.530 -1.0833  0.1101  1.1265
13284TIP3    H261268   3.578   5.377  11.607 -0.8941  1.1945 -0.3769
13285TIP3   OH261269   5.059   6.560  14.090  0.3477 -0.3691  0.2401
13285TIP3    H161270   5.047   6.617  14.015  1.7983 -0.9091 -0.4476
13285TIP3    H261271   5.149   6.527  14.081  0.0889 -1.5090  1.4638
13286TIP3   OH261272   5.285   3.271  15.229  0.2104  0.1648 -0.0357
13286TIP3    H161273   5.245   3.291  15.144 -1.1931 -1.2783  0.2307
13286TIP3    H261274   5.243   3.332  15.290  1.2146  1.1976 -0.3463
13287TIP3   OH261275   3.884   0.351  13.838  0.0295 -0.3127 -0.0303
13287TIP3    H161276   3.893   0.405  13.759  0.7975  1.4977  1.2113
13287TIP3    H261277   3.973   0.335  13.867 -0.2383 -0.9944  0.4450
13288TIP3   OH261278   4.518   4.212   2.684 -0.2055 -0.4600 -0.3547
13288TIP3    H161279   4.602   4.252   2.704 -0.6716  0.8643 -0.9313
13288TIP3    H261280   4.527   4.121   2.713  1.0931 -0.1040  0.4341
13289TIP3   OH261281   1.388   6.588   3.939 -0.9061  0.0100 -0.1788
13289TIP3    H161282   1.462   6.586   4.000 -1.1218  1.1631  0.1419
13289TIP3    H261283   1.395   6.506   3.891 -0.6018 -0.8339  1.2404
13290TIP3   OH261284   5.935   2.980   5.546 -0.7492  0.3011  0.2239
13290TIP3    H161285   5.917   3.042   5.475  1.1584  1.7574  0.9319
13290TIP3    H261286   5.857   2.985   5.602 -0.7759  1.8270  0.0918
13291TIP3   OH261287   5.467   3.453  14.116  0.3719 -0.0028  0.3501
13291TIP3    H161288   5.430   3.376  14.159  0.2770 -0.3172 -0.2907
13291TIP3    H261289   5.486   3.424  14.027 -0.3976  0.9362 -0.1342
13292TIP3   OH261290   0.347   0.266  10.772  0.0017  0.5048 -0.0140
13292TIP3    H161291   0.346   0.357  10.742  1.1746  0.5853  0.1692
13292TIP3    H261292   0.439   0.246  10.786 -0.3495 -0.1460  1.6459
13293TIP3   OH261293   5.347   1.374  16.192 -0.0198  0.1082 -0.5204
13293TIP3    H161294   5.305   1.344  16.272 -0.3605 -0.0684 -0.7660
13293TIP3    H261295   5.415   1.435  16.223 -0.4793  0.4340 -0.1259
13294TIP3   OH261296   4.785   4.905   1.747 -0.1632 -0.4296  0.0256
13294TIP3    H161297   4.722   4.853   1.698  0.8885 -2.6179  0.8538
13294TIP3    H261298   4.864   4.852   1.749  0.8715  1.0527  1.2514
13295TIP3   OH261299   4.106   5.419  11.994 -0.1190  0.5624  0.7195
13295TIP3    H161300   4.133   5.448  11.906  2.3358 -1.1178  0.7990
13295TIP3    H261301   4.073   5.498  12.036 -1.4215  1.4115 -1.6992
13296TIP3   OH261302   2.466   3.281   4.258 -0.6868  0.4734 -0.2251
13296TIP3    H161303   2.458   3.341   4.183 -0.1284  0.0570 -0.6289
13296TIP3    H261304   2.400   3.214   4.242  0.4601 -0.4667 -1.1720
13297TIP3   OH261305   2.276   3.072  11.226 -0.1226  0.2391 -0.5861
13297TIP3    H161306   2.360   3.034  11.253 -1.0412 -2.4036 -1.1079
13297TIP3    H261307   2.293   3.112  11.141  0.9850  1.4795  0.1752
13298TIP3   OH261308   2.555   6.693  14.104  0.3228  0.4392 -0.1637
13298TIP3    H161309   2.551   6.635  14.180  0.1669  0.4213 -0.1848
13298TIP3    H261310   2.468   6.733  14.100 -0.2214 -0.7848 -1.2829
13299TIP3   OH261311   1.237   2.676   4.984 -0.3125  0.2354 -0.2586
13299TIP3    H161312   1.287   2.617   5.041 -0.3219  2.4170  2.1918
13299TIP3    H261313   1.147   2.670   5.015 -0.3903  1.1661 -0.2557
13300TIP3   OH261314   0.720   1.449  16.552  0.0880  0.4383  0.0682
13300TIP3    H161315   0.650   1.386  16.567  0.6073  0.0530  0.9070
13300TIP3    H261316   0.713   1.471  16.459  0.6294 -1.7524 -0.5276
13301TIP3   OH261317   5.753   3.691   0.826 -0.2342 -0.0352 -0.1181
13301TIP3    H161318   5.670   3.702   0.781  0.4244 -0.3696 -1.4591
13301TIP3    H261319   5.820   3.709   0.760  0.7710 -0.7933  0.6400
13302TIP3   OH261320   4.896   1.275  15.418  0.0070 -0.1957  0.5397
13302TIP3    H161321   4.895   1.248  15.509 -0.3357 -0.3195  0.5011
13302TIP3    H261322   4.974   1.330  15.410 -1.0870  1.5465  1.4004
13303TIP3   OH261323   4.856   0.452   1.211 -0.0768 -0.5127 -0.3426
13303TIP3    H161324   4.857   0.540   1.175 -2.6238 -0.2714 -0.0127
13303TIP3    H261325   4.801   0.402   1.150 -1.6924 -0.9199  1.3613
13304TIP3   OH261326   5.571   2.489   5.353 -0.3345 -0.6953  0.2207
13304TIP3    H161327   5.563   2.483   5.449  3.5073 -2.0641  0.6211
13304TIP3    H261328   5.626   2.566   5.339 -0.5973 -0.7014 -0.8613
13305TIP3   OH261329   0.407   0.761  16.614 -0.0833  0.1400  0.4502
13305TIP3    H161330   0.315   0.779  16.592  0.7855  2.5244 -1.6210
13305TIP3    H261331   0.417   0.796  16.702 -0.7769  1.3587  0.0644
13306TIP3   OH261332   3.993   3.369  11.327  0.2357  0.7287 -0.5192
13306TIP3    H161333   4.067   3.338  11.379 -0.2850  1.6329  0.7871
13306TIP3    H261334   3.930   3.296  11.329  0.1664  0.8081  0.2271
13307TIP3   OH261335   2.031   0.708   4.946 -0.2299 -0.0453 -0.0679
13307TIP3    H161336   2.098   0.696   5.013 -0.4377 -0.2587  0.1071
13307TIP3    H261337   2.063   0.780   4.892  0.5393 -0.7037 -0.4991
13308TIP3   OH261338   4.761   0.715  16.010  0.1355  0.3692  0.5669
13308TIP3    H161339   4.681   0.679  15.970  0.6254  1.2387 -1.3502
13308TIP3    H261340   4.781   0.656  16.082 -1.5859 -0.5397  0.3577
13309TIP3   OH261341   2.442   5.932  12.780  0.1394  0.1488  0.2582
13309TIP3    H161342   2.374   5.887  12.830 -0.2165  0.1983 -0.1811
13309TIP3    H261343   2.523   5.912  12.827  0.3179 -2.6924 -1.0331
13310TIP3   OH261344   2.795   4.468   4.620  0.0880 -0.4324 -0.1493
13310TIP3    H161345   2.705   4.441   4.635 -0.5849  0.0258 -2.7757
13310TIP3    H261346   2.848   4.392   4.643 -0.9592 -0.7476  1.3030
13311TIP3   OH261347   6.385   4.830   0.891  0.0467  0.1840 -0.6716
13311TIP3    H161348   6.461   4.820   0.949 -0.6421  0.8349  0.3850
13311TIP3    H261349   6.417   4.881   0.817  0.6050  0.5905 -0.1593
13312TIP3   OH261350   3.396   1.848  15.290  0.0595 -0.3335 -0.0992
13312TIP3    H161351   3.444   1.899  15.225 -0.9955 -3.2581 -3.5134
13312TIP3    H261352   3.462   1.792  15.331  0.4196 -0.1029 -0.3609
13313TIP3   OH261353   5.810   5.267  13.874 -0.5571  0.5143  0.6345
13313TIP3    H161354   5.852   5.224  13.948  0.3901  1.0219  0.4078
13313TIP3    H261355   5.879   5.322  13.836 -0.5855 -0.8512 -1.5359
13314TIP3   OH261356   1.947   4.308   4.322 -0.2465  0.7436 -0.0827
13314TIP3    H161357   1.879   4.291   4.388  0.1373  1.1209  0.4254
13314TIP3    H261358   1.944   4.232   4.264  1.0803 -0.8381  1.8113
13315TIP3   OH261359   3.582   2.132  11.539 -0.4131 -0.4432  0.2188
13315TIP3    H161360   3.489   2.153  11.539  0.0321  1.7805 -0.0002
13315TIP3    H261361   3.625   2.215  11.556  1.5409 -1.4723  0.5501
13316TIP3   OH261362   5.133   3.037   6.726  0.0209 -0.3161 -0.1649
13316TIP3    H161363   5.213   2.997   6.691 -0.8548 -1.4181 -0.9365
13316TIP3    H261364   5.112   3.107   6.664 -1.3105 -2.0163 -1.7410
13317TIP3   OH261365   5.586   3.645  14.756 -0.2154  0.3278  1.0373
13317TIP3    H161366   5.542   3.728  14.774  0.1198  1.1719 -1.6024
13317TIP3    H261367   5.536   3.606  14.684  1.5115 -0.1657  0.0337
13318TIP3   OH261368   1.430   5.764  10.634  0.2072  0.3555 -0.2115
13318TIP3    H161369   1.451   5.850  10.673  0.7217  0.4735 -0.7423
13318TIP3    H261370   1.346   5.777  10.592  1.0705  1.1066 -1.7823
13319TIP3   OH261371   3.971   4.020  14.332  0.1066 -0.2615 -0.0133
13319TIP3    H161372   4.025   3.974  14.397  0.4323 -0.0100 -0.1029
13319TIP3    H261373   4.033   4.077  14.286  0.0782 -1.1739 -1.2375
13320TIP3   OH261374   1.649   4.971  12.842  0.0224 -0.5843 -0.0706
13320TIP3    H161375   1.623   4.884  12.871 -0.5561 -0.3480  0.1310
13320TIP3    H261376   1.718   4.997  12.903 -1.6616  0.1927  1.6032
13321TIP3   OH261377   4.848   4.800   2.674 -0.8819 -0.2594 -0.1326
13321TIP3    H161378   4.884   4.754   2.598  0.6220 -0.3610  0.6113
13321TIP3    H261379   4.925   4.824   2.726 -1.8170  0.7272  0.8399
13322TIP3   OH261380   4.114   3.407   3.578 -0.0097 -0.5044 -0.1156
13322TIP3    H161381   4.072   3.336   3.626  0.1331 -0.8510 -0.5021
13322TIP3    H261382   4.154   3.461   3.646  0.0116 -0.8735  0.1689
13323TIP3   OH261383   5.970   2.322   1.370 -0.2741  0.0240 -0.3744
13323TIP3    H161384   5.900   2.352   1.428  1.6046  1.7659  1.1733
13323TIP3    H261385   5.995   2.401   1.321  2.3948  0.2327  1.1591
13324TIP3   OH261386   0.734   4.848   3.629  0.5020 -0.0106  0.7858
13324TIP3    H161387   0.792   4.820   3.558  1.5053  1.7838  0.8391
13324TIP3    H261388   0.650   4.808   3.609  0.3554  1.5956 -2.2014
13325TIP3   OH261389   4.998   1.809  16.081 -0.5142 -0.1030  0.4415
13325TIP3    H161390   5.027   1.773  15.998  0.6475 -1.1689  1.2773
13325TIP3    H261391   5.040   1.895  16.086 -0.3009 -0.1866  0.0890
13326TIP3   OH261392   3.392   2.858  12.419  0.1604  0.1522  0.0927
13326TIP3    H161393   3.368   2.920  12.350 -1.2767  0.8312  1.1583
13326TIP3    H261394   3.396   2.911  12.499 -1.0030 -1.0856  1.0139
13327TIP3   OH261395   4.168   3.412  14.702 -0.0341  0.0280  0.3575
13327TIP3    H161396   4.085   3.457  14.711 -0.4208 -0.8298  1.3151
13327TIP3    H261397   4.206   3.413  14.790  0.5979 -0.2807  0.0991
13328TIP3   OH261398   0.059   6.282  15.207 -0.4496 -0.0504 -0.4316
13328TIP3    H161399   0.037   6.262  15.298  3.6376  0.1018  0.8105
13328TIP3    H261400   0.089   6.198  15.171 -1.8730 -0.0697 -1.6713
13329TIP3   OH261401   3.895   4.126   0.057  0.2563 -0.5013 -0.4603
13329TIP3    H161402   3.951   4.139  -0.020  1.4607  1.9664  0.6980
13329TIP3    H261403   3.950   4.153   0.131 -2.2174  1.4111  0.8341
13330TIP3   OH261404   0.233   0.158   2.747  0.1038  0.1979  0.0956
13330TIP3    H161405   0.317   0.197   2.723  0.5849 -1.2534 -0.6721
13330TIP3    H261406   0.168   0.213   2.703  0.6972  0.7111 -0.1684
13331TIP3   OH261407   3.658   4.108   1.656  0.8652 -0.6205  0.2002
13331TIP3    H161408   3.566   4.095   1.681  1.0170  0.8445  1.7059
13331TIP3    H261409   3.697   4.021   1.663  0.0656 -0.8906  1.7160
13332TIP3   OH261410   3.392   3.884  12.644 -0.3918  0.3067  0.2000
13332TIP3    H161411   3.459   3.852  12.704  1.9456  0.9193 -1.9186
13332TIP3    H261412   3.327   3.813  12.642  1.2952 -1.3439  0.6622
13333TIP3   OH261413   4.588   6.690   4.690  0.4978  0.0159 -0.0368
13333TIP3    H161414   4.659   6.747   4.718  1.5621  0.2883 -2.8899
13333TIP3    H261415   4.529   6.747   4.641 -1.1802 -0.4294  1.3460
13334TIP3   OH261416   5.361   2.429   2.807  0.1049 -0.8616  0.2485
13334TIP3    H161417   5.351   2.440   2.713  0.6075 -0.4747  0.2381
13334TIP3    H261418   5.284   2.378   2.833 -1.4985  1.2943  0.0382
13335TIP3   OH261419   5.262   1.200  14.501  0.1506  0.2829 -0.0628
13335TIP3    H161420   5.353   1.209  14.527  0.4033  0.5788 -1.0244
13335TIP3    H261421   5.231   1.121  14.546  0.5137  0.8606  1.2549
13336TIP3   OH261422   0.020   5.187   0.192 -0.1041 -0.0339  1.0627
13336TIP3    H161423   0.063   5.215   0.272  0.1932 -0.0143  0.8966
13336TIP3    H261424  -0.074   5.194   0.211 -0.1067  2.7367  0.4698
13337TIP3   OH261425   2.580   1.507   2.561 -0.0684 -0.0081  0.2208
13337TIP3    H161426   2.582   1.432   2.620 -0.4885 -1.0543 -1.0556
13337TIP3    H261427   2.569   1.469   2.474 -0.6203  1.5511 -0.4215
13338TIP3   OH261428   6.179   2.094  17.028  0.5274 -0.1918 -0.1405
13338TIP3    H161429   6.224   2.036  16.967  0.8012 -0.4391  0.2880
13338TIP3    H261430   6.244   2.112  17.096  0.2536  0.1426  0.0334
13339TIP3   OH261431   5.939   3.743   4.972  0.2631  0.1268  0.2415
13339TIP3    H161432   5.887   3.740   4.892 -0.4423 -1.1887  0.7242
13339TIP3    H261433   5.878   3.719   5.042  1.0801  0.3747  1.0599
13340TIP3   OH261434   2.364   2.589  14.550 -0.3486  0.0685 -0.4915
13340TIP3    H161435   2.350   2.606  14.644  0.2277  1.5114 -0.6336
13340TIP3    H261436   2.304   2.650  14.506  0.3993  0.4188 -1.0514
13341TIP3   OH261437   4.627   1.214  15.383 -0.1105 -0.3551  0.0410
13341TIP3    H161438   4.708   1.263  15.372 -1.0107  1.1720 -0.1178
13341TIP3    H261439   4.646   1.149  15.450  0.7312  1.2154  1.4053
13342TIP3   OH261440   5.402   4.318  14.096  0.3980  0.0638  0.2874
13342TIP3    H161441   5.401   4.224  14.079 -0.4377  0.0650  0.2785
13342TIP3    H261442   5.466   4.354  14.035  0.4340 -0.4460  0.0250
13343TIP3   OH261443   6.114   4.281  11.362 -0.0639 -0.2956  0.3759
13343TIP3    H161444   6.027   4.308  11.392 -0.5276  0.5309 -1.5586
13343TIP3    H261445   6.125   4.192  11.397 -1.1215  0.0797  1.7225
13344TIP3   OH261446   6.240   5.830   0.021 -0.4160 -0.2776  0.4787
13344TIP3    H161447   6.304   5.764  -0.008  0.6633  0.0381  2.0285
13344TIP3    H261448   6.155   5.790   0.004  0.2090 -1.6233  0.4015
13345TIP3   OH261449   4.498   3.254   0.244  0.0613  0.5146 -0.1285
13345TIP3    H161450   4.482   3.171   0.199  1.7912 -0.1318  0.3645
13345TIP3    H261451   4.475   3.236   0.335  1.0834  0.3380  0.1079
13346TIP3   OH261452   0.673   1.083  15.127 -0.2621 -0.4867 -0.7857
13346TIP3    H161453   0.678   1.041  15.213  1.7236  0.8420 -0.1988
13346TIP3    H261454   0.746   1.045  15.078  0.8361  1.3459 -0.6392
13347TIP3   OH261455   2.431   4.662  14.743  0.4841  0.9729 -0.1772
13347TIP3    H161456   2.514   4.618  14.724  1.0958  2.0474 -0.0487
13347TIP3    H261457   2.437   4.688  14.834  0.3656  1.8080 -0.3957
13348TIP3   OH261458   1.466   1.054   3.872 -1.1612 -0.4890  0.2429
13348TIP3    H161459   1.483   1.088   3.784  1.3747 -1.6697  0.1752
13348TIP3    H261460   1.463   0.959   3.861 -2.6455 -0.5793  1.1988
13349TIP3   OH261461   4.700   5.728  15.913  0.4655  0.0711 -0.0904
13349TIP3    H161462   4.629   5.771  15.961 -0.3144 -1.0075 -0.2496
13349TIP3    H261463   4.774   5.729  15.974  0.8889  2.7371 -0.5317
13350TIP3   OH261464   1.891   4.621   2.676  0.2293  0.1372  0.2348
13350TIP3    H161465   1.868   4.545   2.623 -1.9443  1.5038 -0.8975
13350TIP3    H261466   1.893   4.587   2.766 -3.0710 -0.8956  0.0633
13351TIP3   OH261467   4.751   0.150   4.668  0.2709 -0.2498  0.2843
13351TIP3    H161468   4.713   0.186   4.749  1.0886  0.9738  0.1520
13351TIP3    H261469   4.700   0.192   4.598 -0.4044 -1.2709  0.1463
13352TIP3   OH261470   0.745   5.902  13.845 -0.5166 -0.0423  0.6276
13352TIP3    H161471   0.702   5.878  13.763  0.4531  1.5922 -0.4295
13352TIP3    H261472   0.827   5.943  13.817  0.4833 -0.6674  2.4835
13353TIP3   OH261473   3.897   6.066  14.217  0.4142  0.0668 -0.9474
13353TIP3    H161474   3.932   6.028  14.297 -0.0123 -1.0019 -1.2525
13353TIP3    H261475   3.954   6.141  14.198 -0.8444  1.8477  1.6325
13354TIP3   OH261476   3.829   6.162   3.066 -0.1424  0.0777 -0.7265
13354TIP3    H161477   3.877   6.082   3.088 -2.1961 -1.5527 -1.7516
13354TIP3    H261478   3.765   6.173   3.136  0.3250  1.0146 -0.4340
13355TIP3   OH261479   5.809   2.383  12.591  0.5830  0.7458  0.4401
13355TIP3    H161480   5.850   2.336  12.663  1.7567 -0.5388 -1.0100
13355TIP3    H261481   5.879   2.397  12.528 -0.2352  2.5575 -0.1378
13356TIP3   OH261482   6.029   6.703  16.360 -0.1452 -0.1722 -0.3811
13356TIP3    H161483   6.056   6.625  16.312  0.6178 -0.1584  0.0152
13356TIP3    H261484   5.995   6.762  16.293  0.7352 -0.2195 -0.8886
13357TIP3   OH261485   3.418   0.867  11.505 -0.3790  0.2488 -0.0869
13357TIP3    H161486   3.433   0.959  11.526  0.6876 -0.1059  0.8266
13357TIP3    H261487   3.338   0.867  11.452 -0.8008  1.6269  0.4944
13358TIP3   OH261488   2.725   0.787   6.062  0.5316 -0.3805  0.3987
13358TIP3    H161489   2.812   0.810   6.092 -0.2645 -1.0399  3.5749
13358TIP3    H261490   2.667   0.848   6.107 -0.7682 -1.2837  0.0063
13359TIP3   OH261491   0.149   0.763  16.618 -0.2146  0.2371 -0.5911
13359TIP3    H161492   0.186   0.778  16.705 -1.3571  3.2918 -0.5163
13359TIP3    H261493   0.064   0.722  16.634  0.7012 -1.7484 -0.4960
13360TIP3   OH261494   1.518   3.568   5.618  0.0335  0.5739  0.2272
13360TIP3    H161495   1.578   3.501   5.584 -0.9681 -0.4744  0.4570
13360TIP3    H261496   1.541   3.576   5.711 -0.4907 -0.1971  0.4345
13361TIP3   OH261497   0.444   4.644  15.494  1.1576 -0.2711  0.3753
13361TIP3    H161498   0.385   4.650  15.420 -1.0674  0.6817  2.1172
13361TIP3    H261499   0.480   4.733  15.504  0.9044 -0.2178  0.8463
13362TIP3   OH261500   6.662   2.520  10.840 -0.7355 -0.0727  0.6057
13362TIP3    H161501   6.632   2.488  10.926  0.1941 -0.1211  0.9143
13362TIP3    H261502   6.756   2.507  10.841 -0.7308 -0.1871 -0.4847
13363TIP3   OH261503   3.692   6.416   4.245 -0.1647  0.1109 -0.4368
13363TIP3    H161504   3.637   6.472   4.299  0.7696  1.2755 -0.6594
13363TIP3    H261505   3.680   6.448   4.156 -3.5921 -3.2902 -1.4795
13364TIP3   OH261506   4.325   1.885   3.943 -0.1909 -0.1480 -0.9116
13364TIP3    H161507   4.269   1.920   3.874  0.3169  1.1192 -0.7020
13364TIP3    H261508   4.401   1.943   3.945  0.9671 -1.6052 -0.9237
13365TIP3   OH261509   1.669   4.697  12.803 -0.9000 -0.4219  0.0277
13365TIP3    H161510   1.656   4.695  12.709 -1.6409 -1.0057  0.1305
13365TIP3    H261511   1.764   4.701  12.814 -0.7656 -1.1339 -0.7403
13366TIP3   OH261512   4.148   6.351  11.250 -0.0330 -0.2524 -0.3546
13366TIP3    H161513   4.108   6.413  11.188  2.4366  1.1528 -0.6476
13366TIP3    H261514   4.229   6.324  11.208  1.2306 -0.0288  1.8187
13367TIP3   OH261515   0.506   1.155   0.494 -0.4551 -0.0364  0.1566
13367TIP3    H161516   0.596   1.181   0.478  0.3029 -1.1640  2.2074
13367TIP3    H261517   0.494   1.074   0.445 -0.7520  0.6946 -1.0209
13368TIP3   OH261518   4.768   5.979  14.100 -0.2292  0.0956  0.0825
13368TIP3    H161519   4.693   5.931  14.135  0.2465 -0.8781 -0.1883
13368TIP3    H261520   4.830   5.983  14.173 -0.4540  0.7142  0.2433
13369TIP3   OH261521   4.091   3.066   3.089  0.8726 -0.1932 -0.1976
13369TIP3    H161522   4.080   3.108   3.175  0.9385 -0.1672 -0.2013
13369TIP3    H261523   4.142   2.987   3.107 -1.0234 -1.4126  0.1167
13370TIP3   OH261524   5.158   1.523   2.549 -0.4260 -0.7329 -0.2300
13370TIP3    H161525   5.117   1.606   2.528  2.0939  1.2013  1.7851
13370TIP3    H261526   5.165   1.523   2.644 -0.1183 -3.1636 -0.1962
13371TIP3   OH261527   6.093   0.182  13.858 -0.6777 -0.3218  0.0149
13371TIP3    H161528   6.040   0.176  13.779 -0.9866  0.4162  0.1499
13371TIP3    H261529   6.177   0.218  13.828 -0.0584 -1.9215 -0.2715
13372TIP3   OH261530   6.342   6.296   0.328 -0.1263  0.0374  0.0999
13372TIP3    H161531   6.257   6.253   0.317 -0.4441  1.0838 -2.1915
13372TIP3    H261532   6.401   6.248   0.271  0.3542  0.5064  0.1898
13373TIP3   OH261533   2.568   4.445  12.614  0.2073 -0.6823 -0.0888
13373TIP3    H161534   2.542   4.458  12.523  0.1058  1.1955  0.1718
13373TIP3    H261535   2.663   4.458  12.614  0.0517  0.5966  0.2455
13374TIP3   OH261536   4.835   4.438  13.614  0.5045 -0.3780 -0.0564
13374TIP3    H161537   4.923   4.446  13.576  0.4176  2.2526  0.0885
13374TIP3    H261538   4.846   4.379  13.688  2.4018  0.6664  0.5671
13375TIP3   OH261539   2.676   6.085  10.974  0.1764  0.4990  0.7741
13375TIP3    H161540   2.626   6.143  10.917  0.3766 -0.6121 -0.5925
13375TIP3    H261541   2.637   5.999  10.961  0.7431  0.0827  1.7300
13376TIP3   OH261542   5.505   5.979  12.931  0.4090  0.3067  0.1041
13376TIP3    H161543   5.523   6.073  12.931  0.8614  0.2218 -0.3336
13376TIP3    H261544   5.527   5.950  13.019  2.0959  0.2693 -0.2949
13377TIP3   OH261545   5.973   2.160  12.322 -0.0385  0.0598  0.2910
13377TIP3    H161546   6.010   2.089  12.375  0.1163 -0.7050 -0.8119
13377TIP3    H261547   5.886   2.128  12.298 -0.6577  0.9921  1.1887
13378TIP3   OH261548   2.793   0.342  11.039  0.6122  0.7051 -0.1149
13378TIP3    H161549   2.772   0.414  11.099 -1.7689  0.6654 -0.8107
13378TIP3    H261550   2.820   0.271  11.097 -2.1752  0.4777  1.0505
13379TIP3   OH261551   1.184   4.816  16.935 -0.5574 -0.2158  0.0789
13379TIP3    H161552   1.115   4.751  16.920 -0.2814 -0.3693 -0.5415
13379TIP3    H261553   1.188   4.865  16.853 -1.1516  0.9646  0.7210
13380TIP3   OH261554   6.411   3.533  13.668  0.3354  0.2215  0.3901
13380TIP3    H161555   6.393   3.501  13.757 -0.9469  0.8626  0.3871
13380TIP3    H261556   6.432   3.625  13.680  0.6114  0.1998  0.0728
13381TIP3   OH261557   0.711   6.376  13.986  0.6117 -0.0352 -0.1138
13381TIP3    H161558   0.624   6.365  13.947  1.2641  0.2406 -1.7555
13381TIP3    H261559   0.728   6.293  14.031 -0.8397  0.2339  1.0032
13382TIP3   OH261560   1.058   0.057   2.437 -0.1249  0.3367 -0.1967
13382TIP3    H161561   0.974   0.043   2.393  0.0540  0.1581 -0.4809
13382TIP3    H261562   1.036   0.109   2.514 -0.7248 -1.0161  0.5685
13383TIP3   OH261563   0.105   5.950   1.652  0.0311  0.1039  0.1308
13383TIP3    H161564   0.189   5.910   1.673 -0.3899 -1.2850 -0.7078
13383TIP3    H261565   0.040   5.894   1.695 -0.4612  1.8212  1.7652
13384TIP3   OH261566   5.563   5.855   2.646 -0.0421 -0.2299 -0.5652
13384TIP3    H161567   5.550   5.792   2.717  1.1369 -1.1964 -1.1857
13384TIP3    H261568   5.624   5.920   2.682  0.7261 -0.8377 -0.7564
13385TIP3   OH261569   1.628   6.573   4.352 -0.2449 -0.1744 -0.2857
13385TIP3    H161570   1.664   6.485   4.337 -1.5539 -0.7254 -0.3196
13385TIP3    H261571   1.535   6.558   4.368 -0.6218  1.2720 -1.0070
13386TIP3   OH261572   4.767   6.684  11.424  0.0332 -0.6105  0.1777
13386TIP3    H161573   4.761   6.635  11.506  0.9214 -2.3977 -0.7795
13386TIP3    H261574   4.845   6.650  11.381 -0.3885  0.3119 -1.4045
13387TIP3   OH261575   1.607   2.223   5.000 -0.0258 -0.2894  0.3249
13387TIP3    H161576   1.628   2.222   4.906  2.3689  0.1852  0.7775
13387TIP3    H261577   1.653   2.300   5.033 -2.6041  0.8082  1.5731
13388TIP3   OH261578   1.625   1.433   4.237 -0.6844  0.0252  0.4229
13388TIP3    H161579   1.585   1.508   4.193  0.8876  0.7858  0.2520
13388TIP3    H261580   1.601   1.444   4.329  1.2073  1.9114  0.7542
13389TIP3   OH261581   6.349   0.954   5.784 -0.1500  0.0916 -0.2105
13389TIP3    H161582   6.438   0.923   5.765  1.3393  3.9100 -0.2866
13389TIP3    H261583   6.345   0.956   5.880 -0.6770 -1.1940 -0.1778
13390TIP3   OH261584   2.689   1.651  15.052  0.3540  0.2398  0.1408
13390TIP3    H161585   2.752   1.633  14.983  0.3552 -0.2129  0.2608
13390TIP3    H261586   2.722   1.731  15.094  0.3988  0.4643 -0.3255
13391TIP3   OH261587   4.689   5.038   5.350  0.3499  0.5025  0.2338
13391TIP3    H161588   4.660   5.063   5.437  1.0686  1.3675  0.2370
13391TIP3    H261589   4.784   5.049   5.352  0.4112  0.1797 -0.5434
13392TIP3   OH261590   0.734   5.248   0.945 -0.3538 -0.1462 -0.0210
13392TIP3    H161591   0.665   5.315   0.955 -2.3421 -1.8574 -1.3363
13392TIP3    H261592   0.701   5.191   0.875  2.4305 -1.0957 -0.6666
13393TIP3   OH261593   5.793   6.663  14.170  0.0653 -0.0292 -0.3155
13393TIP3    H161594   5.808   6.747  14.126  1.7477  0.4385  1.0245
13393TIP3    H261595   5.854   6.603  14.129 -0.6306 -0.4363 -0.7783
13394TIP3   OH261596   1.045   5.147  12.525  0.0177  0.2600  0.2377
13394TIP3    H161597   1.140   5.146  12.525  0.0263  0.6090  0.1562
13394TIP3    H261598   1.023   5.240  12.519 -0.3052  0.1097 -2.0706
13395TIP3   OH261599   6.527   3.442   1.095  0.4988 -0.2941 -0.2824
13395TIP3    H161600   6.452   3.497   1.117  1.8106  0.8036  1.7063
13395TIP3    H261601   6.497   3.353   1.112 -0.1560  0.1812  1.1471
13396TIP3   OH261602   6.029   2.718   2.395  0.0112 -0.5204  0.2055
13396TIP3    H161603   5.944   2.686   2.367 -0.6232  0.0945  1.3463
13396TIP3    H261604   6.058   2.775   2.324 -0.0315 -1.5515 -0.6597
13397TIP3   OH261605   5.344   6.677  12.240  0.0190 -0.0715 -0.0927
13397TIP3    H161606   5.333   6.741  12.170  1.8162  0.9958  0.5413
13397TIP3    H261607   5.256   6.666  12.277 -0.9067 -0.3941 -2.2214
13398TIP3   OH261608   3.534   4.907  14.713  0.0078 -0.0433 -0.1651
13398TIP3    H161609   3.468   4.849  14.750 -0.5281 -0.3498 -1.5562
13398TIP3    H261610   3.492   4.946  14.636  0.7512  1.3288  0.0794
13399TIP3   OH261611   5.256   5.309   6.365 -0.1940 -0.5286 -0.0682
13399TIP3    H161612   5.285   5.259   6.289 -1.3155 -0.8145 -0.3365
13399TIP3    H261613   5.310   5.388   6.364 -1.3778  0.3664 -2.2579
13400TIP3   OH261614   6.177   3.621  11.770 -0.4191  0.1107 -0.1370
13400TIP3    H161615   6.156   3.544  11.717 -0.2197  1.0241 -1.6037
13400TIP3    H261616   6.098   3.676  11.765  0.2944  1.0942 -1.1560
13401TIP3   OH261617   4.874   1.465   6.510 -0.4390  0.0075  0.2919
13401TIP3    H161618   4.949   1.428   6.557  0.4526 -0.6172 -1.5453
13401TIP3    H261619   4.906   1.547   6.474 -1.2565  0.7062  1.1189
13402TIP3   OH261620   3.240   4.637  15.448 -0.0243  0.3342  0.3807
13402TIP3    H161621   3.218   4.598  15.533 -0.2835  0.3120  0.3042
13402TIP3    H261622   3.335   4.629  15.442  0.0711  0.9730  0.9746
13403TIP3   OH261623   0.578   4.267  13.489 -0.0689  0.2606  0.0706
13403TIP3    H161624   0.529   4.210  13.429 -0.1879 -0.8806  1.2049
13403TIP3    H261625   0.511   4.322  13.529  0.0022  0.9775 -0.7676
13404TIP3   OH261626   1.844   2.842  15.322  0.5252  0.7258  0.0249
13404TIP3    H161627   1.752   2.853  15.295  0.7221  1.2576 -0.4521
13404TIP3    H261628   1.876   2.931  15.333  0.8370  0.5334  0.7345
13405TIP3   OH261629   4.092   1.385   5.951  0.1457 -0.4171 -0.2036
13405TIP3    H161630   4.038   1.396   5.873 -1.3307  1.3662  0.9615
13405TIP3    H261631   4.091   1.472   5.992  1.6414 -1.0680  1.3110
13406TIP3   OH261632   1.209   5.441  16.381  0.3308  0.2123 -0.1733
13406TIP3    H161633   1.204   5.454  16.476 -0.3758  0.4509 -0.2354
13406TIP3    H261634   1.145   5.372  16.363 -0.6273  1.1855 -0.6476
13407TIP3   OH261635   6.564   6.019   3.039  0.2273  0.0042 -0.3789
13407TIP3    H161636   6.562   5.994   2.946 -0.1796  2.1138 -1.0055
13407TIP3    H261637   6.472   6.034   3.061  0.3144 -0.5599  0.4115
13408TIP3   OH261638   2.229   4.655  13.719 -0.6217  0.1686 -0.3888
13408TIP3    H161639   2.138   4.631  13.739 -0.0040 -2.7684 -0.6374
13408TIP3    H261640   2.271   4.663  13.805 -0.7025 -0.3697 -0.2952
13409TIP3   OH261641   1.937   4.618  12.760 -0.2294 -0.6324 -0.0923
13409TIP3    H161642   1.995   4.659  12.824 -0.5747  0.4793 -0.4670
13409TIP3    H261643   1.992   4.601  12.684 -0.2458 -0.1589 -0.2127
13410TIP3   OH261644   5.997   4.069  10.967 -0.2831 -0.4550  0.6404
13410TIP3    H161645   5.994   3.982  10.927 -0.0049 -0.2701  0.2129
13410TIP3    H261646   6.034   4.126  10.899 -0.5567  0.0175  0.8806
13411TIP3   OH261647   2.154   5.078  17.104  0.3235  0.0430 -0.2238
13411TIP3    H161648   2.157   4.985  17.126  1.4338  0.2666  0.6060
13411TIP3    H261649   2.074   5.087  17.052 -1.0146 -0.9735  1.5540
13412TIP3   OH261650   6.439   0.814   6.997  0.5295  0.1042 -0.8829
13412TIP3    H161651   6.407   0.904   7.007 -1.5148 -0.7131  0.8016
13412TIP3    H261652   6.360   0.761   6.990  1.4437 -1.9023  1.9066
13413TIP3   OH261653   2.236   4.371  15.969 -0.0751 -0.0022  0.3889
13413TIP3    H161654   2.281   4.288  15.952  0.3327  0.5629 -1.5753
13413TIP3    H261655   2.296   4.438  15.937 -1.0420  0.9537  0.5241
13414TIP3   OH261656   6.254   0.757  15.664 -0.4015 -0.1511 -0.3839
13414TIP3    H161657   6.254   0.820  15.593  2.5891 -0.6529 -0.9809
13414TIP3    H261658   6.318   0.791  15.727 -0.7325 -1.2385  0.5834
13415TIP3   OH261659   1.793   0.564  16.231  0.0451  0.5461  0.0473
13415TIP3    H161660   1.845   0.644  16.222 -0.8595  1.1524 -0.0133
13415TIP3    H261661   1.719   0.590  16.287 -1.3936  0.3363 -1.6689
13416TIP3   OH261662   4.959   1.133   2.582 -1.2982 -0.1402 -0.3613
13416TIP3    H161663   4.997   1.176   2.505  0.0219 -1.0277 -0.2267
13416TIP3    H261664   4.908   1.202   2.624  1.3073  1.5699  0.2441
13417TIP3   OH261665   0.070   2.088   1.418  0.1725 -0.0054  0.1262
13417TIP3    H161666   0.036   2.093   1.507  1.3020  1.8841  0.5265
13417TIP3    H261667   0.150   2.037   1.426 -0.1677 -0.5543  0.0346
13418TIP3   OH261668   1.688   1.521   5.948  0.4086  0.2857  0.0476
13418TIP3    H161669   1.740   1.576   6.007  0.2791 -2.4320  3.0029
13418TIP3    H261670   1.598   1.533   5.979  0.3427 -1.1963  0.4994
13419TIP3   OH261671   4.797   5.078  12.723  0.3447 -0.3696  0.1599
13419TIP3    H161672   4.743   5.066  12.645  0.0332  0.9189  0.1407
13419TIP3    H261673   4.735   5.072  12.796 -0.0456  1.8387  0.1061
13420TIP3   OH261674   0.531   1.694  16.579 -0.0975 -0.1977 -0.0253
13420TIP3    H161675   0.483   1.776  16.590  0.9048  0.2973  0.7844
13420TIP3    H261676   0.514   1.668  16.488 -1.1066  0.4574 -0.0346
13421TIP3   OH261677   1.614   3.791  17.259  0.0474 -0.1571 -0.4418
13421TIP3    H161678   1.554   3.756  17.324  0.2078 -0.9165 -0.6953
13421TIP3    H261679   1.561   3.804  17.180  0.0523 -0.1335 -0.4401
13422TIP3   OH261680   3.236   0.126  15.636  0.1487  0.9845 -0.1369
13422TIP3    H161681   3.167   0.134  15.569 -2.0430  1.0890  2.0153
13422TIP3    H261682   3.282   0.210  15.632  0.0204  1.0162 -1.4350
13423TIP3   OH261683   6.683   6.395   1.058 -0.2198  0.4297 -0.6966
13423TIP3    H161684   6.666   6.489   1.066 -0.8581  0.2701  0.0354
13423TIP3    H261685   6.611   6.354   1.107  1.3835 -0.3606  1.1431
13424TIP3   OH261686   3.619   6.218  14.371  0.0932 -0.0934 -0.2320
13424TIP3    H161687   3.533   6.212  14.328  0.0590  2.6391 -0.6893
13424TIP3    H261688   3.647   6.127  14.380 -0.9739 -0.9541 -3.9114
13425TIP3   OH261689   4.194   0.558  13.934  0.4961  0.6752  0.0237
13425TIP3    H161690   4.101   0.580  13.943  0.2968  0.0551 -0.4981
13425TIP3    H261691   4.211   0.563  13.840  0.3768 -1.6227 -0.1686
13426TIP3   OH261692   5.301   6.185  12.377  0.6270 -0.0590  0.3172
13426TIP3    H161693   5.323   6.278  12.387 -0.8208  0.2309  1.1291
13426TIP3    H261694   5.385   6.142  12.359  1.2575  1.4623 -0.5872
13427TIP3   OH261695   2.077   5.034  14.992  0.3067 -0.1766  0.2484
13427TIP3    H161696   1.999   5.029  15.047  1.1530 -0.8826  1.4251
13427TIP3    H261697   2.051   4.994  14.909 -0.7945  0.3147  0.3361
13428TIP3   OH261698   1.918   1.109   0.676  0.1037  0.5538 -0.4565
13428TIP3    H161699   1.881   1.055   0.606 -2.3138 -1.0039  1.8467
13428TIP3    H261700   1.860   1.185   0.681  1.2860  1.5352 -1.2185
13429TIP3   OH261701   5.134   2.571  13.170 -0.0172 -0.2293 -0.4080
13429TIP3    H161702   5.065   2.575  13.103  0.1879 -0.9398 -0.6752
13429TIP3    H261703   5.088   2.547  13.250 -0.2982  0.8564 -0.2334
13430TIP3   OH261704   6.081   3.149   2.640 -0.1021 -0.4421 -0.1383
13430TIP3    H161705   6.165   3.192   2.655 -0.9081  1.2699 -0.2213
13430TIP3    H261706   6.082   3.126   2.547  1.1246 -2.4621  0.3289
13431TIP3   OH261707   0.144   3.509  11.015 -0.7023  0.1905 -0.3512
13431TIP3    H161708   0.185   3.423  11.017  0.2627  0.5714 -1.9245
13431TIP3    H261709   0.086   3.510  11.090  0.4283 -1.2636  0.5945
13432TIP3   OH261710   1.949   0.373   5.604 -1.0330  0.3921  0.3954
13432TIP3    H161711   1.864   0.364   5.562 -0.2409 -0.4888 -1.1207
13432TIP3    H261712   2.005   0.412   5.537 -0.2503  1.0282  1.3913
13433TIP3   OH261713   5.372   0.659  12.323 -0.1429 -0.2630  0.5299
13433TIP3    H161714   5.305   0.610  12.276  0.2560 -0.8490  0.5669
13433TIP3    H261715   5.334   0.675  12.410  0.3050 -1.8226  1.0385
13434TIP3   OH261716   5.006   5.081   1.931  0.1537 -0.3481  0.1375
13434TIP3    H161717   5.041   4.993   1.915 -0.8358 -0.6774 -0.2572
13434TIP3    H261718   4.990   5.116   1.843  1.3645  0.5796  0.2595
13435TIP3   OH261719   5.046   1.187   5.712  0.8925  1.0146 -0.0799
13435TIP3    H161720   5.045   1.103   5.667  0.0579  0.9818 -0.0305
13435TIP3    H261721   5.010   1.168   5.798  0.4924  1.4514 -0.1432
13436TIP3   OH261722   6.448   0.988   2.622  0.0421 -0.0220 -0.3818
13436TIP3    H161723   6.523   1.002   2.679 -0.0676 -0.4878 -0.1212
13436TIP3    H261724   6.378   0.961   2.681  0.1027 -1.1705 -0.8061
13437TIP3   OH261725   4.789   2.407  16.998 -0.7429  0.0621 -0.1246
13437TIP3    H161726   4.775   2.393  16.904  0.4260 -0.4278 -0.2417
13437TIP3    H261727   4.723   2.472  17.022 -2.3584 -1.2375 -0.8602
13438TIP3   OH261728   3.343   2.302   1.810 -0.6502  0.3468  0.3482
13438TIP3    H161729   3.296   2.221   1.792 -1.6603  1.2296 -1.2413
13438TIP3    H261730   3.422   2.296   1.757  0.6509 -0.7259  2.3012
13439TIP3   OH261731   4.291   1.770   2.598 -0.0761  0.1681  0.0329
13439TIP3    H161732   4.277   1.702   2.531 -0.4260  0.6988 -0.4411
13439TIP3    H261733   4.371   1.744   2.642 -0.3295 -0.6832  0.0073
13440TIP3   OH261734   3.295   5.689  12.430  0.0298 -0.3294  0.4791
13440TIP3    H161735   3.274   5.730  12.346  0.2442  0.2083  0.6827
13440TIP3    H261736   3.237   5.732  12.493  0.5898  0.0091  0.7742
13441TIP3   OH261737   6.339   5.027   2.221 -0.3286  0.4753  0.2424
13441TIP3    H161738   6.388   5.098   2.180  0.6916  0.0500  0.7007
13441TIP3    H261739   6.277   4.998   2.154 -0.2503  1.3037 -0.1961
13442TIP3   OH261740   0.771   3.084   2.259 -0.7924  0.1234  0.2451
13442TIP3    H161741   0.727   3.130   2.187 -0.6314 -0.0729  0.0190
13442TIP3    H261742   0.759   2.991   2.239 -0.9337  0.0652  0.5877
13443TIP3   OH261743   1.021   4.406  14.434  0.4883  0.0975 -0.4046
13443TIP3    H161744   0.951   4.460  14.470  0.0076 -0.0778 -1.0743
13443TIP3    H261745   0.992   4.384  14.346 -0.0787 -2.5735  0.3555
13444TIP3   OH261746   5.788   4.233   4.283  0.4209 -0.1982  0.0250
13444TIP3    H161747   5.830   4.278   4.209  1.7629  3.1659  2.5392
13444TIP3    H261748   5.855   4.174   4.317  1.0098  0.6687  0.4164
13445TIP3   OH261749   1.854   2.246   4.500 -0.1117  0.4918 -0.3733
13445TIP3    H161750   1.854   2.313   4.569 -0.9739  0.6867 -0.5466
13445TIP3    H261751   1.916   2.180   4.530 -1.3966 -0.0668  1.2232
13446TIP3   OH261752   2.893   2.081  13.487  0.0372  0.1078  0.0725
13446TIP3    H161753   2.985   2.058  13.475 -0.3165 -1.3443 -0.0425
13446TIP3    H261754   2.845   2.004  13.457 -1.2045  0.6424  0.6227
13447TIP3   OH261755   3.904   2.379  14.405 -0.2638 -0.3901 -0.1648
13447TIP3    H161756   3.995   2.402  14.388 -0.1366 -1.1477 -0.5963
13447TIP3    H261757   3.864   2.376  14.318 -0.8876  0.6426  0.0740
13448TIP3   OH261758   3.048   5.846   1.297  0.3098 -0.1408 -0.5018
13448TIP3    H161759   3.137   5.858   1.263  0.0310  0.3312 -1.0980
13448TIP3    H261760   3.051   5.881   1.386  0.5195  0.6605 -0.8111
13449TIP3   OH261761   6.150   6.667  17.316 -0.1320 -0.4917  0.0155
13449TIP3    H161762   6.104   6.589  17.284 -1.0701  0.2565 -0.4891
13449TIP3    H261763   6.211   6.690  17.246  0.7971 -1.2787  0.5396
13450TIP3   OH261764   6.334   2.685   2.767 -0.1626 -0.1957  0.4167
13450TIP3    H161765   6.280   2.658   2.842  0.3681 -1.9631  0.2008
13450TIP3    H261766   6.424   2.680   2.800  0.0064  0.3542  0.0500
13451TIP3   OH261767   2.397   5.486   1.380 -0.1183  0.4199 -0.2575
13451TIP3    H161768   2.361   5.403   1.410  0.4318 -0.0491 -0.8536
13451TIP3    H261769   2.492   5.472   1.378 -0.0808  0.7163 -1.3273
13452TIP3   OH261770   6.642   3.181  16.000  0.7488  0.4872 -0.3775
13452TIP3    H161771   6.674   3.094  16.022 -0.0779 -0.2255 -1.8332
13452TIP3    H261772   6.565   3.193  16.056 -0.0739 -0.4127 -1.2605
13453TIP3   OH261773   4.593   1.020  17.013  0.4016  0.5193 -0.7429
13453TIP3    H161774   4.673   1.006  16.963  0.7002  2.5807 -0.9281
13453TIP3    H261775   4.554   1.098  16.974 -2.0532 -0.7690 -1.0518
13454TIP3   OH261776   4.707   3.047   1.356 -0.1546 -0.4567 -0.7305
13454TIP3    H161777   4.747   2.969   1.393 -1.4992 -0.1784  1.5213
13454TIP3    H261778   4.779   3.094   1.314  1.6289 -0.6420  1.9072
13455TIP3   OH261779   3.834   1.356   2.165  0.4472  0.0496 -0.4705
13455TIP3    H161780   3.774   1.282   2.177  0.1132  0.4483  0.4217
13455TIP3    H261781   3.777   1.432   2.153  0.7589  0.3983  0.1711
13456TIP3   OH261782   1.038   0.315  13.554  0.3703 -0.1862 -0.0809
13456TIP3    H161783   1.112   0.316  13.494  0.8370  0.7811  0.4776
13456TIP3    H261784   1.068   0.366  13.630 -0.2386 -1.2943  0.9318
13457TIP3   OH261785   3.422   2.180   2.866 -0.0539 -0.2201 -0.5410
13457TIP3    H161786   3.470   2.170   2.784  1.3406 -1.5216  0.3780
13457TIP3    H261787   3.476   2.237   2.920 -0.0845 -0.7731  0.0953
13458TIP3   OH261788   0.867   6.417   3.117  0.1045 -0.3609  0.1783
13458TIP3    H161789   0.882   6.447   3.206 -0.9387 -0.6246  0.4537
13458TIP3    H261790   0.796   6.473   3.084  0.8845  0.1454 -0.7107
13459TIP3   OH261791   0.276   3.994  17.247  0.4883 -0.0840 -0.1921
13459TIP3    H161792   0.323   4.059  17.194 -1.3429  2.6845  1.3158
13459TIP3    H261793   0.189   3.989  17.208  0.5494 -1.6139 -0.1905
13460TIP3   OH261794   1.501   1.755   6.350  0.1503 -1.0367 -0.0615
13460TIP3    H161795   1.536   1.676   6.309 -1.0209 -0.7308 -1.7751
13460TIP3    H261796   1.507   1.822   6.282 -0.7771 -0.1928  0.6560
13461TIP3   OH261797   0.733   6.115  14.065  0.3735 -0.3980 -0.6643
13461TIP3    H161798   0.784   6.065  14.129 -0.1526 -1.0251 -0.7293
13461TIP3    H261799   0.716   6.053  13.995 -1.3583 -0.4988 -0.1871
13462TIP3   OH261800   4.742   1.951  15.175 -0.1612  0.0395  0.2556
13462TIP3    H161801   4.738   2.046  15.185  1.6772  0.5292 -2.5372
13462TIP3    H261802   4.792   1.937  15.094 -2.1595 -3.2753 -0.5957
13463TIP3   OH261803   0.972   3.321  15.117  0.3468  0.9222 -0.5143
13463TIP3    H161804   1.032   3.278  15.177 -1.0251  0.2695  0.4399
13463TIP3    H261805   0.886   3.315  15.159 -0.6814  0.4396 -2.5107
13464TIP3   OH261806   2.037   4.408  15.775 -0.5575 -0.1461 -0.3507
13464TIP3    H161807   2.086   4.412  15.857 -2.0293 -0.9973  0.6363
13464TIP3    H261808   2.088   4.349  15.720  0.5184  0.5347 -0.1083
13465TIP3   OH261809   1.237   1.303   5.468 -0.2371  0.5549 -0.0205
13465TIP3    H161810   1.315   1.248   5.480 -0.3665  0.5012  0.6095
13465TIP3    H261811   1.184   1.287   5.546 -0.9275  0.5233 -0.4902
13466TIP3   OH261812   4.416   2.203   1.903  0.2387  0.0041  0.0175
13466TIP3    H161813   4.360   2.277   1.880  0.3609  0.2579  0.5333
13466TIP3    H261814   4.407   2.194   1.997 -1.0857 -1.7084 -0.2340
13467TIP3   OH261815   5.408   2.673  14.704  0.1620 -0.4200  0.7743
13467TIP3    H161816   5.343   2.735  14.736  1.5432  1.2381  0.5323
13467TIP3    H261817   5.366   2.630  14.629 -0.8352  0.2210  0.9504
13468TIP3   OH261818   0.638   5.671  16.380  0.4280 -0.1925  0.2430
13468TIP3    H161819   0.675   5.755  16.353 -1.4060  0.2652 -1.0700
13468TIP3    H261820   0.552   5.694  16.417 -0.1830 -1.4891 -0.3131
13469TIP3   OH261821   3.324   6.093   2.960 -0.2608  0.0816 -0.3456
13469TIP3    H161822   3.253   6.152   2.985  0.3788  0.5376  0.4552
13469TIP3    H261823   3.361   6.063   3.043  0.7194  0.1571 -0.7367
13470TIP3   OH261824   4.807   5.545   1.547  0.1548  0.1003  0.1232
13470TIP3    H161825   4.838   5.576   1.632  1.4096 -2.8668  0.9066
13470TIP3    H261826   4.862   5.590   1.483 -0.1937  1.6971  0.9099
13471TIP3   OH261827   3.873   0.385   3.175  0.2272 -0.0738 -0.2199
13471TIP3    H161828   3.879   0.397   3.270  0.4178 -0.3485 -0.1963
13471TIP3    H261829   3.918   0.462   3.139  2.8081 -1.4056 -0.0536
13472TIP3   OH261830   0.942   0.323  15.972  0.1457  0.7297  0.0945
13472TIP3    H161831   0.953   0.366  16.056  1.5206 -0.2673  0.4648
13472TIP3    H261832   0.893   0.244  15.991  3.2397 -1.2293  0.6322
13473TIP3   OH261833   5.569   5.493   2.184 -0.8512 -0.4804 -0.4065
13473TIP3    H161834   5.534   5.440   2.113 -0.1692 -1.4256 -0.0516
13473TIP3    H261835   5.493   5.537   2.221 -1.5467 -1.7734 -0.2414
13474TIP3   OH261836   1.203   2.236   2.266  0.5420 -0.0220  0.2599
13474TIP3    H161837   1.126   2.291   2.249 -0.5273 -2.2237 -2.8219
13474TIP3    H261838   1.182   2.192   2.349 -0.6666  0.8061  0.4240
13475TIP3   OH261839   3.678   1.111   5.948  0.0470  0.2420  0.1563
13475TIP3    H161840   3.746   1.056   5.987 -1.3101 -2.2527 -0.7704
13475TIP3    H261841   3.700   1.200   5.977  2.5540 -0.6880  1.4646
13476TIP3   OH261842   1.700   1.690   6.702 -0.4197  0.4051 -0.4465
13476TIP3    H161843   1.618   1.678   6.749 -0.0568  4.0156  1.4901
13476TIP3    H261844   1.765   1.642   6.754 -0.8156  0.1810 -0.1591
13477TIP3   OH261845   0.916   0.647   5.291 -0.1515  0.2879 -0.2091
13477TIP3    H161846   0.931   0.742   5.294  1.1411  0.0827  0.5629
13477TIP3    H261847   0.822   0.638   5.274 -0.1882  1.6994 -0.9100
13478TIP3   OH261848   5.776   1.190   4.818 -0.0591  0.1796  0.1630
13478TIP3    H161849   5.795   1.191   4.912 -0.6683  2.7544  0.3399
13478TIP3    H261850   5.689   1.229   4.811 -1.0630 -2.1111 -1.3532
13479TIP3   OH261851   5.521   4.265  16.839  0.2397  0.3210  0.1656
13479TIP3    H161852   5.473   4.312  16.907 -1.7044  0.3788 -1.1823
13479TIP3    H261853   5.548   4.332  16.777  0.0671 -0.0017 -0.2596
13480TIP3   OH261854   2.064   2.641   4.595 -0.3904 -0.0526 -0.2151
13480TIP3    H161855   2.047   2.701   4.523 -1.8196 -0.9945 -0.7149
13480TIP3    H261856   2.147   2.599   4.573 -0.0145  0.8167 -0.4846
13481TIP3   OH261857   1.048   5.592  17.202 -0.4399 -0.1246 -0.3487
13481TIP3    H161858   1.087   5.667  17.157  0.9879 -1.7946 -2.0603
13481TIP3    H261859   0.955   5.596  17.179 -0.3017  0.8538 -0.7925
13482TIP3   OH261860   3.938   3.607  15.374 -0.0421  0.1705 -0.0620
13482TIP3    H161861   3.889   3.684  15.403 -0.5367  0.1854 -0.9009
13482TIP3    H261862   3.872   3.537  15.370  0.5637 -0.5579  1.5698
13483TIP3   OH261863   6.588   4.451  13.913  0.3836 -0.3891 -0.4154
13483TIP3    H161864   6.642   4.487  13.842 -0.0633  0.5935 -0.2762
13483TIP3    H261865   6.632   4.370  13.938  2.5909  1.0362  0.5938
13484TIP3   OH261866   4.271   2.748   3.452 -0.1203  0.1307  0.3114
13484TIP3    H161867   4.362   2.765   3.476  0.1414 -0.2182 -0.4075
13484TIP3    H261868   4.256   2.656   3.474  0.0758 -0.1511 -0.6683
13485TIP3   OH261869   1.398   2.459  15.912  0.6612 -0.4686  0.3812
13485TIP3    H161870   1.382   2.425  15.824  0.6676  0.5399 -0.0194
13485TIP3    H261871   1.492   2.472  15.917  0.6109 -0.0862  0.3702
13486TIP3   OH261872   1.642   2.250  14.504 -0.0588  0.5691  0.2119
13486TIP3    H161873   1.653   2.156  14.488 -1.3814  0.8609 -3.0800
13486TIP3    H261874   1.717   2.291  14.461  1.0012  1.0697  2.3913
13487TIP3   OH261875   5.697   3.335   5.159 -0.1829  0.4184  0.3813
13487TIP3    H161876   5.612   3.315   5.120  0.2762  0.4694 -0.6737
13487TIP3    H261877   5.686   3.315   5.252 -1.3564  0.4647  0.2614
13488TIP3   OH261878   4.663   1.723  12.831 -0.3786  0.4742  0.6052
13488TIP3    H161879   4.598   1.660  12.801  0.6209 -0.5810  0.6394
13488TIP3    H261880   4.685   1.694  12.920 -2.8721  3.2025  2.3319
13489TIP3   OH261881   2.589   0.623  14.126  0.3733 -0.4271 -0.9275
13489TIP3    H161882   2.613   0.574  14.048  2.5517 -1.1468  0.1284
13489TIP3    H261883   2.579   0.558  14.195 -1.4357  0.2013 -0.5264
13490TIP3   OH261884   5.261   0.913  11.057 -0.1217 -0.6871  0.1546
13490TIP3    H161885   5.208   0.991  11.044 -1.3208 -1.3178  0.9955
13490TIP3    H261886   5.340   0.927  11.004 -0.7781  0.6226 -0.5088
13491TIP3   OH261887   2.775   6.544   3.336 -0.0070  0.1444  0.0628
13491TIP3    H161888   2.820   6.628   3.327 -1.3837  0.6611 -3.4165
13491TIP3    H261889   2.704   6.563   3.398 -1.0522  2.0028 -1.5682
13492TIP3   OH261890   3.565   4.950  14.371  0.0460 -0.4135  0.6106
13492TIP3    H161891   3.605   4.863  14.376 -0.5386 -0.8245 -1.0305
13492TIP3    H261892   3.500   4.942  14.301  0.1436  1.4119  0.2625
13493TIP3   OH261893   3.336   2.680   3.586 -0.5269  0.1137  0.2264
13493TIP3    H161894   3.262   2.623   3.605 -1.1306  1.3911  1.8589
13493TIP3    H261895   3.354   2.725   3.668  1.0130  1.0527 -0.5830
13494TIP3   OH261896   2.816   4.997   3.429  0.3257 -0.2724  0.1761
13494TIP3    H161897   2.866   4.965   3.505  1.1221  0.2575 -0.1088
13494TIP3    H261898   2.871   4.976   3.354  1.6219  2.9882  0.0544
13495TIP3   OH261899   4.403   0.361  12.962  0.1351 -0.2012  0.9722
13495TIP3    H161900   4.437   0.287  12.912  0.8896  0.2718  0.7673
13495TIP3    H261901   4.335   0.399  12.906  1.0978  0.4358  0.2042
13496TIP3   OH261902   6.017   4.421   2.633 -0.4086 -0.6204 -0.6372
13496TIP3    H161903   6.004   4.328   2.650 -3.1770 -0.1645  0.2662
13496TIP3    H261904   5.991   4.433   2.541  0.0791 -0.7538 -0.7934
13497TIP3   OH261905   0.711   1.026  14.437 -0.1141  0.0533 -0.4036
13497TIP3    H161906   0.684   1.082  14.365 -1.3045  0.1263  0.0756
13497TIP3    H261907   0.663   1.059  14.513  0.4995 -0.5255  0.2616
13498TIP3   OH261908   0.257   3.161   3.359  0.1250  0.0444 -0.0496
13498TIP3    H161909   0.273   3.205   3.442  0.0685 -1.5851  0.8659
13498TIP3    H261910   0.184   3.102   3.376  1.3075 -1.7017 -0.6954
13499TIP3   OH261911   0.282   0.182   3.548 -0.2244  0.0318 -0.5275
13499TIP3    H161912   0.212   0.237   3.583  0.3433 -0.5211  1.6334
13499TIP3    H261913   0.249   0.152   3.463 -1.7704  1.3018 -0.4194
13500TIP3   OH261914   3.152   2.810  15.465  0.4259  0.5334 -0.3103
13500TIP3    H161915   3.208   2.789  15.540 -0.4455 -0.3762  0.1111
13500TIP3    H261916   3.064   2.783  15.492 -0.0052  0.7689 -1.4249
13501TIP3   OH261917   3.849   6.305   5.056 -0.2945  0.3478  0.7355
13501TIP3    H161918   3.778   6.316   4.993  0.1499  0.3427  0.2281
13501TIP3    H261919   3.833   6.372   5.123  0.7891  2.2591 -0.8238
13502TIP3   OH261920   0.872   0.611  16.531 -0.3267  0.2855  0.4651
13502TIP3    H161921   0.913   0.548  16.591 -1.9157 -0.9737  0.3151
13502TIP3    H261922   0.780   0.584  16.528 -0.6523  1.4301 -1.1450
13503TIP3   OH261923   4.350   0.897   5.835  0.0078  0.2706 -0.6390
13503TIP3    H161924   4.419   0.864   5.778  0.6053 -0.4589  0.4660
13503TIP3    H261925   4.317   0.975   5.791  1.6932  0.7671 -1.0746
13504TIP3   OH261926   3.056   1.047  11.677 -0.6613 -0.5438 -0.5284
13504TIP3    H161927   3.074   1.122  11.619 -2.2138  0.7488  0.5637
13504TIP3    H261928   2.999   0.990  11.626  0.0341 -0.7019 -1.1507
13505TIP3   OH261929   1.712   1.272  13.369  0.5566  0.1598 -0.1636
13505TIP3    H161930   1.792   1.260  13.318  0.1901  1.2912 -1.0333
13505TIP3    H261931   1.743   1.286  13.459  1.6697  4.4959 -1.0286
13506TIP3   OH261932   5.479   3.105   6.112 -0.2085  0.1124 -0.0611
13506TIP3    H161933   5.468   3.167   6.185  0.7189  0.5699 -0.2911
13506TIP3    H261934   5.481   3.160   6.034 -3.7020 -0.5340 -0.7556
13507TIP3   OH261935   1.981   3.316  15.782 -0.1802 -0.2348 -0.1446
13507TIP3    H161936   2.070   3.286  15.763 -0.3360 -0.1631 -1.0231
13507TIP3    H261937   1.951   3.355  15.700  0.0664  2.4594  0.9232
13508TIP3   OH261938   0.727   4.768  11.367 -0.4355  0.5612  0.2255
13508TIP3    H161939   0.778   4.762  11.286  0.4457 -0.5519  0.8384
13508TIP3    H261940   0.733   4.861  11.392 -0.4568  0.8554 -0.8044
13509TIP3   OH261941   0.680   0.732   3.109  0.0441 -0.0332  0.1237
13509TIP3    H161942   0.676   0.800   3.041  0.0389  0.6139  0.7491
13509TIP3    H261943   0.608   0.673   3.088 -0.6846  0.7957  0.2148
13510TIP3   OH261944   5.403   4.258  17.178 -0.0159  0.5670  0.2991
13510TIP3    H161945   5.412   4.174  17.132  0.1836  0.2610  0.8811
13510TIP3    H261946   5.376   4.320  17.111 -0.5699 -0.0536 -0.0657
13511TIP3   OH261947   1.807   3.295   3.754 -0.2818 -1.1761 -0.2767
13511TIP3    H161948   1.816   3.225   3.818  4.2232  0.7224  1.6257
13511TIP3    H261949   1.862   3.268   3.681  3.3066  0.9165  1.3723
13512TIP3   OH261950   1.585   0.877  15.741 -0.1103  0.3066  0.1308
13512TIP3    H161951   1.665   0.825  15.732 -0.7886 -0.5386 -1.5217
13512TIP3    H261952   1.577   0.923  15.657 -2.6505 -1.6312 -0.8155
13513TIP3   OH261953   4.089   1.046  14.767  0.1506  0.3753  0.1932
13513TIP3    H161954   4.100   1.137  14.740 -0.3115  0.5818  0.6839
13513TIP3    H261955   4.095   1.047  14.862 -3.8313  0.5809  0.6356
13514TIP3   OH261956   5.803   4.193   0.394  0.3327 -0.5750 -0.1013
13514TIP3    H161957   5.726   4.200   0.450 -0.0242 -1.4503 -0.4800
13514TIP3    H261958   5.842   4.109   0.417 -0.9090 -1.9013 -2.5204
13515TIP3   OH261959   5.384   6.625  15.444 -0.2390 -0.5925 -1.0596
13515TIP3    H161960   5.290   6.637  15.457 -0.3208 -0.9251 -1.3513
13515TIP3    H261961   5.399   6.532  15.460  0.5863  0.0042  2.3724
13516TIP3   OH261962   4.741   5.285  13.517 -0.1352 -0.1883  0.2339
13516TIP3    H161963   4.658   5.272  13.471  0.8372 -0.4343 -1.5266
13516TIP3    H261964   4.783   5.358  13.470  0.1477  0.7411  1.8532
13517TIP3   OH261965   1.687   2.529   1.364  0.2956  0.0667 -0.1960
13517TIP3    H161966   1.770   2.577   1.365  1.5258 -1.6917  3.4906
13517TIP3    H261967   1.702   2.456   1.304  0.5980  0.9240 -1.1867
13518TIP3   OH261968   2.794   5.830   2.719  0.2571  0.3003  0.3540
13518TIP3    H161969   2.878   5.818   2.763  0.4138 -3.5672 -0.6488
13518TIP3    H261970   2.817   5.867   2.633  0.7059  0.9750  0.7531
13519TIP3   OH261971   1.955   2.956   2.136 -0.3827  0.3771  0.2728
13519TIP3    H161972   1.979   3.045   2.110 -1.1135  0.7739  0.9130
13519TIP3    H261973   2.032   2.923   2.182  0.6740 -0.0886 -1.6946
13520TIP3   OH261974   0.306   3.890  15.531  0.2701 -0.4711  0.5089
13520TIP3    H161975   0.358   3.894  15.611 -0.2132 -3.1901  1.0711
13520TIP3    H261976   0.215   3.899  15.561  0.1212 -0.9602  0.2183
13521TIP3   OH261977   1.264   1.230  14.007  0.5824 -0.0119 -0.0881
13521TIP3    H161978   1.209   1.261  14.079  0.9540 -0.9015  0.6115
13521TIP3    H261979   1.208   1.168  13.960  1.0481 -1.1838  0.8312
13522TIP3   OH261980   5.559   2.023   2.998 -0.4237 -0.0405 -0.3432
13522TIP3    H161981   5.577   1.932   2.975 -0.1568 -0.2884  0.7912
13522TIP3    H261982   5.612   2.039   3.076 -1.3212  0.7508  0.1157
13523TIP3   OH261983   0.243   1.070  16.694 -0.1120  0.2253 -0.1265
13523TIP3    H161984   0.191   1.067  16.774 -0.5606  1.4687 -0.3485
13523TIP3    H261985   0.220   1.154  16.653 -1.0245 -1.0061 -2.3229
13524TIP3   OH261986   5.966   5.502  11.906  0.1950  0.3783  0.1241
13524TIP3    H161987   6.054   5.481  11.877  0.0536  0.3620 -0.2975
13524TIP3    H261988   5.940   5.427  11.960 -0.2878 -0.5419 -1.3335
13525TIP3   OH261989   3.783   2.484   2.453  0.1223  0.2269  0.3992
13525TIP3    H161990   3.782   2.504   2.547  0.0039 -1.4361  0.7896
13525TIP3    H261991   3.760   2.391   2.448  0.3828  0.2162 -1.2717
13526TIP3   OH261992   3.968   1.785  15.537 -0.0126 -0.3358 -0.4105
13526TIP3    H161993   4.057   1.820  15.541 -0.3385  0.6445 -1.0436
13526TIP3    H261994   3.975   1.709  15.480  0.3039  0.1887 -1.0909
13527TIP3   OH261995   0.075   2.581   2.892  0.0632 -0.1026 -0.4503
13527TIP3    H161996   0.148   2.519   2.895  0.2460  0.1539  0.9192
13527TIP3    H261997   0.113   2.662   2.859  0.7596  0.4492  1.5714
13528TIP3   OH261998   6.522   5.194   5.747 -0.4735 -0.0556  0.1962
13528TIP3    H161999   6.501   5.204   5.840  0.5687  1.6022  0.2880
13528TIP3    H262000   6.465   5.257   5.703 -1.2798 -1.1453 -0.3531
13529TIP3   OH262001   5.376   5.842   1.834 -0.1671  0.0445  0.1586
13529TIP3    H162002   5.347   5.855   1.925  0.9331 -1.3317  0.7360
13529TIP3    H262003   5.465   5.809   1.842 -0.7088 -1.9402 -1.3413
13530TIP3   OH262004   5.761   3.649   2.472 -0.4463 -0.3514  0.0598
13530TIP3    H162005   5.752   3.583   2.405  0.5282 -0.9221  0.4718
13530TIP3    H262006   5.829   3.709   2.439 -0.7639 -0.0006  0.0361
13531TIP3   OH262007   1.511   5.593   5.977 -0.1117 -0.0754 -0.1408
13531TIP3    H162008   1.433   5.538   5.983  0.3559 -0.5980  2.5949
13531TIP3    H262009   1.513   5.640   6.060  2.2947  0.1786 -0.2819
13532TIP3   OH262010   6.627   1.288   1.613  0.4529  0.2292  0.7252
13532TIP3    H162011   6.673   1.301   1.530  0.7132 -1.0468  0.6545
13532TIP3    H262012   6.576   1.369   1.624  1.1466  0.8203 -0.1904
13533TIP3   OH262013   0.117   5.725   5.911  0.4728 -0.4067  0.4840
13533TIP3    H162014   0.094   5.677   5.831 -0.0836  0.4421  0.1181
13533TIP3    H262015   0.053   5.796   5.915  1.7208  0.7419  0.6111
13534TIP3   OH262016   3.901   0.656  13.467 -0.5276 -0.3694  0.5718
13534TIP3    H162017   3.940   0.680  13.551 -0.7651  1.8628  0.0993
13534TIP3    H262018   3.821   0.609  13.491 -0.3326 -0.2058  1.5927
13535TIP3   OH262019   4.839   2.252   0.927  0.4558  0.1557 -0.3731
13535TIP3    H162020   4.769   2.275   0.989 -0.4687  0.1417 -1.3819
13535TIP3    H262021   4.851   2.158   0.939  0.8136  0.2849  0.3148
13536TIP3   OH262022   1.984   5.631   6.260 -0.1367 -0.0656 -0.2841
13536TIP3    H162023   1.960   5.570   6.190  0.0071  1.6746 -1.9136
13536TIP3    H262024   1.901   5.650   6.304 -0.2202 -1.2192  0.0906
13537TIP3   OH262025   2.561   3.598   5.570  0.1446 -0.5439 -0.0635
13537TIP3    H162026   2.491   3.573   5.630 -0.8305  0.6681 -0.6563
13537TIP3    H262027   2.593   3.681   5.605 -0.3791  0.1355 -1.1471
13538TIP3   OH262028   5.528   4.671  16.407  0.2212 -0.0468 -0.3642
13538TIP3    H162029   5.480   4.701  16.330  1.2237  0.3488 -0.8648
13538TIP3    H262030   5.462   4.664  16.476 -0.1899  2.7068 -0.3879
13539TIP3   OH262031   5.307   2.593  14.221  0.2816 -0.2229  0.4057
13539TIP3    H162032   5.314   2.666  14.159 -4.5384  0.3654  0.1518
13539TIP3    H262033   5.239   2.621  14.282  0.9162 -3.0795  2.5907
13540TIP3   OH262034   4.311   3.315   4.989 -0.0496 -0.5336  0.0400
13540TIP3    H162035   4.331   3.376   5.060  0.6313 -0.5305 -0.1511
13540TIP3    H262036   4.320   3.368   4.909  2.3300 -1.2922 -0.2584
13541TIP3   OH262037   0.714   1.099   4.077 -0.3329 -0.0233 -0.0206
13541TIP3    H162038   0.705   1.152   3.998  0.0755 -1.0563 -0.7859
13541TIP3    H262039   0.675   1.015   4.053 -0.5558 -0.2191  1.0145
13542TIP3   OH262040   1.437   1.547   4.753 -0.6171  0.0790 -0.4770
13542TIP3    H162041   1.416   1.468   4.803 -1.1283 -0.2249 -1.1508
13542TIP3    H262042   1.427   1.618   4.816 -1.8370 -0.2437 -0.2748
13543TIP3   OH262043   6.326   5.247   3.226  0.3874  0.1354 -1.0989
13543TIP3    H162044   6.407   5.281   3.264 -0.2201  1.0132 -0.5730
13543TIP3    H262045   6.260   5.312   3.246 -0.9381 -1.5605  0.4046
13544TIP3   OH262046   1.506   3.500   0.931  0.3869  0.3450  0.5775
13544TIP3    H162047   1.443   3.443   0.976  0.6020  0.4132  0.9719
13544TIP3    H262048   1.588   3.451   0.933  0.3575  0.2676  0.0841
13545TIP3   OH262049   2.735   0.952   3.233  0.0306 -0.7060  0.3835
13545TIP3    H162050   2.691   0.999   3.303 -0.8472 -1.4635  0.3505
13545TIP3    H262051   2.671   0.948   3.162  1.0942  0.5454 -0.7057
13546TIP3   OH262052   3.990   5.038   5.967  0.2204 -0.3627 -0.1618
13546TIP3    H162053   3.914   5.027   6.024  0.6943 -2.4814  0.1535
13546TIP3    H262054   4.019   4.949   5.949  3.9844  0.3181  1.5540
13547TIP3   OH262055   2.433   1.264   1.805 -0.1031 -0.4046 -0.4019
13547TIP3    H162056   2.466   1.219   1.882 -1.7875 -1.8101 -0.4321
13547TIP3    H262057   2.512   1.289   1.756  0.9732 -2.8659 -0.0966
13548TIP3   OH262058   2.285   0.583  12.149 -0.2715 -0.1963 -0.4521
13548TIP3    H162059   2.251   0.629  12.226 -0.2116  0.4995 -0.8330
13548TIP3    H262060   2.235   0.619  12.075 -0.8956 -1.4397 -0.6586
13549TIP3   OH262061   0.313   1.172  13.301 -0.1485  0.4205  0.8140
13549TIP3    H162062   0.302   1.267  13.307 -1.2541  0.2375  1.9872
13549TIP3    H262063   0.399   1.161  13.260  1.4657  1.9230  3.5187
13550TIP3   OH262064   0.228   0.940   3.895  0.2907 -0.3136  0.4375
13550TIP3    H162065   0.322   0.954   3.897  0.5624 -1.6592 -0.7638
13550TIP3    H262066   0.197   0.995   3.823  0.2306 -0.2287  0.5280
13551TIP3   OH262067   6.491   3.075  12.418 -0.1977 -0.8163  0.7919
13551TIP3    H162068   6.500   3.015  12.492  0.3101 -2.1557 -0.3115
13551TIP3    H262069   6.416   3.042  12.369  1.2150 -1.7916 -0.8595
13552TIP3   OH262070   4.509   0.211   5.999  0.7324  0.3418  0.0124
13552TIP3    H162071   4.541   0.152   6.068 -2.6238 -0.4468  1.0577
13552TIP3    H262072   4.473   0.153   5.933  1.2855  1.1739 -1.0387
13553TIP3   OH262073   0.745   1.636  12.731 -0.3728 -0.0867  0.2183
13553TIP3    H162074   0.742   1.686  12.649 -1.4041 -0.8432 -0.2295
13553TIP3    H262075   0.683   1.681  12.788 -2.8123 -1.8916 -0.8465
13554TIP3   OH262076   5.639   3.680   3.696 -0.1209 -0.2429  0.0095
13554TIP3    H162077   5.571   3.744   3.719  0.6349  0.8132 -0.5710
13554TIP3    H262078   5.681   3.717   3.618 -0.5101 -2.1161 -1.1523
13555TIP3   OH262079   1.500   4.202   5.269  0.4904 -0.4013 -0.8801
13555TIP3    H162080   1.461   4.265   5.209  0.0980 -1.3744 -1.6863
13555TIP3    H262081   1.593   4.225   5.271  0.0605  1.4721  0.4723
13556TIP3   OH262082   1.073   6.154   4.263  0.0402  0.5998  0.5609
13556TIP3    H162083   1.102   6.071   4.301  0.0787 -1.7911 -3.9764
13556TIP3    H262084   0.994   6.176   4.312  0.0766 -2.0730  2.0189
13557TIP3   OH262085   5.462   3.052  11.555 -0.2463  0.1404 -0.1150
13557TIP3    H162086   5.379   3.091  11.585 -0.3619  0.7660 -1.2084
13557TIP3    H262087   5.451   3.041  11.461 -0.0966 -2.3277  0.0944
13558TIP3   OH262088   0.254   5.514   4.158  0.0985 -0.2933  0.4467
13558TIP3    H162089   0.347   5.537   4.160  0.0682 -0.1231  0.0483
13558TIP3    H262090   0.227   5.514   4.250  0.5657 -0.6496  0.5871
13559TIP3   OH262091   1.682   6.627  15.850 -0.1176 -0.4032 -0.5328
13559TIP3    H162092   1.646   6.688  15.786  0.1627 -1.0939 -1.3634
13559TIP3    H262093   1.643   6.654  15.933  0.8472  1.6295 -0.6561
13560TIP3   OH262094   4.453   6.627   2.455  0.4809  0.1607  0.2131
13560TIP3    H162095   4.447   6.654   2.547  0.6536 -0.2511  0.3476
13560TIP3    H262096   4.365   6.642   2.420  0.6358  1.1144  0.2222
13561TIP3   OH262097   3.283   1.586  15.087  0.0260 -0.2644 -0.0237
13561TIP3    H162098   3.294   1.553  15.176  2.0453 -3.1762 -1.1878
13561TIP3    H262099   3.356   1.646  15.074 -1.7127  2.2753  0.9621
13562TIP3   OH262100   4.015   2.056  15.337  0.1860  0.7574 -0.2697
13562TIP3    H162101   3.929   2.026  15.306  0.7675 -2.0111  0.4885
13562TIP3    H262102   4.077   2.017  15.276  1.0172  0.2441  0.8717
13563TIP3   OH262103   4.756   4.745   5.695  0.0913  0.3987  0.2291
13563TIP3    H162104   4.813   4.821   5.687 -1.2882  1.3550 -0.9823
13563TIP3    H262105   4.673   4.772   5.656 -0.8229 -1.3497  0.8229
13564TIP3   OH262106   0.552   1.189  16.592 -0.5477 -0.5372  0.1065
13564TIP3    H162107   0.466   1.189  16.549 -1.4218 -1.9938  1.6971
13564TIP3    H262108   0.545   1.255  16.661 -0.1489 -0.1950 -0.1766
13565TIP3   OH262109   1.793   6.594  12.577 -0.4697 -0.1246  0.1439
13565TIP3    H162110   1.831   6.627  12.495 -0.5738  1.3625  0.6747
13565TIP3    H262111   1.699   6.610  12.568 -0.7274 -1.6728 -0.1966
13566TIP3   OH262112   3.849   0.008  14.136 -0.2285  0.2066 -0.1155
13566TIP3    H162113   3.917   0.075  14.126  0.1431 -0.2702 -0.9217
13566TIP3    H262114   3.896  -0.069  14.168 -0.3024 -0.2410 -1.0321
13567TIP3   OH262115   2.176   1.859   3.026 -0.1303 -0.0893 -0.3128
13567TIP3    H162116   2.154   1.940   2.979  0.2535  0.0789 -0.2054
13567TIP3    H262117   2.102   1.845   3.086 -1.1535 -0.8835 -1.7017
13568TIP3   OH262118   1.976   1.506  17.014 -0.6973 -0.1727 -0.4796
13568TIP3    H162119   1.899   1.449  17.018 -2.1527  1.6948 -0.4958
13568TIP3    H262120   1.984   1.529  16.921  0.1692 -0.7206 -0.5436
13569TIP3   OH262121   1.067   2.145  14.661 -0.4782 -0.0835 -0.4377
13569TIP3    H162122   1.075   2.051  14.650  0.2050  0.1232 -2.0247
13569TIP3    H262123   0.979   2.159  14.695 -0.4020 -1.3139  0.2991
13570TIP3   OH262124   5.408   5.460   2.982 -0.2579 -0.3567 -0.0245
13570TIP3    H162125   5.470   5.408   3.033 -0.8214 -2.2153 -1.1602
13570TIP3    H262126   5.322   5.426   3.008 -0.5553 -1.2943 -2.0915
13571TIP3   OH262127   0.660   4.040  13.684 -0.1449 -0.4582 -0.0310
13571TIP3    H162128   0.620   4.098  13.619 -0.5003  1.7431  2.0002
13571TIP3    H262129   0.648   3.952  13.648 -1.0547  0.5830 -2.5068
13572TIP3   OH262130   1.247   6.510  14.794  0.1964 -0.2689 -0.0328
13572TIP3    H162131   1.160   6.540  14.821  0.2354  0.0661 -0.2720
13572TIP3    H262132   1.291   6.487  14.876 -0.4240 -1.2909  0.0216
13573TIP3   OH262133   2.117   4.597   1.472  0.0196 -0.2427 -0.1551
13573TIP3    H162134   2.203   4.623   1.439  0.2998  0.2143  0.8892
13573TIP3    H262135   2.067   4.575   1.394  0.5371  1.1475 -0.9164
13574TIP3   OH262136   2.167   3.017  12.847  0.3692 -0.3117 -0.2070
13574TIP3    H162137   2.097   2.975  12.898  0.2749 -0.3799 -0.3928
13574TIP3    H262138   2.159   3.110  12.869  0.1480 -0.3053 -0.3140
13575TIP3   OH262139   5.678   3.212   3.795  0.5612 -0.2426  0.7791
13575TIP3    H162140   5.613   3.274   3.828  0.2458 -0.6323  0.8953
13575TIP3    H262141   5.761   3.258   3.803  0.3232  0.1867  0.8113
13576TIP3   OH262142   0.181   3.070  16.029 -0.1307 -0.1086 -0.0365
13576TIP3    H162143   0.202   2.977  16.018 -1.1603 -0.3451 -0.0347
13576TIP3    H262144   0.111   3.072  16.094 -0.0173  0.6879  0.0747
13577TIP3   OH262145   5.752   1.043  14.860 -0.2911 -0.0696  0.2658
13577TIP3    H162146   5.845   1.045  14.882 -0.3749  1.2285  0.5371
13577TIP3    H262147   5.749   0.996  14.777  0.6290  0.0488  0.1474
13578TIP3   OH262148   0.459   4.050   1.335  0.5275 -0.0247 -0.5714
13578TIP3    H162149   0.379   4.099   1.355  1.6149  1.7780 -0.3743
13578TIP3    H262150   0.432   3.985   1.270 -1.3350 -0.3336  0.4278
13579TIP3   OH262151   1.625   2.176  17.272  0.7174 -0.8958 -0.2274
13579TIP3    H162152   1.679   2.171  17.351  1.8801 -1.7887 -1.0348
13579TIP3    H262153   1.595   2.086  17.258  0.0462 -0.6373 -0.4790
13580TIP3   OH262154   5.304   2.746  11.566  0.3144 -0.3152  0.8091
13580TIP3    H162155   5.219   2.703  11.565  0.6663 -1.0268  0.5927
13580TIP3    H262156   5.367   2.674  11.571  0.9378  0.1314 -0.2505
13581TIP3   OH262157   1.058   2.541  15.439  0.0808 -0.2779 -0.1933
13581TIP3    H162158   1.043   2.509  15.528  0.5436 -1.5388 -0.5415
13581TIP3    H262159   0.978   2.518  15.391 -0.0907  0.2266 -0.1525
13582TIP3   OH262160   3.307   5.147   5.102  0.2767 -0.5786  0.1341
13582TIP3    H162161   3.266   5.177   5.021 -0.4405  0.0944  0.7240
13582TIP3    H262162   3.388   5.199   5.109  0.2902 -0.5692 -0.1020
13583TIP3   OH262163   2.419   3.261   1.846 -0.1955 -0.1911  0.0866
13583TIP3    H162164   2.416   3.261   1.750 -1.6340 -0.2331  0.1031
13583TIP3    H262165   2.331   3.287   1.872  0.3820  0.5228  1.4118
13584TIP3   OH262166   3.158   5.738   2.757  0.5606  0.3897 -0.4599
13584TIP3    H162167   3.231   5.690   2.718 -0.7149 -0.5532 -1.7891
13584TIP3    H262168   3.080   5.697   2.720 -0.6761  1.1182  1.1923
13585TIP3   OH262169   0.524   6.544   4.272 -0.3182 -0.0234  0.0446
13585TIP3    H162170   0.568   6.467   4.308 -1.9033 -1.8753 -1.7515
13585TIP3    H262171   0.434   6.517   4.258 -0.4803  1.4704 -2.5375
13586TIP3   OH262172   5.381   0.316  12.088 -0.4714  0.0894 -0.4028
13586TIP3    H162173   5.306   0.329  12.030 -0.9801 -1.6560 -0.2133
13586TIP3    H262174   5.343   0.275  12.166  0.4051  1.1114  0.5794
13587TIP3   OH262175   4.974   1.884  16.816  0.0085 -0.0185 -0.1399
13587TIP3    H162176   4.896   1.845  16.778  0.3589  0.8056 -1.7961
13587TIP3    H262177   4.947   1.973  16.840  0.4025  0.2569 -0.6851
13588TIP3   OH262178   3.758   2.644   6.030  0.1019 -0.5540 -0.2330
13588TIP3    H162179   3.823   2.604   6.088 -1.1146 -0.4696  1.2390
13588TIP3    H262180   3.718   2.571   5.984 -0.2460 -0.8091  0.4637
13589TIP3   OH262181   2.624   2.702  16.924 -0.1250 -0.3405 -0.1789
13589TIP3    H162182   2.653   2.789  16.895  0.2892 -0.7033 -0.8768
13589TIP3    H262183   2.683   2.641  16.880 -0.3870 -0.9802  0.3378
13590TIP3   OH262184   2.404   6.044  14.727 -0.0777  0.1392  0.2063
13590TIP3    H162185   2.314   6.060  14.754 -0.0725 -0.3233  0.5212
13590TIP3    H262186   2.424   6.114  14.665  0.0334  1.4617  1.6955
13591TIP3   OH262187   6.549   4.379  16.274 -0.2766 -0.7518 -0.0809
13591TIP3    H162188   6.567   4.438  16.347 -0.6197  0.4082 -0.9064
13591TIP3    H262189   6.634   4.365  16.233 -0.4562  0.7540 -1.0339
13592TIP3   OH262190   2.850   0.994  14.661  0.2572  0.0165 -0.2962
13592TIP3    H162191   2.870   0.992  14.567  2.6329 -0.9153  0.1581
13592TIP3    H262192   2.902   1.067  14.695  2.0745 -1.6527  0.7353
13593TIP3   OH262193   3.264   5.911  15.203 -0.2980  0.1782 -0.0987
13593TIP3    H162194   3.323   5.946  15.137 -0.4471 -0.3723 -0.5305
13593TIP3    H262195   3.254   5.818  15.180  1.6611 -0.6779  2.1397
13594TIP3   OH262196   6.072   3.077  14.072 -0.3140 -0.3081  0.4366
13594TIP3    H162197   6.138   3.036  14.017  0.0706 -0.0052  0.6616
13594TIP3    H262198   6.123   3.119  14.142 -0.5283  1.8682 -0.6063
13595TIP3   OH262199   0.282   4.269  13.573  0.2550 -0.7931 -0.1823
13595TIP3    H162200   0.219   4.266  13.501 -1.5229 -1.3046  1.3029
13595TIP3    H262201   0.292   4.178  13.601 -0.5839 -0.4377  1.4030
13596TIP3   OH262202   4.310   3.632  13.277 -0.3548 -0.4220 -0.2465
13596TIP3    H162203   4.262   3.572  13.221  1.9005 -1.4359 -1.1928
13596TIP3    H262204   4.386   3.659  13.225  0.8333  0.0682  1.6371
13597TIP3   OH262205   6.758   4.203   6.572 -0.1959  0.0164 -0.4367
13597TIP3    H162206   6.784   4.235   6.659 -0.1374 -1.9977  0.3547
13597TIP3    H262207   6.825   4.236   6.513  1.0642 -0.4466  0.6770
13598TIP3   OH262208   2.928   2.899  14.828  0.1997 -0.3900 -0.5538
13598TIP3    H162209   2.885   2.981  14.851  0.4146  0.1635 -1.9754
13598TIP3    H262210   2.945   2.856  14.911  0.8913  1.4134  0.2944
13599TIP3   OH262211   3.914   1.758   2.865 -0.3308 -0.1777  0.4129
13599TIP3    H162212   3.882   1.674   2.833 -0.2805 -0.3175  0.7253
13599TIP3    H262213   4.006   1.742   2.887  0.4498  0.6072 -1.9428
13600TIP3   OH262214   2.978   4.224  14.499  0.1806 -0.5329  0.5287
13600TIP3    H162215   2.898   4.173  14.486  0.4081 -0.5960 -0.7793
13600TIP3    H262216   3.025   4.177  14.568 -0.3885 -1.1265  0.5261
13601TIP3   OH262217   2.334   0.639  11.498  0.1175 -0.4629  0.1463
13601TIP3    H162218   2.318   0.730  11.474  1.6459 -0.2456 -0.1925
13601TIP3    H262219   2.248   0.599  11.501 -0.4051  0.1612 -3.0427
13602TIP3   OH262220   3.168   1.855  11.926 -0.5251 -0.0251 -0.3994
13602TIP3    H162221   3.261   1.846  11.949 -0.5925  0.5526  0.1539
13602TIP3    H262222   3.138   1.930  11.978 -1.3718 -0.3777 -0.3589
13603TIP3   OH262223   4.297   4.971   3.790  0.2666  0.2237  0.4393
13603TIP3    H162224   4.231   4.992   3.856 -0.3270 -1.1038  0.3002
13603TIP3    H262225   4.327   4.883   3.813  1.4482  0.5014  0.0499
13604TIP3   OH262226   0.798   0.036   2.313 -0.6980 -0.1663  0.7182
13604TIP3    H162227   0.737   0.085   2.258  0.6456 -2.4003 -3.1339
13604TIP3    H262228   0.756  -0.050   2.324 -0.2634 -0.2373  2.0557
13605TIP3   OH262229   3.121   6.180   3.611  0.3963  0.0435  0.3596
13605TIP3    H162230   3.184   6.199   3.681  2.3445 -0.3886 -1.1921
13605TIP3    H262231   3.173   6.178   3.531 -1.5370 -0.8125 -0.9641
13606TIP3   OH262232   4.690   5.059   1.337  0.6502 -0.1746 -0.5003
13606TIP3    H162233   4.659   4.979   1.294  3.9888 -1.1588 -1.3613
13606TIP3    H262234   4.764   5.030   1.390 -0.4677  1.7914  2.3958
13607TIP3   OH262235   5.187   2.319   2.059  0.2061  0.0861 -0.2963
13607TIP3    H162236   5.168   2.306   2.152  0.0457 -0.1427 -0.3592
13607TIP3    H262237   5.244   2.245   2.036 -2.1901 -1.6522 -1.0993
13608TIP3   OH262238   1.603   6.329  11.487  0.1142 -0.3082  0.0072
13608TIP3    H162239   1.623   6.280  11.406  0.1631  1.2517 -0.9618
13608TIP3    H262240   1.532   6.280  11.528 -0.6429 -0.5698 -1.5369
13609TIP3   OH262241   6.537   6.143  12.086  0.1168  0.5233 -0.1966
13609TIP3    H162242   6.503   6.200  12.016 -0.4145  0.8443  0.3040
13609TIP3    H262243   6.482   6.165  12.162  1.0763  0.6212  0.4870
13610TIP3   OH262244   4.565   3.818   1.648  0.0389 -0.3457 -0.3861
13610TIP3    H162245   4.546   3.778   1.733  0.9256 -0.5939 -0.2934
13610TIP3    H262246   4.490   3.876   1.631 -1.4089 -2.2070 -0.6469
13611TIP3   OH262247   1.896   4.724  12.328  0.0626 -0.4096 -0.1081
13611TIP3    H162248   1.868   4.760  12.244 -0.8440  0.5883  0.5984
13611TIP3    H262249   1.905   4.800  12.385  1.6003 -0.9801  0.4541
13612TIP3   OH262250   3.588   4.090  13.176  0.0137 -0.6032  0.1750
13612TIP3    H162251   3.535   4.109  13.099  1.2023  0.7511 -0.3617
13612TIP3    H262252   3.525   4.068  13.244 -1.0392 -2.5201 -1.3254
13613TIP3   OH262253   4.629   3.707   3.483  0.6887 -0.6101 -0.3352
13613TIP3    H162254   4.672   3.684   3.566 -1.9582 -0.3003  1.2760
13613TIP3    H262255   4.555   3.647   3.478 -1.3176  1.7000 -0.5155
13614TIP3   OH262256   6.024   6.373  16.381 -0.4850 -0.0733  0.0852
13614TIP3    H162257   5.971   6.297  16.356  1.0994 -1.3096  0.3214
13614TIP3    H262258   6.115   6.343  16.372  0.2099  0.8667  2.8905
13615TIP3   OH262259   2.469   3.893  15.597  0.5122 -0.6616  0.4880
13615TIP3    H162260   2.537   3.956  15.573 -1.1598  1.3937  0.8268
13615TIP3    H262261   2.480   3.880  15.691  0.1115  0.1740  0.6692
13616TIP3   OH262262   2.084   0.219  15.407  0.1390  0.4009 -0.0311
13616TIP3    H162263   2.051   0.278  15.340 -0.0010  0.4661  0.0939
13616TIP3    H262264   2.105   0.276  15.481 -0.6692  0.2233  0.3493
13617TIP3   OH262265   6.292   4.959  12.583 -0.2275  0.5099  0.3916
13617TIP3    H162266   6.298   4.943  12.489  2.2255  0.4649  0.4796
13617TIP3    H262267   6.303   4.873  12.623 -4.0753  0.0592  0.7886
13618TIP3   OH262268   2.806   6.043  16.978  0.2053  0.3518  0.2469
13618TIP3    H162269   2.888   6.001  16.954  1.0021  1.4665  0.9208
13618TIP3    H262270   2.794   6.113  16.913 -0.2696  0.1318  0.0896
13619TIP3   OH262271   2.064   0.948   2.500 -0.0912 -0.0459 -0.6828
13619TIP3    H162272   2.047   0.854   2.495 -0.1938  0.0262 -2.1227
13619TIP3    H262273   1.985   0.985   2.540  0.2452 -0.6317  0.5616
13620TIP3   OH262274   1.990   6.561  14.584 -0.6013 -0.7390 -0.5475
13620TIP3    H162275   1.989   6.478  14.536 -2.6304 -1.3481  0.4273
13620TIP3    H262276   1.911   6.607  14.555 -0.8905 -0.3143  0.8371
13621TIP3   OH262277   3.579   6.118  13.198 -0.8596 -0.3227 -0.9363
13621TIP3    H162278   3.494   6.098  13.237 -0.4861 -1.2988 -0.5852
13621TIP3    H262279   3.636   6.046  13.226  0.7322  1.4934  0.8582
13622TIP3   OH262280   3.974   1.329  13.179 -0.0096 -0.0501  0.0384
13622TIP3    H162281   3.970   1.254  13.238  0.5723 -0.5513 -0.5369
13622TIP3    H262282   4.008   1.293  13.097 -1.8903  0.3699 -1.0079
13623TIP3   OH262283   5.029   1.527  15.853  0.0848 -0.2556  0.5879
13623TIP3    H162284   5.033   1.619  15.825  2.4629 -0.6656 -0.6319
13623TIP3    H262285   5.073   1.526  15.938  3.0675 -0.6593 -0.8352
13624TIP3   OH262286   0.427   3.047  10.412  0.3811 -0.2077 -0.2105
13624TIP3    H162287   0.517   3.071  10.435  0.2479 -0.9899  1.2440
13624TIP3    H262288   0.432   2.953  10.394 -0.5486 -0.8288  2.3863
13625TIP3   OH262289   0.468   5.060   6.032  0.2457  0.4658 -0.3741
13625TIP3    H162290   0.540   5.116   6.061  1.8020 -1.9350  0.6863
13625TIP3    H262291   0.510   4.979   6.004 -2.0735 -1.2852  0.8937
13626TIP3   OH262292   4.154   4.281  16.640  0.2083  0.7023  0.0480
13626TIP3    H162293   4.112   4.272  16.555 -0.2303  0.3734  0.2988
13626TIP3    H262294   4.118   4.362  16.676 -3.8486 -1.7389  2.2498
13627TIP3   OH262295   3.309   5.438  12.341 -0.5251 -0.6581 -0.0836
13627TIP3    H162296   3.287   5.517  12.391  2.9204  0.1664  0.3620
13627TIP3    H262297   3.275   5.455  12.253  0.3535  1.5073 -0.0643
13628TIP3   OH262298   6.679   5.805  14.042 -0.4776  0.3947  0.2733
13628TIP3    H162299   6.691   5.875  13.979 -0.2858 -0.4838 -0.6891
13628TIP3    H262300   6.751   5.744  14.025 -1.7382 -1.0156 -0.2536
13629TIP3   OH262301   4.269   0.417   1.874 -0.4472  0.1212 -0.1547
13629TIP3    H162302   4.291   0.487   1.814  1.1640  0.7506  1.0678
13629TIP3    H262303   4.354   0.385   1.905 -1.1783  0.2523  2.2233
13630TIP3   OH262304   4.475   4.672   5.253  0.2222  0.3014 -0.5619
13630TIP3    H162305   4.467   4.650   5.346 -0.6863  1.1176 -0.4178
13630TIP3    H262306   4.465   4.768   5.251  2.2832  0.5432 -1.3041
13631TIP3   OH262307   0.057   0.449  14.346  0.0666  0.1155 -0.0271
13631TIP3    H162308   0.050   0.354  14.337 -0.5118  0.1147  0.3691
13631TIP3    H262309  -0.033   0.478  14.361  0.4674  0.5359  1.7026
13632TIP3   OH262310   4.898   0.258   3.074  0.1136 -0.0639 -0.2467
13632TIP3    H162311   4.935   0.169   3.076  1.6742  0.5349 -0.8470
13632TIP3    H262312   4.847   0.260   2.992  2.1887  0.3430 -1.6010
13633TIP3   OH262313   6.520   1.007  14.406 -0.0755  0.6899  0.2150
13633TIP3    H162314   6.540   0.941  14.340 -1.7898 -0.6000  0.9013
13633TIP3    H262315   6.471   1.074  14.359  0.9023  1.0614 -0.3063
13634TIP3   OH262316   4.489   5.156  15.436  0.1021  0.7787  0.4010
13634TIP3    H162317   4.405   5.111  15.430 -0.1514  1.2929 -0.0357
13634TIP3    H262318   4.478   5.220  15.506  0.3025  0.4873  0.6976
13635TIP3   OH262319   3.756   4.825  15.670 -0.3042  0.3653  0.4486
13635TIP3    H162320   3.704   4.744  15.669 -0.8161  0.6457 -1.9039
13635TIP3    H262321   3.841   4.798  15.704  0.2211 -1.7127 -2.1237
13636TIP3   OH262322   3.505   3.148  14.918 -0.0127 -0.2173 -0.6069
13636TIP3    H162323   3.499   3.226  14.863 -0.3840 -0.7985 -1.4233
13636TIP3    H262324   3.553   3.085  14.865  1.2376 -0.2025  0.4673
13637TIP3   OH262325   4.897   4.657  14.566 -1.1402 -0.4526 -0.1755
13637TIP3    H162326   4.901   4.691  14.477  2.0133  3.1610  1.0491
13637TIP3    H262327   4.829   4.710  14.609 -1.5759 -1.1059 -0.0474
13638TIP3   OH262328   5.311   1.606   1.615  0.1521 -0.2708 -0.2784
13638TIP3    H162329   5.325   1.601   1.521  1.2962  3.5679 -0.4898
13638TIP3    H262330   5.389   1.565   1.653 -0.1064 -1.4432 -0.9770
13639TIP3   OH262331   5.168   5.073   0.291  0.2809 -0.0548  0.1601
13639TIP3    H162332   5.111   5.129   0.344  0.7109 -1.8102  2.6917
13639TIP3    H262333   5.253   5.076   0.336  0.4953 -2.1369 -0.0024
13640TIP3   OH262334   6.584   3.968   2.548  0.5405 -0.1392 -0.1912
13640TIP3    H162335   6.586   4.063   2.538  1.0953 -0.2019 -0.7678
13640TIP3    H262336   6.675   3.941   2.531  0.1202 -0.8900 -1.3764
13641TIP3   OH262337   4.075   5.225   4.892 -0.0754 -0.1376 -0.2456
13641TIP3    H162338   4.119   5.310   4.905  0.0903 -0.1464 -0.7037
13641TIP3    H262339   4.134   5.162   4.932  1.1657 -0.3327 -2.2128
13642TIP3   OH262340   6.433   1.889  16.960  0.1543 -0.1769  0.5604
13642TIP3    H162341   6.348   1.851  16.937 -1.2179  2.0035  1.6824
13642TIP3    H262342   6.483   1.885  16.878 -1.7496  0.2668 -0.7088
13643TIP3   OH262343   2.513   6.265   5.520 -0.4945 -0.0395  0.6266
13643TIP3    H162344   2.498   6.180   5.478 -0.1154 -1.1377  2.5733
13643TIP3    H262345   2.427   6.291   5.554 -0.3943 -0.2258  1.0302
13644TIP3   OH262346   5.947   2.850   4.750 -0.3031 -0.2029 -0.3893
13644TIP3    H162347   6.035   2.826   4.780 -0.0309 -0.7841 -1.6105
13644TIP3    H262348   5.916   2.912   4.816  1.6246  1.2092 -0.7007
13645TIP3   OH262349   2.798   2.341  16.642 -0.2236 -0.6027 -0.1885
13645TIP3    H162350   2.826   2.274  16.705 -1.6222 -2.6057 -1.5989
13645TIP3    H262351   2.728   2.300  16.592 -3.0161  2.7761  0.5485
13646TIP3   OH262352   1.875   1.602  14.371 -0.1402 -0.1968 -0.4960
13646TIP3    H162353   1.931   1.526  14.388  0.2790 -0.6093 -3.3368
13646TIP3    H262354   1.936   1.671  14.345 -0.7550  0.1892 -0.9306
13647TIP3   OH262355   2.189   0.719  14.791  0.5284  0.0102  0.2741
13647TIP3    H162356   2.191   0.800  14.841  0.3009 -0.1235  0.5059
13647TIP3    H262357   2.158   0.744  14.704 -2.1447 -0.1947  1.0786
13648TIP3   OH262358   0.956   6.194  16.086 -0.1849 -0.3437 -0.0276
13648TIP3    H162359   0.935   6.144  16.165  1.0426  0.8919  1.1311
13648TIP3    H262360   0.899   6.157  16.019 -0.7204 -1.9485  1.2388
13649TIP3   OH262361   3.063   1.020  14.978  0.3663 -0.0875  0.3064
13649TIP3    H162362   3.091   1.038  14.888 -1.5484 -1.9114 -0.7262
13649TIP3    H262363   3.055   1.107  15.018  3.0195  0.7000 -0.6501
13650TIP3   OH262364   3.597   4.859   1.953 -0.8333  0.1986  0.1734
13650TIP3    H162365   3.630   4.930   1.898  0.1943 -0.0693  0.4172
13650TIP3    H262366   3.541   4.807   1.896 -0.9840  0.7758 -0.2086
13651TIP3   OH262367   1.036   0.047  15.124  0.3690  0.2440 -0.0208
13651TIP3    H162368   0.955   0.084  15.089  0.1351  0.3916  0.6595
13651TIP3    H262369   1.105   0.083  15.068 -0.1506 -1.3267 -1.7817
13652TIP3   OH262370   1.931   2.540   2.319  0.0571 -0.3054  0.3209
13652TIP3    H162371   1.904   2.487   2.394 -0.5901 -0.8876 -0.2965
13652TIP3    H262372   2.011   2.497   2.287  0.2028 -0.1962  0.5434
13653TIP3   OH262373   1.684   5.567   4.758  0.2206  0.6259  0.3828
13653TIP3    H162374   1.680   5.552   4.663 -1.6888 -1.3695  0.7273
13653TIP3    H262375   1.764   5.620   4.769 -0.3094  2.2872 -2.4704
13654TIP3   OH262376   3.767   0.731  15.179  0.1286 -0.0034  0.5455
13654TIP3    H162377   3.772   0.697  15.269 -0.8279  1.4884  1.1971
13654TIP3    H262378   3.680   0.771  15.174  0.1693 -0.0678 -1.0655
13655TIP3   OH262379   6.497   4.859  14.990 -0.1656 -0.1684  0.5171
13655TIP3    H162380   6.543   4.783  15.026 -1.1614 -0.8475  0.3867
13655TIP3    H262381   6.532   4.868  14.901  0.2449 -0.2173  0.6694
13656TIP3   OH262382   3.204   0.553  15.099 -0.1050  0.3745  0.1815
13656TIP3    H162383   3.186   0.635  15.053  0.7472  0.1783 -0.5428
13656TIP3    H262384   3.239   0.580  15.183 -0.8203  0.7465  0.3646
13657TIP3   OH262385   0.474   3.836  13.391  0.4151  0.6357 -0.2340
13657TIP3    H162386   0.537   3.830  13.462 -0.4934  0.5153  0.5781
13657TIP3    H262387   0.436   3.748  13.385 -0.1814  0.8858 -0.2327
13658TIP3   OH262388   1.173   2.050  15.372 -0.7638  1.0041  0.5958
13658TIP3    H162389   1.093   2.084  15.331 -1.6773 -1.4556  0.1662
13658TIP3    H262390   1.179   2.098  15.455 -2.2583  1.7980  0.2942
13659TIP3   OH262391   0.969   1.383   3.841 -0.1932 -0.4653  0.1943
13659TIP3    H162392   0.990   1.476   3.838  0.9351 -0.7325 -1.0861
13659TIP3    H262393   1.054   1.339   3.835 -0.5925 -1.5905  2.0905
13660TIP3   OH262394   1.186   5.564   3.102 -0.2299 -0.0774  0.1993
13660TIP3    H162395   1.142   5.630   3.156  0.8815  0.6295  0.2699
13660TIP3    H262396   1.170   5.481   3.147 -1.3826  0.1658  0.2772
13661TIP3   OH262397   4.421   5.466  15.341 -0.2745  0.4851 -0.3625
13661TIP3    H162398   4.376   5.441  15.422  1.3769 -1.8153 -0.0532
13661TIP3    H262399   4.462   5.385  15.310  2.2395  2.0508 -1.4832
13662TIP3   OH262400   6.571   0.604  16.717 -0.0382  0.0484 -0.3299
13662TIP3    H162401   6.559   0.698  16.704  0.7472  0.1262 -0.5476
13662TIP3    H262402   6.492   0.575  16.763 -1.5553  0.3239 -2.5990
13663TIP3   OH262403   6.023   5.737  14.625 -0.0733  0.2375 -0.2216
13663TIP3    H162404   6.101   5.682  14.633  0.3300  1.0640  3.0231
13663TIP3    H262405   6.054   5.817  14.582  0.9000  0.5239  0.9614
13664TIP3   OH262406   4.741   5.297   3.176 -0.2697 -0.4080  0.5747
13664TIP3    H162407   4.780   5.319   3.092 -1.4983  1.1354  0.3618
13664TIP3    H262408   4.668   5.239   3.154  0.7976 -1.8790  0.8131
13665TIP3   OH262409   4.296   3.761  14.290  0.6174  0.7261  0.1016
13665TIP3    H162410   4.324   3.677  14.325 -1.4697 -0.2308 -0.3595
13665TIP3    H262411   4.306   3.822  14.363  1.3246 -0.1003  0.7081
13666TIP3   OH262412   2.131   3.346   3.788 -0.1681  0.4698  0.1523
13666TIP3    H162413   2.076   3.372   3.862  0.3229 -1.1594  1.1494
13666TIP3    H262414   2.167   3.428   3.755 -0.7203  1.2846  1.4642
13667TIP3   OH262415   2.459   4.458  12.857 -0.0931 -0.4023  0.8054
13667TIP3    H162416   2.488   4.428  12.771 -0.4194  2.0032 -0.2247
13667TIP3    H262417   2.539   4.482  12.903 -0.0466  0.5789  0.2349
13668TIP3   OH262418   2.400   0.348  15.219  0.2735 -0.2884 -0.1735
13668TIP3    H162419   2.406   0.338  15.314  0.7108 -0.8597 -0.2581
13668TIP3    H262420   2.357   0.268  15.189  1.6602 -0.9085 -0.6150
13669TIP3   OH262421   2.539   3.931  12.681 -0.7352  0.5403  0.1504
13669TIP3    H162422   2.547   3.949  12.774 -1.7429  1.1409  0.1340
13669TIP3    H262423   2.521   4.016  12.641 -1.6573  0.0936 -0.4214
13670TIP3   OH262424   6.709   4.595   0.794 -0.5784  0.1783 -0.4096
13670TIP3    H162425   6.782   4.646   0.757 -0.4868  1.3040  1.2418
13670TIP3    H262426   6.721   4.508   0.757 -0.4342  1.1552 -2.9360
13671TIP3   OH262427   2.823   2.884   1.521  0.4863 -0.5636  0.6899
13671TIP3    H162428   2.898   2.834   1.553  0.3734 -0.4906  1.0760
13671TIP3    H262429   2.861   2.949   1.463  1.0569  1.1970  2.8708
13672TIP3   OH262430   3.413   2.094  15.121 -0.6369  0.1114 -0.0479
13672TIP3    H162431   3.393   2.077  15.028 -1.5839  1.8002 -0.1943
13672TIP3    H262432   3.500   2.132  15.119 -0.7368  0.3355 -0.2733
13673TIP3   OH262433   1.841   0.096  11.311 -1.1309  0.0051 -0.4805
13673TIP3    H162434   1.793   0.115  11.392 -2.1037 -0.6700 -0.8717
13673TIP3    H262435   1.777   0.049  11.257 -0.2519 -0.2220 -1.3342
13674TIP3   OH262436   1.458   5.278  12.773 -0.2852 -0.2965 -0.7053
13674TIP3    H162437   1.477   5.366  12.741 -0.0267 -0.4168 -0.8863
13674TIP3    H262438   1.363   5.278  12.786 -0.4078 -0.2584 -1.5352
13675TIP3   OH262439   1.889   2.717   0.347  0.7031 -0.2887 -0.3854
13675TIP3    H162440   1.955   2.752   0.407  0.0770  1.6721 -0.7580
13675TIP3    H262441   1.938   2.660   0.288  1.7063 -0.4562  0.5732
13676TIP3   OH262442   4.200   1.860   0.651  0.1654 -0.4791 -0.1831
13676TIP3    H162443   4.228   1.867   0.560  1.3700  2.6996  0.3103
13676TIP3    H262444   4.281   1.842   0.699 -0.4740 -2.2353  0.3315
13677TIP3   OH262445   6.029   5.326  10.952  0.2393  0.7939  0.3494
13677TIP3    H162446   6.095   5.313  10.885  1.7861  2.5821  1.4129
13677TIP3    H262447   5.963   5.259  10.935  0.8790  0.7758 -2.5188
13678TIP3   OH262448   0.624   1.754   0.114 -0.4766  0.0479 -0.0031
13678TIP3    H162449   0.530   1.743   0.124 -0.3364 -0.8206  0.4393
13678TIP3    H262450   0.634   1.796   0.028 -1.2608  0.1366 -0.0555
13679TIP3   OH262451   5.079   2.553   0.739 -0.1635 -0.3705  0.1234
13679TIP3    H162452   5.048   2.539   0.829 -1.2862  0.3452 -0.1280
13679TIP3    H262453   5.133   2.477   0.720  0.3450 -0.3980  1.5107
13680TIP3   OH262454   1.211   1.689  14.659  0.0314  0.4803  0.4155
13680TIP3    H162455   1.272   1.744  14.609 -0.2023 -0.0510 -0.4902
13680TIP3    H262456   1.161   1.750  14.712 -0.2234  1.1599 -0.5725
13681TIP3   OH262457   4.134   2.005   0.905 -0.6265 -0.0312 -0.2354
13681TIP3    H162458   4.177   2.087   0.929  0.5656 -0.4600 -0.7936
13681TIP3    H262459   4.191   1.967   0.838 -1.1398 -1.3244  0.0290
13682TIP3   OH262460   0.319   3.047  11.450  0.4302  0.5137  0.2569
13682TIP3    H162461   0.319   3.132  11.404 -1.0057  0.9066  0.9092
13682TIP3    H262462   0.309   2.982  11.380  0.8785  0.9272 -0.1989
13683TIP3   OH262463   5.702   3.452  12.250 -0.0550  0.6045 -0.5063
13683TIP3    H162464   5.692   3.547  12.251  1.7106  0.8321  1.4751
13683TIP3    H262465   5.752   3.434  12.171  1.0392  1.5344 -0.0552
13684TIP3   OH262466   6.111   4.441   4.451  0.5068 -0.0788 -0.5779
13684TIP3    H162467   6.110   4.533   4.422  0.8013  0.1242  0.0276
13684TIP3    H262468   6.090   4.391   4.373 -2.0792  0.6209 -0.4162
13685TIP3   OH262469   6.295   0.539  14.547  0.0625  0.0806 -0.0274
13685TIP3    H162470   6.250   0.512  14.466 -1.1265  2.4434 -0.2322
13685TIP3    H262471   6.265   0.477  14.613 -0.8068 -0.4679 -0.9084
13686TIP3   OH262472   6.481   3.798   5.410 -0.2754  0.5557 -0.7921
13686TIP3    H162473   6.504   3.812   5.318 -1.2985 -2.2006 -1.5707
13686TIP3    H262474   6.393   3.761   5.407  0.6470 -2.0565  1.0600
13687TIP3   OH262475   3.823   3.610   5.870  0.6248 -0.4562 -0.4042
13687TIP3    H162476   3.859   3.660   5.943  2.9214 -2.2140 -0.2477
13687TIP3    H262477   3.886   3.540   5.855 -0.8309 -1.3736 -2.7467
13688TIP3   OH262478   2.196   1.394  15.986  0.0270 -0.2450  0.5741
13688TIP3    H162479   2.248   1.474  15.977 -1.3151  0.8179  1.7998
13688TIP3    H262480   2.250   1.336  16.040  0.4156  0.4108  0.9057
13689TIP3   OH262481   4.189   3.563   2.786 -0.2303 -0.0382 -0.1884
13689TIP3    H162482   4.235   3.608   2.857 -0.1483  0.6354 -0.6534
13689TIP3    H262483   4.228   3.476   2.783 -0.2138 -0.0670  0.5679
13690TIP3   OH262484   2.837   5.205   2.782 -0.2204 -0.0592  0.3090
13690TIP3    H162485   2.913   5.154   2.809 -0.2994 -0.1344  0.3907
13690TIP3    H262486   2.762   5.153   2.811 -0.3069 -0.1044  0.0096
13691TIP3   OH262487   1.020   4.594   2.880  0.2090  0.6262  0.4027
13691TIP3    H162488   1.010   4.529   2.949  0.7930 -1.8460 -1.6944
13691TIP3    H262489   0.932   4.602   2.842  0.3757  0.1799 -0.0801
13692TIP3   OH262490   4.451   4.178   5.345 -0.1169 -0.0970  0.3296
13692TIP3    H162491   4.440   4.090   5.381 -0.3841 -0.5813 -0.9078
13692TIP3    H262492   4.543   4.199   5.362  0.1799 -0.9728 -0.1429
13693TIP3   OH262493   5.354   0.967   0.512  0.5122  0.5046  0.0788
13693TIP3    H162494   5.358   1.052   0.468 -0.7675  0.4797 -0.1277
13693TIP3    H262495   5.444   0.950   0.540  1.2994  0.7381 -2.1292
13694TIP3   OH262496   2.245   1.574   1.092  0.7786 -0.0379 -0.4687
13694TIP3    H162497   2.193   1.618   1.025  0.2286  0.1780  0.0893
13694TIP3    H262498   2.304   1.517   1.043 -0.8339 -1.2426 -1.0843
13695TIP3   OH262499   0.590   3.846   3.695  0.1172  0.0856  0.6944
13695TIP3    H162500   0.681   3.818   3.708  0.2972  0.6487  0.6454
13695TIP3    H262501   0.546   3.819   3.775  0.0954 -1.1133  0.3033
13696TIP3   OH262502   6.459   0.959  11.182  0.1981 -0.5498  0.2059
13696TIP3    H162503   6.515   0.886  11.208  0.5991  0.4060  2.1670
13696TIP3    H262504   6.393   0.965  11.251  0.6407  1.4228  0.5111
13697TIP3   OH262505   0.372   6.118  13.033 -0.1196 -0.0929 -0.0725
13697TIP3    H162506   0.359   6.066  12.953  0.4072 -1.5785  0.7698
13697TIP3    H262507   0.319   6.197  13.019 -0.8678 -0.7966 -1.4509
13698TIP3   OH262508   0.266   4.348   5.782 -0.1189 -0.0836 -0.6997
13698TIP3    H162509   0.333   4.284   5.807 -1.0307 -1.2186 -1.1042
13698TIP3    H262510   0.302   4.432   5.811  0.3915 -0.9308  1.3307
13699TIP3   OH262511   0.709   4.848   1.572 -0.0689  0.0431 -0.6557
13699TIP3    H162512   0.648   4.794   1.522 -1.5271  0.8472  0.2092
13699TIP3    H262513   0.717   4.804   1.656  1.6867 -0.8148 -1.2023
13700TIP3   OH262514   3.055   4.069  11.687  0.0646 -0.1584  0.3848
13700TIP3    H162515   2.999   4.119  11.627  0.9873 -0.7936 -1.0745
13700TIP3    H262516   3.144   4.089  11.659  0.5741  0.2616  2.2023
13701TIP3   OH262517   1.056   1.598   1.085 -0.1127 -0.4905  0.6462
13701TIP3    H162518   1.060   1.692   1.103 -0.2535 -0.6593  1.6363
13701TIP3    H262519   1.090   1.589   0.996  0.9946  0.3756  0.9550
13702TIP3   OH262520   1.344   1.976  15.962 -0.1847 -0.1186  0.2034
13702TIP3    H162521   1.405   1.903  15.957  1.0491  0.9310 -0.4974
13702TIP3    H262522   1.398   2.051  15.986 -1.1289  0.9078 -0.7734
13703TIP3   OH262523   5.721   5.943  14.266 -0.0260 -0.4763 -0.2898
13703TIP3    H162524   5.709   6.020  14.210 -1.7131 -0.4595  0.0337
13703TIP3    H262525   5.695   5.869  14.212  0.3555 -0.6908 -0.1860
13704TIP3   OH262526   1.640   5.245  11.989 -0.1783 -0.4359 -1.0088
13704TIP3    H162527   1.555   5.288  12.002 -0.5045 -0.6624 -2.2920
13704TIP3    H262528   1.620   5.151  11.996  0.1770 -0.4643 -0.2261
13705TIP3   OH262529   4.543   2.629   2.417 -0.4654 -0.1916 -0.6014
13705TIP3    H162530   4.566   2.628   2.510 -1.5334 -0.5237 -0.3327
13705TIP3    H262531   4.626   2.648   2.372  0.0333  0.1069  0.4184
13706TIP3   OH262532   6.078   0.120  13.352 -0.3290 -0.0646 -0.2327
13706TIP3    H162533   6.057   0.075  13.270  1.9180  1.2284 -1.6307
13706TIP3    H262534   6.114   0.052  13.409 -0.1799 -0.6402 -1.0031
13707TIP3   OH262535   5.637   0.701   5.914 -0.2085  0.2034  0.1648
13707TIP3    H162536   5.663   0.689   6.005  0.1027  1.0258  0.1875
13707TIP3    H262537   5.642   0.795   5.900  0.6086  0.0065 -0.9619
13708TIP3   OH262538   1.386   4.680  15.648 -0.7718  0.0117 -0.2456
13708TIP3    H162539   1.346   4.654  15.565 -0.9120  0.7517 -0.4142
13708TIP3    H262540   1.464   4.730  15.622 -1.0676  0.6383  0.0557
13709TIP3   OH262541   3.522   1.697  15.046 -0.4406 -0.0121 -0.0360
13709TIP3    H162542   3.567   1.781  15.056 -1.6941  0.6018  0.8418
13709TIP3    H262543   3.500   1.692  14.953  1.7970 -0.5542 -0.5810
13710TIP3   OH262544   5.218   1.271  11.892 -0.5720  0.1506 -0.4971
13710TIP3    H162545   5.235   1.230  11.977  0.6908 -0.1808 -0.8896
13710TIP3    H262546   5.241   1.204  11.828  0.2633  1.0173 -1.1343
13711TIP3   OH262547   5.132   0.077  12.862  0.6189  0.4087 -0.3241
13711TIP3    H162548   5.186   0.107  12.936  1.1786  2.1572 -1.3741
13711TIP3    H262549   5.049   0.050  12.903  0.4047  2.6069  0.8721
13712TIP3   OH262550   5.867   1.195   2.179 -0.0059 -0.5377  0.3146
13712TIP3    H162551   5.921   1.246   2.119 -0.9550  1.4302  1.0806
13712TIP3    H262552   5.778   1.202   2.144 -0.8333  1.8228  2.5802
13713TIP3   OH262553   3.357   1.397  13.456 -0.2926 -0.2588 -0.1827
13713TIP3    H162554   3.331   1.485  13.484 -2.5984 -0.7193 -0.6069
13713TIP3    H262555   3.417   1.411  13.383  0.0561  0.9542  0.3141
13714TIP3   OH262556   0.427   5.660   2.078 -0.0022  0.1022  0.6325
13714TIP3    H162557   0.337   5.693   2.073  0.1889  0.5502 -0.0763
13714TIP3    H262558   0.421   5.568   2.054 -0.2498  0.1909  0.3407
13715TIP3   OH262559   6.700   5.231   0.607 -0.6243 -0.0697 -0.0971
13715TIP3    H162560   6.640   5.168   0.648 -0.1016 -1.2250 -1.0415
13715TIP3    H262561   6.679   5.228   0.514  1.0145 -0.6804 -0.4955
13716TIP3   OH262562   5.761   1.861  11.091  0.7746  0.4485 -0.1184
13716TIP3    H162563   5.686   1.811  11.057  0.3700  0.3041  0.9684
13716TIP3    H262564   5.771   1.932  11.028  1.1478 -0.7788 -1.5195
13717TIP3   OH262565   3.753   2.147   4.936  0.0202 -0.3924 -0.2144
13717TIP3    H162566   3.709   2.071   4.898 -1.2305  0.3682 -0.3685
13717TIP3    H262567   3.816   2.173   4.869 -0.2919 -0.6639 -0.6263
13718TIP3   OH262568   2.621   1.297  14.859  0.1643  0.2614 -0.0862
13718TIP3    H162569   2.588   1.207  14.848 -1.6114  0.9981 -1.1828
13718TIP3    H262570   2.668   1.295  14.942 -1.5157 -1.2119  0.8996
13719TIP3   OH262571   3.315   2.472  14.119  0.5417 -0.2639 -0.6713
13719TIP3    H162572   3.265   2.479  14.039 -2.1250 -1.8534  0.7236
13719TIP3    H262573   3.250   2.455  14.187  2.9244 -1.8578  1.3924
13720TIP3   OH262574   0.024   6.547   5.257  0.0236  0.1162 -0.1307
13720TIP3    H162575   0.070   6.540   5.173  0.3758  1.0397 -0.0165
13720TIP3    H262576   0.086   6.590   5.315  0.0376 -1.1057  0.8162
13721TIP3   OH262577   6.577   2.361   0.770 -1.1574  0.5103 -0.3863
13721TIP3    H162578   6.620   2.444   0.789 -0.5428  0.6656 -2.2232
13721TIP3    H262579   6.548   2.329   0.855  1.9773  0.7388  0.8925
13722TIP3   OH262580   1.435   5.629  13.874 -0.0056 -0.0608 -0.2317
13722TIP3    H162581   1.439   5.570  13.949  0.1336  0.6524  0.3293
13722TIP3    H262582   1.452   5.715  13.910 -2.1267  0.6166 -0.7182
13723TIP3   OH262583   3.628   2.011   3.239  0.0996 -0.4140  0.1822
13723TIP3    H162584   3.673   1.987   3.158  0.1563 -1.4767  0.5225
13723TIP3    H262585   3.537   2.024   3.212 -0.0696 -1.6945  0.1062
13724TIP3   OH262586   0.063   0.927  14.808 -0.2926 -0.2763 -0.2669
13724TIP3    H162587   0.100   0.927  14.720  1.5625  0.1741  0.4621
13724TIP3    H262588  -0.030   0.910  14.795 -0.4498  1.7295 -2.4718
13725TIP3   OH262589   1.196   5.668  15.846 -0.2880  0.2270  0.3065
13725TIP3    H162590   1.121   5.666  15.905 -0.5096  0.3561  0.0295
13725TIP3    H262591   1.233   5.755  15.856 -0.0215  0.0798  0.6303
13726TIP3   OH262592   5.909   3.202  13.157 -0.3327 -0.3012 -0.1579
13726TIP3    H162593   5.869   3.116  13.160 -0.4219 -0.2584 -0.1141
13726TIP3    H262594   5.974   3.202  13.228 -0.3004 -0.3477 -0.1868
13727TIP3   OH262595   4.139   4.141  13.242 -0.4345  0.2712 -0.0095
13727TIP3    H162596   4.099   4.196  13.309 -0.3081 -0.8524  1.0317
13727TIP3    H262597   4.101   4.171  13.159 -1.0432  1.2868  0.6229
13728TIP3   OH262598   1.436   0.507   1.310  0.6314 -0.5453 -0.3058
13728TIP3    H162599   1.470   0.424   1.277  0.4508 -0.7423 -0.0067
13728TIP3    H262600   1.460   0.572   1.243  1.9957 -0.5918  0.1199
13729TIP3   OH262601   1.000   2.231   0.908 -0.6263  0.0593 -0.2014
13729TIP3    H162602   1.046   2.296   0.961 -2.1984 -0.3038  1.7547
13729TIP3    H262603   1.061   2.207   0.839  0.5119  2.5587 -0.1333
13730TIP3   OH262604   0.450   6.667  13.433 -0.3376  0.5678  0.7629
13730TIP3    H162605   0.445   6.616  13.352 -1.4189 -0.6849  1.5657
13730TIP3    H262606   0.393   6.742  13.418 -3.5207 -1.4823  1.5074
13731TIP3   OH262607   5.321   0.640  15.812  0.4150 -0.2380  0.3621
13731TIP3    H162608   5.335   0.588  15.892  0.1081  0.7179  1.0611
13731TIP3    H262609   5.374   0.719  15.827  0.7918 -0.2924 -0.6366
13732TIP3   OH262610   4.360   2.944  12.758  0.1313  0.0452  0.3732
13732TIP3    H162611   4.317   2.928  12.673 -0.0374 -0.8674  0.6229
13732TIP3    H262612   4.445   2.902  12.750 -0.5726 -1.6374  1.2721
13733TIP3   OH262613   3.300   4.745   5.474 -0.5959  0.8805  0.6277
13733TIP3    H162614   3.312   4.755   5.379  0.3225 -0.0592  0.6289
13733TIP3    H262615   3.261   4.828   5.502  0.2416  1.6374 -0.3766
13734TIP3   OH262616   3.823   2.460  13.377  0.2220  0.2750  0.0960
13734TIP3    H162617   3.848   2.454  13.285  1.3168  1.5437  0.2789
13734TIP3    H262618   3.740   2.507  13.376  0.5196  0.8172 -0.2404
13735TIP3   OH262619   2.560   0.601  13.563 -0.5013  0.2825 -0.1950
13735TIP3    H162620   2.611   0.576  13.486 -0.6216  2.2848 -0.9737
13735TIP3    H262621   2.493   0.660  13.530 -0.2430  1.6111  1.4794
13736TIP3   OH262622   6.446   3.437   6.193 -0.3032  0.6417 -0.0307
13736TIP3    H162623   6.355   3.420   6.217  0.3223 -1.3768  1.1583
13736TIP3    H262624   6.480   3.352   6.166  1.4927  1.1456  0.4902
13737TIP3   OH262625   5.099   2.686  12.231  0.1406 -0.1536 -0.4602
13737TIP3    H162626   5.092   2.671  12.137 -0.1549 -1.2850 -0.2749
13737TIP3    H262627   5.047   2.765  12.247 -1.4125 -1.0118 -0.9980
13738TIP3   OH262628   0.551   3.217   1.815 -0.0717 -0.3118  0.2578
13738TIP3    H162629   0.572   3.269   1.737 -0.4158 -1.0470 -0.3425
13738TIP3    H262630   0.479   3.160   1.787  0.9273 -1.7904  0.5938
13739TIP3   OH262631   0.597   3.518  16.178  0.0617 -0.0190  0.1102
13739TIP3    H162632   0.577   3.610  16.164  1.5810  0.3411  0.1301
13739TIP3    H262633   0.513   3.474  16.172 -1.3471  1.7720  3.7494
13740TIP3   OH262634   5.660   3.921  11.943 -0.2806  0.6089  0.3887
13740TIP3    H162635   5.703   3.856  11.999  1.2282  0.9381 -0.3368
13740TIP3    H262636   5.696   3.905  11.856 -3.0076 -0.2897 -0.6950
13741TIP3   OH262637   4.328   6.020  11.159 -0.2860  0.7343 -0.3055
13741TIP3    H162638   4.385   5.964  11.107  0.5560  1.2426  0.0340
13741TIP3    H262639   4.254   5.965  11.183  0.9366 -0.5248  0.7654
13742TIP3   OH262640   1.151   5.581   2.824 -0.2177  0.3557  0.0510
13742TIP3    H162641   1.181   5.573   2.915 -0.4747 -2.0481 -0.0015
13742TIP3    H262642   1.137   5.491   2.796  2.1221  0.8507 -3.1964
13743TIP3   OH262643   2.802   0.970   2.394  0.3475 -0.0915  0.1242
13743TIP3    H162644   2.891   0.936   2.408  0.5457  0.1928 -0.4104
13743TIP3    H262645   2.778   0.937   2.307  1.2755  2.6511 -1.2663
13744TIP3   OH262646   3.077   2.476  16.543  0.0189 -0.3734 -0.2925
13744TIP3    H162647   3.009   2.431  16.593 -0.4649  0.2922 -0.3400
13744TIP3    H262648   3.157   2.465  16.596 -0.3371 -0.2837  0.2751
13745TIP3   OH262649   2.540   3.408   0.288  0.1666  0.1778 -0.2364
13745TIP3    H162650   2.594   3.482   0.316 -0.7463  1.0179 -0.6126
13745TIP3    H262651   2.459   3.449   0.258  0.1897 -0.8720 -1.8268
13746TIP3   OH262652   3.670   4.967   3.484 -0.0186  0.5190  0.3033
13746TIP3    H162653   3.719   4.908   3.540 -1.5935 -1.5747 -0.4119
13746TIP3    H262654   3.737   5.017   3.437  1.4046 -1.2805  0.3321
13747TIP3   OH262655   1.688   5.744  15.928  0.7790  0.2155  0.3157
13747TIP3    H162656   1.780   5.741  15.901  0.5040 -0.5155 -0.5928
13747TIP3    H262657   1.670   5.837  15.943  2.5533  0.1663  3.7501
13748TIP3   OH262658   5.650   6.634   4.577  0.4555  0.9431  0.2458
13748TIP3    H162659   5.582   6.637   4.644 -1.1432 -0.4724 -1.1919
13748TIP3    H262660   5.704   6.711   4.594  2.1543 -0.9466  5.0637
13749TIP3   OH262661   1.063   5.242  17.074  0.4090 -0.1031  0.3987
13749TIP3    H162662   1.114   5.294  17.136 -1.5040 -1.0438  2.9581
13749TIP3    H262663   1.091   5.152  17.089  0.2272 -0.3007 -0.4182
13750TIP3   OH262664   3.061   6.030   0.707  0.0919 -0.1130  0.3838
13750TIP3    H162665   3.152   6.026   0.677 -0.5829 -3.1476 -1.6815
13750TIP3    H262666   3.057   5.965   0.778 -0.8178 -1.5048 -0.8833
13751TIP3   OH262667   4.068   0.021  14.883  0.7941 -0.1541  0.4728
13751TIP3    H162668   4.042  -0.057  14.932  1.0104 -0.7163 -0.2851
13751TIP3    H262669   3.989   0.075  14.881  0.5493 -0.4973  0.7297
13752TIP3   OH262670   6.765   0.783   0.318 -0.3227  0.3323  0.5362
13752TIP3    H162671   6.833   0.848   0.298 -1.1900  1.3069  0.6916
13752TIP3    H262672   6.702   0.791   0.247 -0.8786  0.2722  1.0115
13753TIP3   OH262673   0.239   6.213   2.080 -0.2354  0.2589  0.4305
13753TIP3    H162674   0.301   6.255   2.141 -0.0373 -2.0152  1.9584
13753TIP3    H262675   0.218   6.129   2.123 -0.1770 -1.4397 -2.6115
13754TIP3   OH262676   2.667   3.175   0.332 -0.1287 -0.0132 -0.4367
13754TIP3    H162677   2.719   3.184   0.252 -1.6098 -1.0161 -1.5547
13754TIP3    H262678   2.609   3.251   0.332  0.6864  0.6469  0.3717
13755TIP3   OH262679   5.838   2.663  16.592 -0.0426 -0.4200 -0.4306
13755TIP3    H162680   5.854   2.740  16.647  0.8522  0.7859 -2.2710
13755TIP3    H262681   5.771   2.692  16.530 -1.2416 -1.8459  0.1489
13756TIP3   OH262682   5.581   4.516  16.716 -0.5662 -0.2204 -0.5941
13756TIP3    H162683   5.529   4.578  16.665  1.2656  1.6469 -0.3180
13756TIP3    H262684   5.622   4.570  16.784  1.7331 -1.5809 -0.8147
13757TIP3   OH262685   2.563   5.042  15.206  0.1301 -0.0767 -0.0071
13757TIP3    H162686   2.654   5.016  15.216 -0.6773 -4.1164 -1.5331
13757TIP3    H262687   2.521   5.016  15.288 -0.2754 -1.6708 -0.6956
13758TIP3   OH262688   0.258   3.557  14.129  0.1243  0.0302 -0.4918
13758TIP3    H162689   0.324   3.539  14.195 -1.9035 -0.4418  1.5226
13758TIP3    H262690   0.261   3.481  14.071  1.4060  0.0913 -0.5280
13759TIP3   OH262691   5.435   0.545   3.480  0.8459  0.0887 -0.2249
13759TIP3    H162692   5.340   0.537   3.467  0.9880 -0.7773 -0.7800
13759TIP3    H262693   5.470   0.558   3.392  1.2729  0.1275 -0.0474
13760TIP3   OH262694   5.332   6.445   5.832 -0.5269 -0.2926 -0.1563
13760TIP3    H162695   5.331   6.385   5.758 -3.0216 -1.5187  0.7495
13760TIP3    H262696   5.370   6.395   5.903 -0.4620  0.0133  0.0254
13761TIP3   OH262697   2.451   5.939   4.595  0.1971  0.3199 -0.0601
13761TIP3    H162698   2.442   5.860   4.648  1.3851 -0.2530 -0.6699
13761TIP3    H262699   2.413   6.008   4.649  1.1358 -0.2797  1.4545
13762TIP3   OH262700   4.318   5.095   1.547 -0.0153  0.1448 -0.0623
13762TIP3    H162701   4.315   5.004   1.577 -1.1980  0.3637  0.5310
13762TIP3    H262702   4.411   5.118   1.549  0.2531 -0.9186  0.1816
13763TIP3   OH262703   4.905   3.470   3.481 -0.1226  0.0711 -0.2343
13763TIP3    H162704   4.869   3.487   3.568 -1.2989 -0.0979 -0.6697
13763TIP3    H262705   4.881   3.548   3.430  2.5355  1.2494  0.1308
13764TIP3   OH262706   0.294   1.033   3.438 -0.1131 -0.1808  0.0809
13764TIP3    H162707   0.324   0.943   3.450  0.6608  0.2670  1.8157
13764TIP3    H262708   0.294   1.046   3.343  2.3235 -1.1919 -0.1294
13765TIP3   OH262709   2.985   5.749   4.931  0.2276  0.2020  0.0479
13765TIP3    H162710   2.926   5.690   4.883  0.0177 -0.5296  1.1659
13765TIP3    H262711   3.031   5.692   4.992  0.0925  1.1931  1.0908
13766TIP3   OH262712   1.772   6.719  14.527  0.0908 -0.2361 -0.0489
13766TIP3    H162713   1.792   6.810  14.506 -0.2156 -0.4510 -1.3633
13766TIP3    H262714   1.716   6.689  14.455  1.1375 -1.8051 -0.2602
13767TIP3   OH262715   4.221   6.164  10.446  0.9703 -0.5983 -0.5778
13767TIP3    H162716   4.244   6.111  10.370  1.3203 -3.1551  1.1680
13767TIP3    H262717   4.301   6.166  10.499  0.1345 -0.8533  0.7539
13768TIP3   OH262718   0.484   2.032   4.428  0.1407 -0.5211 -0.5126
13768TIP3    H162719   0.478   2.079   4.346  0.5276  0.2921 -0.0854
13768TIP3    H262720   0.523   2.094   4.490  1.0268 -1.5067 -0.0258
13769TIP3   OH262721   0.715   4.606   4.919 -0.8200 -0.2768  0.4565
13769TIP3    H162722   0.675   4.599   5.005 -0.4313  0.5148  0.7113
13769TIP3    H262723   0.647   4.578   4.858 -0.7333 -1.9883  1.0783
13770TIP3   OH262724   3.282   2.999   4.440 -0.2808 -0.3674 -0.1280
13770TIP3    H162725   3.321   3.083   4.417  1.5719 -1.6520 -2.1478
13770TIP3    H262726   3.352   2.935   4.424 -1.8424 -2.3809  0.5792
13771TIP3   OH262727   3.968   0.023  15.265 -0.2758 -0.2914 -0.5476
13771TIP3    H162728   4.019   0.056  15.339  0.3349 -0.2283 -0.9921
13771TIP3    H262729   3.925   0.101  15.230  0.2638 -0.1426 -0.8955
13772TIP3   OH262730   1.671   3.908  11.802 -0.4741 -0.1518  0.6342
13772TIP3    H162731   1.606   3.837  11.809 -1.6070  0.8650  0.7389
13772TIP3    H262732   1.747   3.875  11.850 -1.6154 -0.6088  2.2341
13773TIP3   OH262733   2.407   2.137  16.668 -0.3307 -0.4205  0.0803
13773TIP3    H162734   2.368   2.050  16.658  0.8833 -1.1905  1.6072
13773TIP3    H262735   2.487   2.134  16.615  0.1705 -0.5519  0.8363
13774TIP3   OH262736   3.344   1.405   4.699 -0.2268  0.3054  0.3245
13774TIP3    H162737   3.319   1.497   4.707  1.9042  0.8461  1.4333
13774TIP3    H262738   3.402   1.402   4.624 -0.8159 -0.2933 -0.1232
13775TIP3   OH262739   5.124   6.289  15.045 -0.1271 -0.1127  0.5744
13775TIP3    H162740   5.149   6.200  15.020  1.6123 -0.1761  2.2680
13775TIP3    H262741   5.207   6.330  15.072 -0.5087  2.6813 -1.9315
13776TIP3   OH262742   3.458   2.725  14.091  0.2771 -0.1081  0.1480
13776TIP3    H162743   3.401   2.658  14.054  1.2792 -1.0539  0.2865
13776TIP3    H262744   3.530   2.732  14.029  0.2203  0.8099  0.1669
13777TIP3   OH262745   1.272   4.492   3.774 -0.1975  0.4462  0.1278
13777TIP3    H162746   1.308   4.580   3.767 -0.1382  0.4353  0.3008
13777TIP3    H262747   1.177   4.505   3.777 -0.2774  0.4109 -1.5063
13778TIP3   OH262748   5.559   5.686  13.287 -0.8978 -0.4274  0.3373
13778TIP3    H162749   5.478   5.718  13.327 -0.9550  3.3383 -2.3241
13778TIP3    H262750   5.616   5.762  13.284  1.9691 -2.4255  0.0690
13779TIP3   OH262751   5.360   6.109   4.509  0.4464 -0.4946  0.2675
13779TIP3    H162752   5.293   6.129   4.575  0.4505  2.4642 -0.4703
13779TIP3    H262753   5.437   6.086   4.561 -0.3572 -1.2197  1.1933
13780TIP3   OH262754   2.826   1.758   1.373 -0.5994  0.1886 -0.5589
13780TIP3    H162755   2.868   1.824   1.428 -1.0762 -0.0153  0.0666
13780TIP3    H262756   2.769   1.808   1.314 -0.6983  0.3640 -0.3165
13781TIP3   OH262757   6.086   3.060   1.809 -0.6954  0.0359 -0.0100
13781TIP3    H162758   6.072   3.016   1.724 -0.8674 -1.5521  0.7956
13781TIP3    H262759   6.022   3.131   1.809 -2.7767 -1.7070 -0.0664
13782TIP3   OH262760   4.826   0.717  16.413 -0.4776  0.3114  0.2289
13782TIP3    H162761   4.771   0.665  16.471  0.1589  0.5136  1.0318
13782TIP3    H262762   4.911   0.722  16.458  0.1611  0.1264 -0.9121
13783TIP3   OH262763   2.925   6.321   1.547  0.3301 -0.6227  0.2266
13783TIP3    H162764   2.950   6.356   1.462  2.2836 -2.1479  0.0794
13783TIP3    H262765   2.829   6.319   1.546  0.3026  0.2067 -1.5753
13784TIP3   OH262766   4.727   3.759   6.145  0.4546 -0.6480 -0.0163
13784TIP3    H162767   4.761   3.720   6.225 -0.9825  0.4475  1.2075
13784TIP3    H262768   4.691   3.844   6.174 -0.0869 -0.2219 -1.8236
13785TIP3   OH262769   1.366   5.523  16.189 -0.3466 -0.2731 -0.1248
13785TIP3    H162770   1.373   5.446  16.133 -1.0079  0.5580 -1.4043
13785TIP3    H262771   1.327   5.492  16.270  0.2225 -1.4325 -0.2826
13786TIP3   OH262772   6.367   2.435  14.599 -0.4760  0.4476  0.3817
13786TIP3    H162773   6.447   2.481  14.573  0.9339 -1.8903  0.2448
13786TIP3    H262774   6.297   2.480  14.552  1.2017  0.4765 -2.3233
13787TIP3   OH262775   1.849   0.878  15.289 -0.2477 -0.0126 -0.4768
13787TIP3    H162776   1.877   0.924  15.368 -1.9336 -2.0742  1.4368
13787TIP3    H262777   1.899   0.796  15.291 -1.3985 -0.7317 -0.7095
13788TIP3   OH262778   6.581   3.711   3.589 -0.3106 -0.2198  0.0564
13788TIP3    H162779   6.551   3.628   3.626 -0.6661 -0.0968  0.0509
13788TIP3    H262780   6.585   3.770   3.663  0.3882 -0.3621  0.1373
13789TIP3   OH262781   5.587   5.801  11.324  0.1459 -0.1359  0.1242
13789TIP3    H162782   5.514   5.811  11.264  0.3002  0.6711  0.0613
13789TIP3    H262783   5.557   5.841  11.406  0.7554  0.7964 -0.1036
13790TIP3   OH262784   1.029   3.844  11.298 -0.1754  0.1970  0.2924
13790TIP3    H162785   1.056   3.934  11.280 -0.6296  0.1783 -0.5173
13790TIP3    H262786   0.947   3.833  11.249 -1.9555  0.3931  3.0140
13791TIP3   OH262787   2.540   1.543  15.250 -0.4284 -0.3802 -0.5216
13791TIP3    H162788   2.603   1.578  15.188  0.4122 -0.1249  0.4526
13791TIP3    H262789   2.592   1.487  15.308 -0.8659  0.7393  1.0142
13792TIP3   OH262790   3.108   1.060  12.271  0.2403  0.0410 -0.1231
13792TIP3    H162791   3.178   1.017  12.320  1.6286  1.4741 -0.7360
13792TIP3    H262792   3.096   1.144  12.315  0.9713  1.0284 -1.7255
13793TIP3   OH262793   3.157   2.917   6.629  0.3049  0.1280 -0.1117
13793TIP3    H162794   3.159   2.933   6.535 -0.5256 -0.0996 -0.1711
13793TIP3    H262795   3.072   2.949   6.658  0.1750 -0.6607  0.4041
13794TIP3   OH262796   4.926   2.766  16.145  0.4970  0.1449 -0.0762
13794TIP3    H162797   4.837   2.796  16.122  1.0777  2.7788  0.7004
13794TIP3    H262798   4.984   2.832  16.106  1.8957  0.4019  2.2624
13795TIP3   OH262799   6.611   5.536   6.359  0.6110  0.2687  0.2619
13795TIP3    H162800   6.642   5.535   6.449  1.9606 -2.0568 -0.1407
13795TIP3    H262801   6.682   5.575   6.309  0.4436  0.3101  0.0554
13796TIP3   OH262802   6.396   0.796  13.285  0.2596 -0.2158 -0.0743
13796TIP3    H162803   6.384   0.865  13.351 -1.9193 -0.3130 -0.3029
13796TIP3    H262804   6.329   0.731  13.307 -1.1007  0.1274 -2.8243
13797TIP3   OH262805   2.931   4.648  15.478  0.2951 -0.4485 -0.1512
13797TIP3    H162806   2.993   4.721  15.482  0.4603 -0.5924 -0.0399
13797TIP3    H262807   2.964   4.592  15.409  0.0949 -0.3537 -0.3252
13798TIP3   OH262808   1.850   0.155  12.655  0.3454 -0.6680  0.4072
13798TIP3    H162809   1.795   0.225  12.692  0.3741 -0.3211 -0.1868
13798TIP3    H262810   1.893   0.116  12.731  0.1614 -0.1809  0.7720
13799TIP3   OH262811   2.542   6.211   5.938 -0.2518  0.3701 -0.1389
13799TIP3    H162812   2.528   6.204   6.032 -0.0351  0.7841 -0.0729
13799TIP3    H262813   2.634   6.185   5.925 -0.3487  0.0887 -0.2640
13800TIP3   OH262814   1.449   0.675  15.239 -0.0617 -0.4853  0.0699
13800TIP3    H162815   1.420   0.756  15.197 -0.6328 -0.1212  1.1406
13800TIP3    H262816   1.542   0.669  15.218  0.0242  0.5420  0.1147
13801TIP3   OH262817   3.486   4.763   4.481  0.1487 -0.4821  0.0942
13801TIP3    H162818   3.508   4.752   4.389  1.8944 -1.3651  0.5681
13801TIP3    H262819   3.463   4.856   4.489 -1.6258 -0.7330 -1.4927
13802TIP3   OH262820   3.916   1.035  10.563  0.0924 -0.2144 -0.3223
13802TIP3    H162821   3.881   0.962  10.615  1.1825 -0.5139  0.0292
13802TIP3    H262822   3.844   1.097  10.557 -0.1606 -0.3111  1.3044
13803TIP3   OH262823   4.466   2.848   5.931 -0.0040 -0.0323  0.1293
13803TIP3    H162824   4.447   2.898   5.852  1.3681  0.1847 -0.0887
13803TIP3    H262825   4.546   2.800   5.910 -0.6647 -1.4620  0.7307
13804TIP3   OH262826   1.773   1.305  16.967 -0.7531 -0.4016  0.1997
13804TIP3    H162827   1.799   1.289  16.876  1.5147  0.4264  0.6286
13804TIP3    H262828   1.816   1.236  17.017  0.4802  0.8534  0.9297
13805TIP3   OH262829   1.012   3.094  14.124  0.0352  0.1961 -0.3460
13805TIP3    H162830   1.046   3.023  14.179  0.7101 -0.4544 -1.5485
13805TIP3    H262831   0.982   3.050  14.045 -2.5769  0.8997  0.1738
13806TIP3   OH262832   3.418   0.625   5.486  0.0791  0.0556  0.1864
13806TIP3    H162833   3.483   0.586   5.545 -0.1501 -0.0877  0.3478
13806TIP3    H262834   3.350   0.658   5.544 -1.4393 -2.3687 -0.0525
13807TIP3   OH262835   1.593   2.815  15.841 -0.0445  0.6486  0.0543
13807TIP3    H162836   1.498   2.828  15.842 -0.0223  0.9522 -0.9560
13807TIP3    H262837   1.608   2.750  15.772  0.7085  2.7668 -1.9076
13808TIP3   OH262838   0.609   1.352   1.863 -0.2976 -0.2020  0.5040
13808TIP3    H162839   0.608   1.263   1.898  0.5173 -0.4427 -0.0541
13808TIP3    H262840   0.700   1.366   1.836 -0.3937  0.8468  0.6959
13809TIP3   OH262841   1.823   3.678   4.318 -0.7084  0.2858  0.3463
13809TIP3    H162842   1.918   3.679   4.334 -0.8284  0.6298  1.0995
13809TIP3    H262843   1.811   3.736   4.243 -0.5150  1.9356  1.5245
13810TIP3   OH262844   4.031   0.207  11.386 -0.4352  0.2472  0.0360
13810TIP3    H162845   4.012   0.115  11.367  1.4489 -0.2254  0.2945
13810TIP3    H262846   3.972   0.229  11.458 -0.5271 -0.9286  0.3382
13811TIP3   OH262847   4.414   1.133   1.749  0.0632  0.4050 -0.2397
13811TIP3    H162848   4.415   1.135   1.654 -0.4260  0.6071 -0.2437
13811TIP3    H262849   4.489   1.186   1.775  2.4652 -2.5852 -0.5170
13812TIP3   OH262850   3.224   5.220   4.865 -0.2563 -0.6680  0.5976
13812TIP3    H162851   3.215   5.276   4.787 -0.7395 -0.8945  0.4861
13812TIP3    H262852   3.271   5.143   4.833 -0.1388 -0.6053  0.6149
13813TIP3   OH262853   2.593   5.123  13.544  0.2767  0.7107  0.5533
13813TIP3    H162854   2.516   5.176  13.522  0.4215  1.1833  1.1523
13813TIP3    H262855   2.557   5.040  13.575  0.0697 -0.0059 -1.4988
13814TIP3   OH262856   3.105   1.495  11.912  0.3747  0.1408  0.0252
13814TIP3    H162857   3.178   1.459  11.862  0.2962  1.1602 -0.8857
13814TIP3    H262858   3.049   1.420  11.932  0.7099 -0.3829 -0.9453
13815TIP3   OH262859   5.123   0.605   2.103  0.0349 -0.4323  0.2124
13815TIP3    H162860   5.054   0.585   2.166 -0.6169 -1.4792 -0.7834
13815TIP3    H262861   5.077   0.636   2.025  0.5778 -2.0138 -0.7897
13816TIP3   OH262862   3.898   1.036   4.500  0.0607  0.0192  0.8321
13816TIP3    H162863   3.984   1.073   4.520 -0.0670  0.3379  0.7976
13816TIP3    H262864   3.839   1.111   4.502 -0.2429 -0.2202  1.0108
13817TIP3   OH262865   3.265   4.400  12.725  0.2949  0.4500 -0.2622
13817TIP3    H162866   3.278   4.465  12.656 -0.3708  1.2170  0.3063
13817TIP3    H262867   3.301   4.319  12.689  1.5114  1.2146 -0.8334
13818TIP3   OH262868   3.922   4.966  15.977 -0.4882  0.0721 -0.0433
13818TIP3    H162869   3.942   4.930  16.063 -1.6033 -2.4511 -0.7339
13818TIP3    H262870   3.831   4.995  15.983 -0.5006  0.0960 -0.3084
13819TIP3   OH262871   5.468   2.533   3.149 -0.9194  0.4409  0.2566
13819TIP3    H162872   5.472   2.620   3.110 -1.3524  1.1068  1.6518
13819TIP3    H262873   5.380   2.501   3.127 -0.1546 -0.4665 -1.8401
13820TIP3   OH262874   4.674   4.879  12.359  0.5320  0.3279  0.6148
13820TIP3    H162875   4.590   4.835  12.341 -0.9569  3.3615 -0.4673
13820TIP3    H262876   4.740   4.818  12.324 -1.4048 -0.8364 -1.3214
13821TIP3   OH262877   0.821   1.730   3.937 -0.3506 -0.8217 -0.2728
13821TIP3    H162878   0.751   1.690   3.886 -0.0568  0.3849 -1.6955
13821TIP3    H262879   0.886   1.660   3.948 -1.1042 -1.5235 -0.2135
13822TIP3   OH262880   5.211   0.993  13.602  0.2563 -0.6311  0.6010
13822TIP3    H162881   5.118   1.014  13.603  0.2928 -0.3597 -0.6242
13822TIP3    H262882   5.253   1.066  13.647  0.0281  0.0892 -0.3271
13823TIP3   OH262883   2.689   0.878   2.166 -0.2443  0.8913  0.0225
13823TIP3    H162884   2.624   0.930   2.213  0.6138  0.7677  1.3857
13823TIP3    H262885   2.710   0.931   2.088 -0.4284  1.9056  0.6459
13824TIP3   OH262886   3.861   5.886  16.086  0.1864  0.4524 -0.1427
13824TIP3    H162887   3.916   5.888  16.007  0.9470  1.0490  0.3926
13824TIP3    H262888   3.778   5.924  16.057  1.0636  2.3907 -0.2329
13825TIP3   OH262889   3.489   1.041  15.593 -0.2968 -0.4758 -0.4356
13825TIP3    H162890   3.420   0.974  15.598  0.7008 -1.5392 -0.4594
13825TIP3    H262891   3.525   1.044  15.682 -0.8273  0.6029 -0.2380
13826TIP3   OH262892   3.836   2.898   6.061  0.0653 -0.0033  0.1703
13826TIP3    H162893   3.893   2.892   6.139  0.3965  0.4037 -0.0362
13826TIP3    H262894   3.798   2.811   6.053 -0.8792  0.2496  1.4688
13827TIP3   OH262895   2.491   0.866   1.307  0.0705  0.2480  0.3559
13827TIP3    H162896   2.578   0.902   1.324  0.6869 -0.7227 -0.6221
13827TIP3    H262897   2.484   0.792   1.366 -0.4502  0.8311  1.0404
13828TIP3   OH262898   0.210   0.450   6.649  0.2490 -0.3322  0.4846
13828TIP3    H162899   0.256   0.525   6.689  0.0875  0.0632 -0.0526
13828TIP3    H262900   0.237   0.453   6.557 -2.8128  1.5145 -0.5135
13829TIP3   OH262901   6.331   0.422  11.947  0.0485  0.5302  0.0630
13829TIP3    H162902   6.270   0.405  11.875 -0.3421 -0.4271  0.6029
13829TIP3    H262903   6.416   0.394  11.913 -0.4727 -2.1289  0.7066
13830TIP3   OH262904   0.960   5.605  15.426 -0.3322  0.6614 -0.3675
13830TIP3    H162905   0.971   5.638  15.515 -1.5135  1.2043 -0.4101
13830TIP3    H262906   1.017   5.661  15.373  1.4225 -0.5172  0.1855
13831TIP3   OH262907   6.153   6.339   3.627 -0.1560 -0.4595 -0.4558
13831TIP3    H162908   6.157   6.340   3.723 -0.7405 -0.5745 -0.4247
13831TIP3    H262909   6.233   6.295   3.600  0.0490 -0.3592 -0.0192
13832TIP3   OH262910   4.546   3.890  12.759 -0.3685  0.2210  0.3508
13832TIP3    H162911   4.494   3.945  12.817 -1.8621 -1.4062  0.6458
13832TIP3    H262912   4.559   3.943  12.680  0.3778  1.8869  1.5313
13833TIP3   OH262913   3.861   1.299  15.674  0.2057 -0.0954 -0.1578
13833TIP3    H162914   3.874   1.286  15.580  2.1338  1.0046 -0.0848
13833TIP3    H262915   3.937   1.258  15.715  0.2189  0.8335  0.8056
13834TIP3   OH262916   4.565   0.869  13.858 -0.7443 -0.1470  0.5087
13834TIP3    H162917   4.530   0.854  13.770 -0.8509  1.9242  0.1476
13834TIP3    H262918   4.623   0.794  13.874 -1.0872 -0.8057 -1.1163
13835TIP3   OH262919   3.330   0.920   0.641  0.2202 -0.6304  0.4390
13835TIP3    H162920   3.403   0.876   0.685 -0.5685 -0.8447  1.5784
13835TIP3    H262921   3.253   0.897   0.693 -0.2379  2.1119  1.1256
13836TIP3   OH262922   3.997   2.978  13.076  0.1607  0.1478 -0.4183
13836TIP3    H162923   3.909   2.941  13.082  0.2795 -0.0010  0.5278
13836TIP3    H262924   4.019   3.005  13.165  0.3274  1.9523 -0.9525
13837TIP3   OH262925   5.336   2.231  14.416 -0.9986 -0.4414 -0.1955
13837TIP3    H162926   5.334   2.315  14.462 -1.7707 -1.2352  1.3056
13837TIP3    H262927   5.428   2.205  14.417 -0.9140 -0.1382  0.3443
13838TIP3   OH262928   2.565   2.429   4.956  0.6007 -0.4415 -0.6615
13838TIP3    H162929   2.559   2.373   4.879 -1.2964  0.1910 -1.0232
13838TIP3    H262930   2.642   2.484   4.940  0.2599 -0.3479 -2.0937
13839TIP3   OH262931   2.889   2.745   4.320  0.3348  0.1054 -0.2277
13839TIP3    H162932   2.842   2.769   4.400  1.0606  0.7514  0.0184
13839TIP3    H262933   2.828   2.689   4.272  0.3043 -1.2527  1.2991
13840TIP3   OH262934   1.874   6.016  13.191  0.0364  1.1133  0.3639
13840TIP3    H162935   1.904   5.929  13.218  0.0533  1.5805  1.9411
13840TIP3    H262936   1.799   5.999  13.134  0.2699  0.0642  0.3397
13841TIP3   OH262937   2.952   2.804  13.742 -0.3668  0.1958  0.5457
13841TIP3    H162938   3.000   2.836  13.819 -0.7484 -0.2418  0.9666
13841TIP3    H262939   2.930   2.714  13.763  1.9987 -0.9029 -1.2218
13842TIP3   OH262940   0.859   4.480  13.790 -0.0913  0.1878 -0.4576
13842TIP3    H162941   0.947   4.450  13.811  0.9739  1.7794 -2.3308
13842TIP3    H262942   0.828   4.523  13.870  2.0440  2.1806 -0.5878
13843TIP3   OH262943   5.995   0.661  15.485 -0.1454  0.0262 -0.5523
13843TIP3    H162944   5.909   0.619  15.482 -1.0069  1.6096  0.6089
13843TIP3    H262945   6.031   0.637  15.570 -0.9333  2.0878  0.4098
13844TIP3   OH262946   2.846   0.010   0.320  0.6565  0.1546  0.3610
13844TIP3    H162947   2.827   0.003   0.413 -0.4642 -0.0200  0.1348
13844TIP3    H262948   2.882  -0.075   0.296 -1.7223 -0.8452  0.0763
13845TIP3   OH262949   4.675   4.062  16.481  0.3474  0.5180 -0.5136
13845TIP3    H162950   4.640   4.008  16.411  0.4846  0.4500 -0.5305
13845TIP3    H262951   4.765   4.082  16.454  0.7629 -0.4071  0.1512
13846TIP3   OH262952   6.624   5.346   2.703  0.8244 -0.6116  0.3401
13846TIP3    H162953   6.705   5.328   2.751  1.2646  0.8960  0.2191
13846TIP3    H262954   6.592   5.260   2.677  0.6311 -1.5044  3.1697
13847TIP3   OH262955   0.934   0.419   1.651 -0.0214  0.4372  0.6682
13847TIP3    H162956   0.980   0.441   1.732  1.7064  0.5509 -0.3005
13847TIP3    H262957   0.863   0.361   1.678  1.6452 -1.0354  2.0523
13848TIP3   OH262958   3.169   6.071  11.026  0.0125  0.2824 -0.0933
13848TIP3    H162959   3.177   6.114  10.940 -0.3474  1.8176  0.6180
13848TIP3    H262960   3.076   6.054  11.036  0.0263  0.3193  0.1001
13849TIP3   OH262961   0.101   3.800  15.160 -0.3612  0.6303  0.3165
13849TIP3    H162962   0.089   3.867  15.228 -0.4457  1.0025 -0.0605
13849TIP3    H262963   0.040   3.825  15.091  0.0711  0.5294 -0.1064
13850TIP3   OH262964   4.082   1.508   1.210  0.6374 -1.0712  1.5583
13850TIP3    H162965   4.088   1.413   1.201 -1.3231 -1.2425  1.6648
13850TIP3    H262966   3.997   1.530   1.172  2.9134  1.2684 -2.9547
13851TIP3   OH262967   0.434   3.892   4.637  0.0059  0.6690  0.8567
13851TIP3    H162968   0.374   3.965   4.655 -0.9756  0.6938 -1.9483
13851TIP3    H262969   0.489   3.923   4.565  0.5239 -0.8455  0.5598
13852TIP3   OH262970   0.578   3.038  14.422 -0.0982  0.1962  0.1530
13852TIP3    H162971   0.674   3.038  14.431 -0.0431  0.2529 -0.4229
13852TIP3    H262972   0.547   3.092  14.494  0.3503  0.8673 -0.1485
13853TIP3   OH262973   6.053   5.132  17.046  1.1550 -0.2194 -0.3314
13853TIP3    H162974   6.002   5.196  16.996 -0.4709 -0.0205  1.4565
13853TIP3    H262975   6.041   5.050  16.999 -0.5864 -0.1014 -0.1599
13854TIP3   OH262976   0.230   5.651  11.799 -0.3136  0.3313  0.2874
13854TIP3    H162977   0.324   5.669  11.795 -0.5095  1.6663  1.0686
13854TIP3    H262978   0.189   5.734  11.774 -1.2809  0.2431  1.4806
13855TIP3   OH262979   3.311   5.058  13.835  0.1206  0.3029  0.1420
13855TIP3    H162980   3.317   5.144  13.792  0.7718 -0.6244 -1.7146
13855TIP3    H262981   3.319   4.995  13.764 -1.1826 -1.3278  1.3729
13856TIP3   OH262982   1.771   6.685  13.613  0.2937  0.2714 -0.1290
13856TIP3    H162983   1.711   6.610  13.612 -0.5074  0.9006  0.3358
13856TIP3    H262984   1.726   6.752  13.562  0.7090  0.6671  0.0253
13857TIP3   OH262985   4.271   3.744  14.736  0.3761  0.3537 -0.2652
13857TIP3    H162986   4.262   3.728  14.642  1.4992 -1.2733 -0.1275
13857TIP3    H262987   4.219   3.675  14.777  1.6112 -0.2620  0.3076
13858TIP3   OH262988   2.556   5.761   1.534  0.5545 -0.4593 -0.7068
13858TIP3    H162989   2.470   5.783   1.568  1.1947 -1.4169  1.7502
13858TIP3    H262990   2.601   5.845   1.524  0.0752 -0.0883  0.1841
13859TIP3   OH262991   2.947   4.304  11.575  0.4393  0.2317  0.3658
13859TIP3    H162992   3.020   4.365  11.590  0.9430 -0.4592  0.7841
13859TIP3    H262993   2.883   4.355  11.526 -0.1560  1.8208  2.6399
13860TIP3   OH262994   3.237   4.646  11.156  0.5213 -0.3054  0.1193
13860TIP3    H162995   3.208   4.681  11.240 -0.2507 -1.9545  0.5716
13860TIP3    H262996   3.199   4.705  11.091  1.5528  1.2984  0.8948
13861TIP3   OH262997   6.451   2.351  13.220  0.2131 -0.0261 -0.7068
13861TIP3    H162998   6.514   2.369  13.149 -0.2485  0.4569 -0.9960
13861TIP3    H262999   6.421   2.262  13.202  2.1307 -0.9721  0.4491
13862TIP3   OH263000   5.809   2.910  16.769  0.3074 -0.2048 -0.0947
13862TIP3    H163001   5.764   2.863  16.839 -2.0168  1.3675 -0.4044
13862TIP3    H263002   5.740   2.964  16.728  1.6793 -0.5697 -3.1806
13863TIP3   OH263003   0.263   2.124  16.701 -0.0348 -0.1369 -0.1427
13863TIP3    H163004   0.298   2.199  16.749  0.6500 -0.2859 -0.3962
13863TIP3    H263005   0.189   2.094  16.753 -0.0210  0.4227  0.2065
13864TIP3   OH263006   4.598   3.387   3.504  0.4423 -0.2556  0.7614
13864TIP3    H163007   4.505   3.406   3.489  0.4413 -0.2063  0.8309
13864TIP3    H263008   4.611   3.403   3.597  0.1946 -1.5915  1.0533
13865TIP3   OH263009   6.542   0.749  15.366 -0.4616  0.9010  0.0174
13865TIP3    H163010   6.481   0.823  15.364 -1.4433  0.1008 -0.9032
13865TIP3    H263011   6.563   0.733  15.274 -3.2104 -2.2462 -0.2563
13866TIP3   OH263012   2.312   3.658   1.885 -0.2814  0.3486 -0.6449
13866TIP3    H163013   2.309   3.715   1.961 -0.2266  1.3960 -1.4122
13866TIP3    H263014   2.377   3.698   1.827 -1.0242  0.1181 -1.6720
13867TIP3   OH263015   4.190   2.920  17.049  0.3692  0.0614 -0.1994
13867TIP3    H163016   4.199   2.832  17.087 -0.6612  0.2870  0.5942
13867TIP3    H263017   4.141   2.905  16.968 -2.3553  0.1750  1.3226
13868TIP3   OH263018   5.122   6.579  16.535  0.4166 -0.1340  0.4330
13868TIP3    H163019   5.029   6.601  16.537  0.2854 -0.4456 -1.1345
13868TIP3    H263020   5.165   6.652  16.578 -0.4055  0.9018 -0.4527
13869TIP3   OH263021   0.387   1.294  13.608 -0.6837  0.3075  0.3039
13869TIP3    H163022   0.420   1.238  13.537 -0.3444  0.8447  0.0275
13869TIP3    H263023   0.451   1.365  13.614 -1.7206  1.3348 -0.1870
13870TIP3   OH263024   6.676   1.999  12.860 -0.7425 -1.0719 -0.1705
13870TIP3    H163025   6.702   2.054  12.786  0.2677 -1.9006 -0.4556
13870TIP3    H263026   6.592   2.036  12.888  0.4750  1.4346  0.4974
13871TIP3   OH263027   5.649   3.943   4.396 -0.1364  0.8393 -0.2531
13871TIP3    H163028   5.712   3.874   4.377 -0.2905  0.6886 -0.2202
13871TIP3    H263029   5.664   4.009   4.328 -1.4081 -0.1818 -1.6034
13872TIP3   OH263030   3.453   3.727   2.095  0.5708  1.0016 -0.2679
13872TIP3    H163031   3.362   3.714   2.071  0.9132  0.7299 -1.4631
13872TIP3    H263032   3.486   3.790   2.031  1.4989  0.3094 -0.4829
13873TIP3   OH263033   3.018   5.023  17.065 -0.1313 -0.5159 -0.3164
13873TIP3    H163034   3.028   4.993  17.155  0.8532 -0.4511 -0.3900
13873TIP3    H263035   3.056   5.111  17.064  1.7221 -1.2517 -1.1904
13874TIP3   OH263036   6.024   5.938  15.778 -0.6662 -0.3960  0.3108
13874TIP3    H163037   6.098   5.988  15.812 -0.0908 -0.4934 -0.7432
13874TIP3    H263038   5.964   6.005  15.744  0.4376 -0.3661 -1.7741
13875TIP3   OH263039   4.460   0.447  11.402  0.6022  0.6708  0.0860
13875TIP3    H163040   4.365   0.458  11.393  0.4700  0.8369  1.4735
13875TIP3    H263041   4.477   0.361  11.363 -0.1256  0.6090 -0.1187
13876TIP3   OH263042   0.934   6.427  13.511  0.2928 -0.1530 -0.1699
13876TIP3    H163043   0.853   6.417  13.461 -1.3606  0.0586  2.3014
13876TIP3    H263044   0.954   6.520  13.506 -1.8186  0.5434  2.2329
13877TIP3   OH263045   4.000   2.301   0.584  0.3807  0.0612 -0.4718
13877TIP3    H163046   3.923   2.260   0.622 -1.6042  1.9774 -2.1313
13877TIP3    H263047   4.031   2.238   0.519  1.0034 -1.2302  1.0147
13878TIP3   OH263048   0.877   6.134   5.437  0.1070  0.1712  0.5673
13878TIP3    H163049   0.809   6.119   5.370  1.1112 -0.2896 -0.3800
13878TIP3    H263050   0.835   6.107   5.519 -0.5822 -0.9405 -0.1122
13879TIP3   OH263051   3.832   0.415  16.417 -0.4680 -0.3389 -0.3368
13879TIP3    H163052   3.884   0.370  16.484  0.9784 -0.4850 -1.5005
13879TIP3    H263053   3.800   0.493  16.461  2.3053  0.7462 -0.0223
13880TIP3   OH263054   4.962   2.924  12.303  0.0749  0.6891 -0.2486
13880TIP3    H163055   4.887   2.984  12.307 -0.4466  0.0083  0.1738
13880TIP3    H263056   5.017   2.950  12.377 -0.3308  0.4040  0.1525
13881TIP3   OH263057   1.633   1.992  13.363 -0.3834  0.4391 -0.0641
13881TIP3    H163058   1.666   1.903  13.376  0.0490  0.5038 -0.6776
13881TIP3    H263059   1.582   2.011  13.442 -0.1453 -0.2019  0.2450
13882TIP3   OH263060   3.722   0.551   3.927 -0.0520 -0.0064 -0.4354
13882TIP3    H163061   3.788   0.616   3.901 -0.0424  0.1311 -0.0759
13882TIP3    H263062   3.701   0.574   4.017 -2.1159  1.2268 -1.1735
13883TIP3   OH263063   3.248   3.553  15.849 -0.4531  0.1106 -0.3293
13883TIP3    H163064   3.285   3.594  15.927  2.6018 -1.9378 -0.4953
13883TIP3    H263065   3.229   3.463  15.876 -3.9048  0.5525 -0.7987
13884TIP3   OH263066   0.585   3.156  11.717 -0.8282  0.5047 -0.3571
13884TIP3    H163067   0.574   3.242  11.678  0.6138  1.2258  0.7203
13884TIP3    H263068   0.679   3.138  11.709 -0.8504 -0.2717  0.8039
13885TIP3   OH263069   2.884   0.131  14.898 -0.2334 -0.4034  0.3593
13885TIP3    H163070   2.922   0.203  14.847  0.4194  1.3987  3.1679
13885TIP3    H263071   2.947   0.059  14.887  1.5309  0.9609  1.0520
13886TIP3   OH263072   3.520   2.546  16.654 -0.5821  0.6099 -0.1762
13886TIP3    H163073   3.462   2.483  16.697  0.5002  0.0029  0.4368
13886TIP3    H263074   3.538   2.612  16.721  1.6178 -0.6716  0.6113
13887TIP3   OH263075   0.631   3.239   0.540  0.3302  0.3699 -0.1527
13887TIP3    H163076   0.643   3.168   0.603 -0.8027 -0.0728 -0.4207
13887TIP3    H263077   0.674   3.315   0.581 -0.2189  0.0472  1.0722
13888TIP3   OH263078   3.245   3.380   5.113  0.4492 -0.3765 -0.0448
13888TIP3    H163079   3.156   3.357   5.141  0.0899 -2.7174 -2.6325
13888TIP3    H263080   3.238   3.469   5.080 -0.1623  0.6108  2.4850
13889TIP3   OH263081   6.108   1.033   5.851 -0.4504 -0.3866 -0.2914
13889TIP3    H163082   6.153   0.982   5.783  0.6255  1.2158 -0.8392
13889TIP3    H263083   6.161   1.020   5.930 -0.3585 -0.3536 -0.3482
13890TIP3   OH263084   4.648   0.890   0.849 -0.1235 -0.0244  0.2274
13890TIP3    H163085   4.615   0.838   0.775 -1.8526  2.6752 -1.0774
13890TIP3    H263086   4.687   0.967   0.808  0.7551  0.5860  2.1011
13891TIP3   OH263087   1.011   2.545   0.249 -0.0323 -0.0297  0.4741
13891TIP3    H163088   1.024   2.615   0.185 -2.2819 -0.5472 -0.6620
13891TIP3    H263089   0.926   2.564   0.289 -0.2321 -1.5471  0.8438
13892TIP3   OH263090   1.178   0.742   0.373  0.9594 -0.1036 -0.2105
13892TIP3    H163091   1.245   0.749   0.442  1.5328  0.5384 -0.8226
13892TIP3    H263092   1.227   0.727   0.293  0.2547 -1.4467 -0.4083
13893TIP3   OH263093   5.076   4.759  12.873 -0.1102 -0.1829 -0.1711
13893TIP3    H163094   5.086   4.790  12.964 -1.2484 -0.8639  0.2015
13893TIP3    H263095   5.123   4.824  12.821  1.0718 -0.0828  0.9492
13894TIP3   OH263096   5.389   2.108  11.693  0.2109 -0.8274 -0.1410
13894TIP3    H163097   5.305   2.151  11.712  0.3639  0.0753 -1.3389
13894TIP3    H263098   5.394   2.036  11.755 -0.9186 -0.1976  0.7235
13895TIP3   OH263099   6.204   1.762   2.010 -0.0050  0.9676 -0.7798
13895TIP3    H163100   6.183   1.702   1.938 -0.1669  0.2571 -0.1488
13895TIP3    H263101   6.152   1.731   2.084  1.7051  0.3846  0.2491
13896TIP3   OH263102   2.135   5.803   2.888 -0.4378  0.2148  0.6342
13896TIP3    H163103   2.063   5.747   2.916 -1.9131 -0.4296 -3.6299
13896TIP3    H263104   2.189   5.746   2.833  0.7069  1.8354  0.0194
13897TIP3   OH263105   1.217   2.450   6.415  0.3169 -0.0792 -0.3114
13897TIP3    H163106   1.235   2.518   6.351  0.4183 -1.5863 -1.9584
13897TIP3    H263107   1.198   2.497   6.496 -0.7790  1.9396 -1.6649
13898TIP3   OH263108   6.086   2.905  10.863 -0.2861  0.0547  0.2445
13898TIP3    H163109   6.077   2.997  10.887  1.2483  0.3300 -0.1283
13898TIP3    H263110   6.162   2.902  10.805 -0.2324 -1.4627  0.3369
13899TIP3   OH263111   5.271   5.136   2.230  0.2858  0.5539 -0.6401
13899TIP3    H163112   5.258   5.047   2.199  0.2819  0.4449 -0.3258
13899TIP3    H263113   5.238   5.191   2.159 -1.1659  0.2989 -0.2022
13900TIP3   OH263114   1.148   6.533  11.800 -0.3819  0.6347 -0.0334
13900TIP3    H163115   1.155   6.504  11.709 -0.3270  1.6002 -0.3496
13900TIP3    H263116   1.074   6.593  11.801  0.1370  1.2917  0.3704
13901TIP3   OH263117   0.964   6.135   3.990 -1.0026  0.0300 -0.4813
13901TIP3    H163118   0.979   6.110   4.081 -0.1286  0.7930 -0.3932
13901TIP3    H263119   1.040   6.189   3.968 -1.4783  0.3036 -1.4940
13902TIP3   OH263120   3.735   4.688  16.680  0.7374 -0.1754 -0.2309
13902TIP3    H163121   3.673   4.615  16.672  2.4031 -1.4762 -2.9904
13902TIP3    H263122   3.689   4.763  16.641 -0.1879 -0.2898  0.6053
13903TIP3   OH263123   1.571   2.530  16.675 -0.3225  0.1875 -0.3611
13903TIP3    H163124   1.647   2.576  16.709 -0.1623  0.4783 -1.0858
13903TIP3    H263125   1.588   2.438  16.694 -0.2736  0.3416  0.3864
13904TIP3   OH263126   1.696   0.390  16.796 -0.0344 -0.2357  0.8698
13904TIP3    H163127   1.602   0.372  16.805  0.4736 -2.2548  3.1237
13904TIP3    H263128   1.716   0.368  16.705 -1.9017  1.2912  0.0177
13905TIP3   OH263129   6.539   0.476  15.800  0.1186 -0.2342  0.1102
13905TIP3    H163130   6.572   0.548  15.746  0.5648  1.0075  1.9655
13905TIP3    H263131   6.618   0.433  15.833  0.0379  1.5762  3.0246
13906TIP3   OH263132   6.491   4.537  11.540  0.2205 -0.5877  0.6107
13906TIP3    H163133   6.407   4.523  11.496  1.9414 -1.4473 -2.8107
13906TIP3    H263134   6.536   4.601  11.485  1.7477 -0.0200  2.4384
13907TIP3   OH263135   6.238   3.902  14.406  0.3082  0.2881 -0.1728
13907TIP3    H163136   6.312   3.849  14.375 -0.4182 -1.1508  0.4164
13907TIP3    H263137   6.163   3.869  14.356  0.0957  2.0172 -1.0733
13908TIP3   OH263138   5.680   3.964   0.236 -0.0113 -0.2151  0.1604
13908TIP3    H163139   5.747   3.973   0.304 -0.6688 -0.5667  0.8565
13908TIP3    H263140   5.670   4.053   0.201  0.2678 -0.0169  0.5796
13909TIP3   OH263141   1.898   2.105   2.777  0.3409  0.2986 -0.7647
13909TIP3    H163142   1.987   2.076   2.797  0.0701 -0.7294 -0.9907
13909TIP3    H263143   1.904   2.143   2.689  0.8469  1.6745 -0.1702
13910TIP3   OH263144   0.573   6.340   4.673  0.0938  0.1465  0.3911
13910TIP3    H163145   0.590   6.366   4.583  0.4950 -0.1777  0.3720
13910TIP3    H263146   0.635   6.391   4.725  0.0790  0.0973  0.4567
13911TIP3   OH263147   6.153   4.064   5.868  0.5200 -0.3270  0.0605
13911TIP3    H163148   6.206   4.068   5.948 -0.2689 -1.1852  0.6413
13911TIP3    H263149   6.146   3.970   5.849 -1.1612 -0.2691  0.2549
13912TIP3   OH263150   1.254   5.613   6.266  0.2580  0.3758  0.2247
13912TIP3    H163151   1.343   5.647   6.263  0.2820  0.3185  0.2988
13912TIP3    H263152   1.261   5.522   6.239  0.2130  0.3892  0.1666
13913TIP3   OH263153   2.018   4.358   0.123 -0.3794  0.5713  0.3263
13913TIP3    H163154   1.976   4.272   0.112 -0.6609  0.5541  1.4180
13913TIP3    H263155   2.079   4.345   0.195  2.1911  0.3705 -1.7487
13914TIP3   OH263156   1.792   5.025   4.778  0.3049 -0.5381  0.5668
13914TIP3    H163157   1.728   5.075   4.728  1.2695 -0.8957 -1.1208
13914TIP3    H263158   1.839   5.090   4.829  0.1637  0.0248 -0.0080
13915TIP3   OH263159   2.651   2.977  13.948  0.2571  0.1315  0.5189
13915TIP3    H163160   2.742   2.998  13.970  1.3868 -1.8053 -1.8883
13915TIP3    H263161   2.600   3.037  14.003  2.9231  1.1051  2.1853
13916TIP3   OH263162   2.875   4.345   5.183  0.2861  0.9056 -0.3333
13916TIP3    H163163   2.948   4.404   5.203  1.5956 -0.6387 -0.3463
13916TIP3    H263164   2.856   4.359   5.091  2.1543 -0.3050 -0.9426
13917TIP3   OH263165   3.173   6.673   3.589 -0.2630  0.3288 -0.3717
13917TIP3    H163166   3.259   6.653   3.626  0.4587  0.6928 -1.7802
13917TIP3    H263167   3.113   6.664   3.663  1.1533  1.4926  0.9991
13918TIP3   OH263168   0.848   2.361  16.254  0.2266  0.1221 -0.3087
13918TIP3    H163169   0.887   2.295  16.312  1.3146  0.3724 -0.7413
13918TIP3    H263170   0.755   2.338  16.252  0.1878  0.0089  1.3986
13919TIP3   OH263171   4.522   5.422  12.956 -0.2179  0.0252 -0.0359
13919TIP3    H163172   4.606   5.467  12.962  0.1956 -0.6988 -0.2706
13919TIP3    H263173   4.538   5.335  12.994 -0.7394 -0.2679 -0.4724
13920TIP3   OH263174   3.936   5.574   4.097 -0.0420  0.1792 -0.7641
13920TIP3    H163175   3.967   5.538   4.180  1.7076  0.9425 -1.0416
13920TIP3    H263176   3.980   5.521   4.031 -1.4398 -0.4371 -1.2511
13921TIP3   OH263177   2.399   1.306   1.072  0.4704  0.0225  0.0125
13921TIP3    H163178   2.409   1.264   0.987 -2.5265  1.0613 -0.9996
13921TIP3    H263179   2.373   1.236   1.131  1.1476 -0.4804 -0.2840
13922TIP3   OH263180   6.589   1.852  13.487 -0.1682  0.3818  0.0713
13922TIP3    H163181   6.598   1.826  13.579 -0.8239  0.0491  0.0529
13922TIP3    H263182   6.556   1.773  13.444 -0.7600  0.8112 -0.2727
13923TIP3   OH263183   5.154   3.029  12.149 -0.4456 -0.2173  0.1483
13923TIP3    H163184   5.095   3.083  12.097 -1.6513 -0.0943  1.5813
13923TIP3    H263185   5.097   2.981  12.208  0.8250 -0.9076  0.8588
13924TIP3   OH263186   3.060   6.015   5.716  0.3613 -0.1930  0.4634
13924TIP3    H163187   3.098   6.099   5.694 -0.1664 -0.0071  0.2503
13924TIP3    H263188   3.037   6.022   5.809  1.1763 -0.4374  0.6897
13925TIP3   OH263189   2.117   1.838  17.035 -0.2698 -0.8715  0.7117
13925TIP3    H163190   2.113   1.799  16.947 -0.4869  1.0242 -0.1605
13925TIP3    H263191   2.025   1.842  17.063 -0.2631 -0.8252  0.7264
13926TIP3   OH263192   4.296   5.291   6.579 -0.0596 -0.2101 -0.1270
13926TIP3    H163193   4.296   5.217   6.640  0.1718  1.3090  1.8240
13926TIP3    H263194   4.216   5.338   6.599  0.5526  0.8971 -0.2264
13927TIP3   OH263195   2.016   2.761   3.992 -0.1513  0.7092 -0.2748
13927TIP3    H163196   2.041   2.796   4.078  1.6316 -0.7180 -0.1309
13927TIP3    H263197   2.099   2.750   3.946 -0.7583 -1.4889 -0.9838
13928TIP3   OH263198   2.727   5.710  16.117 -0.6473  0.1775  0.4826
13928TIP3    H163199   2.786   5.634  16.116 -1.8840 -0.8221  0.5505
13928TIP3    H263200   2.642   5.673  16.139 -1.1335  1.7173  1.2694
13929TIP3   OH263201   6.222   0.323  11.698 -0.3299  0.3366 -0.2258
13929TIP3    H163202   6.307   0.289  11.670 -0.0815  1.5866 -1.0869
13929TIP3    H263203   6.179   0.249  11.740  0.1718 -1.0588 -2.0317
13930TIP3   OH263204   2.403   2.834  14.712 -0.0062  0.1898  0.0275
13930TIP3    H163205   2.435   2.835  14.622  0.7751  0.9142  0.2911
13930TIP3    H263206   2.482   2.822  14.765 -0.4319 -0.0148  0.6214
13931TIP3   OH263207   5.884   4.763  14.617  0.1962  0.2215 -0.0089
13931TIP3    H163208   5.976   4.739  14.603 -0.5143 -2.3208 -0.8334
13931TIP3    H263209   5.850   4.778  14.529 -1.1038 -2.8886 -0.1471
13932TIP3   OH263210   5.740   5.119  14.688  0.6703 -0.5614  0.2939
13932TIP3    H163211   5.752   5.052  14.621  0.6684 -0.5908  0.3233
13932TIP3    H263212   5.741   5.201  14.640 -2.2382 -0.6817 -0.1551
13933TIP3   OH263213   6.227   6.235  15.588 -0.0197 -0.1128  0.4338
13933TIP3    H163214   6.159   6.258  15.524  0.1159 -1.0108 -0.0498
13933TIP3    H263215   6.281   6.313  15.595 -0.3618  0.1806 -0.1313
13934TIP3   OH263216   6.488   5.726   3.844 -0.1311 -0.3643  0.4462
13934TIP3    H163217   6.476   5.699   3.935 -0.0351  0.4669  0.7134
13934TIP3    H263218   6.490   5.822   3.848 -0.8382 -0.3005 -0.5232
13935TIP3   OH263219   0.364   3.049  12.350  0.2912 -0.3198 -1.1051
13935TIP3    H163220   0.379   3.023  12.441  0.9683 -1.3843 -1.5047
13935TIP3    H263221   0.269   3.061  12.344 -0.1685 -3.0415 -0.9230
13936TIP3   OH263222   5.767   1.201   0.950  0.2614  0.9290 -0.0508
13936TIP3    H163223   5.735   1.111   0.957  1.0696  0.4979 -1.4428
13936TIP3    H263224   5.847   1.193   0.899  1.7874  2.1605  2.0419
13937TIP3   OH263225   3.360   5.338   0.655 -0.1509  0.1029 -0.0233
13937TIP3    H163226   3.353   5.408   0.720 -0.1980  0.1983 -0.1297
13937TIP3    H263227   3.442   5.355   0.609 -0.9803  1.1168 -1.2225
13938TIP3   OH263228   3.421   0.304  15.553 -0.9726  0.1689 -0.1130
13938TIP3    H163229   3.461   0.384  15.520  1.0093 -1.4833 -2.0634
13938TIP3    H263230   3.480   0.273  15.621 -0.0043 -1.1213 -1.4610
13939TIP3   OH263231   6.696   3.363   0.457  0.2443  0.0025  0.0629
13939TIP3    H163232   6.636   3.358   0.383 -0.3490 -1.6842  0.6239
13939TIP3    H263233   6.783   3.352   0.418  0.4101  3.5764 -0.9045
13940TIP3   OH263234   1.957   5.910   2.590 -0.8177  0.3184 -0.3223
13940TIP3    H163235   2.008   5.914   2.509 -1.2277  2.3344 -0.5571
13940TIP3    H263236   1.882   5.856   2.568 -0.3410 -0.1119 -0.9360
13941TIP3   OH263237   4.172   0.134   3.109  0.2013 -0.1909 -0.2999
13941TIP3    H163238   4.203   0.086   3.033 -0.1831 -1.1074  0.1056
13941TIP3    H263239   4.159   0.067   3.176 -0.9412  0.3997  0.0914
13942TIP3   OH263240   2.715   5.114  14.214  0.1789  0.3076  0.0118
13942TIP3    H163241   2.733   5.068  14.296 -1.6484  1.0222  0.8940
13942TIP3    H263242   2.789   5.173  14.203  1.0691 -0.6927  0.4688
13943TIP3   OH263243   6.482   1.928   1.202 -1.3169  0.2465  0.4179
13943TIP3    H163244   6.557   1.869   1.212 -0.8090  0.7558 -0.2667
13943TIP3    H263245   6.405   1.871   1.206 -0.7986 -0.8471 -2.4321
13944TIP3   OH263246   3.565   5.364   3.629  0.6737  0.7113  0.2296
13944TIP3    H163247   3.507   5.439   3.635  0.0014  0.1717  0.6674
13944TIP3    H263248   3.574   5.348   3.535 -1.6417 -0.4944  0.1436
13945TIP3   OH263249   4.108   1.028   4.805 -0.2619  0.1056 -0.4803
13945TIP3    H163250   4.137   0.998   4.719 -0.1115 -2.2380  0.2989
13945TIP3    H263251   4.179   1.082   4.838  0.6029 -0.6708 -1.0254
13946TIP3   OH263252   4.244   2.507  15.439 -0.0367 -0.5736 -0.0048
13946TIP3    H163253   4.202   2.440  15.385 -1.6745  0.3155  0.0983
13946TIP3    H263254   4.172   2.550  15.484  0.9722  1.2334 -0.0225
13947TIP3   OH263255   1.048   1.485   5.015  0.1519 -0.1827  0.2607
13947TIP3    H163256   1.033   1.448   5.102 -0.9005 -1.1973 -0.3053
13947TIP3    H263257   1.038   1.410   4.956  1.0404  0.4508 -0.7175
13948TIP3   OH263258   4.934   5.864  13.868  0.0013  0.5786 -1.0232
13948TIP3    H163259   5.011   5.921  13.873  0.5213 -0.2141  0.5310
13948TIP3    H263260   4.897   5.866  13.956  0.0953 -1.5633 -0.8948
13949TIP3   OH263261   4.501   1.908   1.159  0.3870 -0.1219 -0.1962
13949TIP3    H163262   4.458   1.985   1.123  0.4228  0.6800  1.3805
13949TIP3    H263263   4.588   1.939   1.185 -0.2135 -0.1718  2.0990
13950TIP3   OH263264   4.431   1.486   3.406 -0.4355  0.0687 -0.3885
13950TIP3    H163265   4.340   1.511   3.418 -0.2401  0.4473  0.3443
13950TIP3    H263266   4.481   1.556   3.447  0.1775 -0.3879 -0.3389
13951TIP3   OH263267   4.393   5.633  13.925 -0.0165  0.0094  0.2737
13951TIP3    H163268   4.308   5.667  13.953 -0.0871  0.5858 -0.5704
13951TIP3    H263269   4.428   5.702  13.867 -0.6526 -1.7555 -2.4231
13952TIP3   OH263270   4.406   2.788  14.927  0.1991 -0.4823  0.1216
13952TIP3    H163271   4.372   2.748  15.006  0.4444 -0.6849  0.1247
13952TIP3    H263272   4.427   2.878  14.952 -1.8117  0.1569 -0.2689
13953TIP3   OH263273   1.135   2.824   1.616  0.1276 -0.4535  0.3324
13953TIP3    H163274   1.041   2.830   1.603 -0.1154 -0.3101  1.9682
13953TIP3    H263275   1.145   2.762   1.689  1.3524 -1.1736 -0.4115
13954TIP3   OH263276   6.193   0.363  11.422 -0.2923 -0.1032 -0.2275
13954TIP3    H163277   6.169   0.383  11.512  0.4911  0.3329 -0.1080
13954TIP3    H263278   6.264   0.299  11.430 -1.7110 -1.7973 -0.5818
13955TIP3   OH263279   6.191   0.021  12.137 -0.0404 -0.1221  0.0731
13955TIP3    H163280   6.174  -0.068  12.109  0.9525 -0.1493 -0.4676
13955TIP3    H263281   6.126   0.037  12.207 -0.5559 -1.0710 -0.1766
13956TIP3   OH263282   3.106   4.400   0.548 -0.4401  0.2309 -0.0082
13956TIP3    H163283   3.012   4.416   0.547 -0.4357  0.3361  0.7687
13956TIP3    H263284   3.134   4.424   0.637  0.2274 -0.3182 -0.0610
13957TIP3   OH263285   1.812   4.479  13.434  0.3975 -0.2913  0.2964
13957TIP3    H163286   1.851   4.556  13.475  0.6810  0.3457 -1.1201
13957TIP3    H263287   1.739   4.514  13.382 -0.0053 -1.0870  0.3098
13958TIP3   OH263288   2.957   2.728   2.861  0.7791 -0.2840  0.3650
13958TIP3    H163289   2.957   2.820   2.835  0.5898 -0.8585 -1.8277
13958TIP3    H263290   3.040   2.693   2.830  0.5924 -0.9927  0.6309
13959TIP3   OH263291   5.745   4.700  12.163 -1.0265 -0.5019 -0.4580
13959TIP3    H163292   5.727   4.607  12.166 -1.9380 -0.3613 -1.0164
13959TIP3    H263293   5.797   4.712  12.083 -0.2474 -0.6279  0.0246
13960TIP3   OH263294   2.009   2.613  13.940 -0.0512 -0.3249 -0.5824
13960TIP3    H163295   2.035   2.701  13.912  3.2114 -0.4630  1.5068
13960TIP3    H263296   2.051   2.554  13.877 -0.3730 -0.4558 -0.6789
13961TIP3   OH263297   1.519   2.512  17.096  0.1632  0.0956  0.4674
13961TIP3    H163298   1.493   2.433  17.143 -0.6614  0.7173  1.0810
13961TIP3    H263299   1.539   2.575  17.165 -0.3162  0.7856 -0.0145
13962TIP3   OH263300   3.693   3.770  15.801 -0.1642 -0.0384 -0.0895
13962TIP3    H163301   3.769   3.790  15.747 -2.1783  0.9755 -2.7806
13962TIP3    H263302   3.664   3.854  15.836 -1.7520  0.1353 -1.6498
13963TIP3   OH263303   0.816   2.933   1.255 -0.0357 -0.4881 -0.1965
13963TIP3    H163304   0.745   2.941   1.319 -0.4112  0.0856 -0.6740
13963TIP3    H263305   0.893   2.911   1.307 -0.3893 -0.2805  0.4234
13964TIP3   OH263306   1.066   1.965  16.789 -0.3836 -0.2697 -0.4247
13964TIP3    H163307   1.106   1.978  16.703  0.3579  2.1890  0.2137
13964TIP3    H263308   1.138   1.935  16.845 -0.8303 -1.7113 -0.5800
13965TIP3   OH263309   4.008   5.665  16.713 -0.6688 -0.5022 -0.2876
13965TIP3    H163310   3.957   5.664  16.632 -0.9623 -0.5006 -0.1017
13965TIP3    H263311   3.981   5.585  16.759  1.2979 -1.8648 -1.3075
13966TIP3   OH263312   4.002   3.683   3.158 -0.1651 -0.4405  0.0102
13966TIP3    H163313   3.989   3.692   3.064  0.2450  0.4956  0.0273
13966TIP3    H263314   4.096   3.695   3.171 -0.4368  1.3545  0.6968
13967TIP3   OH263315   6.640   1.206   5.153 -0.8686 -0.3235  0.3934
13967TIP3    H163316   6.616   1.187   5.244  0.3494 -0.3760  0.7217
13967TIP3    H263317   6.619   1.298   5.141  0.5885  0.1561  1.3008
13968TIP3   OH263318   3.081   4.875   0.308  0.1432  0.1189  0.0151
13968TIP3    H163319   3.049   4.785   0.314  0.5252 -0.1533 -1.5916
13968TIP3    H263320   3.060   4.914   0.393 -0.4852 -1.3314  0.5487
13969TIP3   OH263321   2.518   0.826   3.783  0.2158 -0.3033  0.0093
13969TIP3    H163322   2.608   0.800   3.806 -0.7769 -2.3494  2.0365
13969TIP3    H263323   2.494   0.765   3.713  0.0087 -0.6107  0.3437
13970TIP3   OH263324   6.170   6.417  14.945  0.1584 -0.1263 -0.3096
13970TIP3    H163325   6.194   6.379  15.029  0.4848 -0.7844 -0.6895
13970TIP3    H263326   6.107   6.355  14.908 -1.1683  0.9394  0.1163
13971TIP3   OH263327   4.523   2.073  14.988  0.6435  0.1590  0.2718
13971TIP3    H163328   4.523   2.031  14.902  0.2552 -0.0070  0.3478
13971TIP3    H263329   4.610   2.055  15.023  1.5502  1.9746 -0.9135
13972TIP3   OH263330   4.801   3.020  15.005 -0.5010  0.2269 -0.4345
13972TIP3    H163331   4.796   3.083  15.078 -1.5335 -0.4079  0.0756
13972TIP3    H263332   4.776   2.937  15.045 -0.2169 -0.2994 -1.3423
13973TIP3   OH263333   3.944   5.378   5.650  0.4690 -0.3365  0.2969
13973TIP3    H163334   3.962   5.408   5.739 -0.6200 -1.2887  0.8695
13973TIP3    H263335   3.936   5.283   5.659  0.1219 -0.4166 -0.7871
13974TIP3   OH263336   1.252   4.086  11.701 -0.0764 -0.0264  0.5240
13974TIP3    H163337   1.279   4.130  11.620 -1.7789 -0.0468 -0.0830
13974TIP3    H263338   1.333   4.047  11.734  1.1511  2.0592  0.1585
13975TIP3   OH263339   1.200   2.516   2.696 -0.0131  0.3907  0.5108
13975TIP3    H163340   1.209   2.457   2.622 -0.9947 -0.9349  1.4119
13975TIP3    H263341   1.114   2.557   2.685  0.1713  0.7933  0.5155
13976TIP3   OH263342   3.902   6.689  12.885  0.6629 -0.3539  0.1777
13976TIP3    H163343   3.876   6.773  12.922  0.6624 -0.5601  0.6589
13976TIP3    H263344   3.887   6.698  12.791  0.3617  0.0728  0.2638
13977TIP3   OH263345   6.505   0.513   4.190 -0.5866 -0.5533  0.1569
13977TIP3    H163346   6.583   0.482   4.144 -0.1635 -0.9232  1.0968
13977TIP3    H263347   6.448   0.546   4.121  0.5275  0.0060 -0.5181
13978TIP3   OH263348   6.181   4.136  13.701 -0.0612  0.2648  0.0699
13978TIP3    H163349   6.248   4.186  13.747  0.0791 -0.2065  0.3927
13978TIP3    H263350   6.110   4.198  13.685  0.4298  0.7565 -0.2316
13979TIP3   OH263351   3.710   2.980  12.838 -0.0088 -0.3046  0.1618
13979TIP3    H163352   3.803   2.981  12.816  0.0754  0.0969  0.5397
13979TIP3    H263353   3.680   2.894  12.808  0.5078 -0.4873  0.1549
13980TIP3   OH263354   2.066   0.322  16.680  0.1732 -0.8608 -0.3258
13980TIP3    H163355   2.124   0.275  16.620 -0.3921 -0.1277 -1.4800
13980TIP3    H263356   2.041   0.401  16.632  0.6156  0.3289  1.3314
13981TIP3   OH263357   0.773   2.459  11.079 -0.3754  0.0243  0.2044
13981TIP3    H163358   0.774   2.544  11.125 -1.5843  0.5836 -0.7615
13981TIP3    H263359   0.790   2.481  10.988  2.2733 -1.1117  0.3387
13982TIP3   OH263360   0.173   5.403  14.347  0.5603  0.1880  0.2473
13982TIP3    H163361   0.161   5.470  14.415 -1.1945 -0.2765  0.4468
13982TIP3    H263362   0.086   5.364  14.337  0.5047  0.9381 -3.0434
13983TIP3   OH263363   2.133   6.551   4.546  0.5315  0.0531 -0.1253
13983TIP3    H163364   2.206   6.491   4.556 -2.7862 -5.0506 -2.2768
13983TIP3    H263365   2.074   6.531   4.619  0.2801  2.7132  0.5369
13984TIP3   OH263366   5.116   6.646  11.624  0.1801  0.2372  0.0671
13984TIP3    H163367   5.182   6.701  11.667  1.1784 -1.2949  0.6028
13984TIP3    H263368   5.121   6.671  11.532  1.3166  0.3613  0.1415
13985TIP3   OH263369   2.509   0.659   1.490  0.1452 -0.0732  0.0398
13985TIP3    H163370   2.483   0.572   1.459  1.3903 -0.4350 -0.0361
13985TIP3    H263371   2.579   0.642   1.553  0.5677  0.8926 -0.1538
13986TIP3   OH263372   2.647   5.936   6.495 -0.0654  0.0576  0.1728
13986TIP3    H163373   2.641   5.882   6.416 -1.2945  0.9404 -0.3834
13986TIP3    H263374   2.581   6.005   6.482  3.2074  3.4340 -0.4555
13987TIP3   OH263375   2.322   3.539  16.392 -0.3315 -0.1152 -0.0139
13987TIP3    H163376   2.348   3.578  16.475  1.6017 -3.4398  1.1573
13987TIP3    H263377   2.250   3.480  16.415  0.6799 -1.5893 -0.4864
13988TIP3   OH263378   5.573   5.211   3.383 -0.3449 -0.2818  0.4548
13988TIP3    H163379   5.545   5.259   3.305 -2.4422 -2.0160  0.0422
13988TIP3    H263380   5.586   5.121   3.353  1.8421 -0.3981  1.5385
13989TIP3   OH263381   6.015   1.101  16.342 -0.2504 -0.7787 -0.3053
13989TIP3    H163382   6.044   1.171  16.284  0.4343  0.9943  2.0313
13989TIP3    H263383   5.933   1.134  16.378  0.5674 -0.6829  1.5512
13990TIP3   OH263384   1.514   5.538   2.042 -0.2910 -0.2410 -0.0873
13990TIP3    H163385   1.578   5.595   2.000 -0.4130  0.7955  1.0685
13990TIP3    H263386   1.433   5.554   1.994 -1.3416  3.6083  2.4922
13991TIP3   OH263387   3.898   5.582   3.289  0.1004  0.0406 -0.4667
13991TIP3    H163388   3.967   5.583   3.223 -0.4189  0.1159 -1.0166
13991TIP3    H263389   3.854   5.498   3.276  0.2574 -0.1284  0.0659
13992TIP3   OH263390   4.577   4.775   1.586 -0.2168 -0.3356 -0.0321
13992TIP3    H163391   4.488   4.808   1.573  0.3730  0.8354 -1.2838
13992TIP3    H263392   4.615   4.771   1.498  0.5500 -2.1060  0.3303
13993TIP3   OH263393   6.188   2.338   0.977  0.5556 -0.4824  0.0491
13993TIP3    H163394   6.146   2.422   0.960  1.8509  0.2199  0.1533
13993TIP3    H263395   6.237   2.351   1.058  0.8391 -1.3102  0.0226
13994TIP3   OH263396   2.309   1.825  13.168  0.2475  0.2098 -0.3897
13994TIP3    H163397   2.312   1.920  13.153 -0.8517  0.1246 -1.2395
13994TIP3    H263398   2.367   1.788  13.101  2.5768  0.3713  1.3804
13995TIP3   OH263399   3.538   0.412  13.117  0.4047  0.7716 -0.1748
13995TIP3    H163400   3.559   0.493  13.070 -0.5230  1.0411 -0.1501
13995TIP3    H263401   3.460   0.434  13.168  1.9522  0.8019  2.3295
13996TIP3   OH263402   3.745   4.445   1.902 -0.4203  0.1724 -0.2930
13996TIP3    H163403   3.699   4.459   1.984  0.8766 -1.6657  0.8139
13996TIP3    H263404   3.808   4.517   1.897 -1.8398  1.4305 -0.7306
13997TIP3   OH263405   1.086   2.103   2.488  0.0808  0.6894  0.0432
13997TIP3    H163406   1.003   2.066   2.458  0.5126 -0.7337  0.4976
13997TIP3    H263407   1.127   2.032   2.537  2.0199  1.0117 -1.0042
13998TIP3   OH263408   4.086   0.613   6.059  0.2792  0.3506  0.5446
13998TIP3    H163409   4.175   0.620   6.093  0.8914 -0.1579 -0.8518
13998TIP3    H263410   4.038   0.564   6.126  0.9660  0.8668  1.4331
13999TIP3   OH263411   1.247   2.290   1.872 -0.5546  0.2146 -0.3601
13999TIP3    H163412   1.177   2.248   1.822 -0.4469  0.8070 -1.0175
13999TIP3    H263413   1.318   2.303   1.808 -1.2056  2.9696 -0.6555
14000TIP3   OH263414   4.448   1.738  14.964  0.6013  0.7050  0.0009
14000TIP3    H163415   4.355   1.749  14.942  0.7176 -0.5847 -1.3087
14000TIP3    H263416   4.448   1.707  15.054 -0.2524  0.5913 -0.0307
14001TIP3   OH263417   1.003   1.084  17.308  0.0161  0.0120  0.3821
14001TIP3    H163418   0.924   1.032  17.317  0.0610 -0.0089  0.6757
14001TIP3    H263419   1.009   1.134  17.390  1.9048 -2.2105  1.7234
14002TIP3   OH263420   0.403   0.577   1.174 -0.3826 -0.4205 -0.8162
14002TIP3    H163421   0.384   0.552   1.265  0.5975 -1.8317 -0.9717
14002TIP3    H263422   0.434   0.667   1.180  2.5729 -1.4178  0.6815
14003TIP3   OH263423   0.568   0.534   3.649  1.1045  0.1462  0.0564
14003TIP3    H163424   0.609   0.448   3.648 -1.0330 -0.9787 -2.2351
14003TIP3    H263425   0.626   0.589   3.597  0.8133 -0.8735 -1.4089
14004TIP3   OH263426   2.975   2.146  11.886  0.5990  0.0289 -0.1212
14004TIP3    H163427   2.917   2.099  11.826  1.0526  0.7120 -1.1114
14004TIP3    H263428   2.936   2.131  11.973 -1.3682  0.8546 -0.7978
14005TIP3   OH263429   3.207   1.195  15.232 -0.2098 -0.2767 -0.1038
14005TIP3    H163430   3.157   1.141  15.293 -1.0574 -0.8237 -1.2425
14005TIP3    H263431   3.149   1.207  15.157 -0.1526  2.4676  0.1849
14006TIP3   OH263432   3.104   1.163   2.447 -0.1317  0.7214 -0.4577
14006TIP3    H163433   3.175   1.210   2.491 -0.2745  0.7329 -0.2376
14006TIP3    H263434   3.042   1.232   2.424 -0.6272  0.5766  0.4013
14007TIP3   OH263435   4.024   2.222   3.479  0.4517 -0.6879 -0.1376
14007TIP3    H163436   3.948   2.257   3.432  1.0969  1.0793  0.0516
14007TIP3    H263437   4.061   2.298   3.524  1.2246 -1.8803  1.3381
14008TIP3   OH263438   1.899   2.143  12.835  0.8395 -0.0033 -0.7873
14008TIP3    H163439   1.909   2.230  12.872 -0.6919 -1.0320  2.3757
14008TIP3    H263440   1.986   2.103  12.843  0.8022  0.1875  0.7460
14009TIP3   OH263441   6.418   2.963  16.545 -0.3752  0.1134  0.8036
14009TIP3    H163442   6.352   2.914  16.594 -1.1068 -1.1182 -1.2940
14009TIP3    H263443   6.368   3.027  16.494  0.2999  0.8994  1.1028
14010TIP3   OH263444   3.053   1.264   1.222 -0.4079  0.9259 -0.0153
14010TIP3    H163445   3.043   1.322   1.147  0.2066  0.1140 -0.7329
14010TIP3    H263446   3.131   1.213   1.203  0.2807  1.3282  1.5951
14011TIP3   OH263447   0.342   2.699  13.325 -0.1623 -0.6784 -0.2211
14011TIP3    H163448   0.433   2.728  13.330 -0.8925  2.0806 -1.0097
14011TIP3    H263449   0.314   2.722  13.237 -1.5611 -1.7532 -0.0970
14012TIP3   OH263450   3.213   4.711   3.126 -0.3555 -0.1589 -0.3083
14012TIP3    H163451   3.223   4.616   3.126 -2.2077 -0.4602 -2.8144
14012TIP3    H263452   3.137   4.728   3.182 -1.0347 -0.3463 -1.1561
14013TIP3   OH263453   4.789   1.854  15.712  0.2793 -0.3233  0.3748
14013TIP3    H163454   4.786   1.878  15.620  0.6518  1.7227  0.8569
14013TIP3    H263455   4.720   1.907  15.753 -0.1145 -1.4571  1.2349
14014TIP3   OH263456   0.508   5.198  10.831 -0.2637  0.0737 -0.3776
14014TIP3    H163457   0.510   5.104  10.810 -0.9112  0.0455 -0.3298
14014TIP3    H263458   0.416   5.222  10.825  0.0457  1.0701 -1.9526
14015TIP3   OH263459   6.101   6.437  11.002  0.2555 -0.5305 -0.3707
14015TIP3    H163460   6.059   6.499  11.061 -0.8334 -0.7027 -0.9276
14015TIP3    H263461   6.192   6.436  11.028 -0.4600 -1.8852  2.4451
14016TIP3   OH263462   0.790   1.571   1.353  0.2872 -0.3699  0.5569
14016TIP3    H163463   0.857   1.542   1.291 -1.1459  0.2796 -1.3880
14016TIP3    H263464   0.725   1.615   1.299 -1.7275 -0.9720  2.3692
14017TIP3   OH263465   1.077   6.245  14.686 -0.1209 -0.2108  0.2628
14017TIP3    H163466   1.114   6.333  14.696  3.3674 -1.2049 -2.0352
14017TIP3    H263467   1.104   6.199  14.766 -0.0074  0.1892  0.4584
14018TIP3   OH263468   4.306   4.586  12.658  0.5363 -0.0315  0.3575
14018TIP3    H163469   4.211   4.599  12.657  0.7144  1.4113 -0.3808
14018TIP3    H263470   4.317   4.491  12.651 -0.8456 -0.2544  0.9383
14019TIP3   OH263471   2.720   0.385  16.134 -0.6927  0.1382  0.3349
14019TIP3    H163472   2.728   0.452  16.202 -0.8815  2.0405 -1.4317
14019TIP3    H263473   2.770   0.311  16.168  1.4715  1.9749  1.3924
14020TIP3   OH263474   0.867   1.739  11.120  0.1262  0.2710 -0.0868
14020TIP3    H163475   0.918   1.696  11.052  1.5608  0.7707  0.6321
14020TIP3    H263476   0.932   1.779  11.178 -1.0824  2.0471  0.1591
14021TIP3   OH263477   2.531   5.562  16.821  0.4022  0.0628  0.3334
14021TIP3    H163478   2.442   5.590  16.801 -0.4430 -2.0555  0.7836
14021TIP3    H263479   2.557   5.512  16.744  0.4894 -0.8085  0.9116
14022TIP3   OH263480   4.465   2.390  15.576  0.1303 -0.2413 -0.0653
14022TIP3    H163481   4.403   2.406  15.505  1.0098 -0.3399 -0.8842
14022TIP3    H263482   4.551   2.411  15.538  0.5900  0.1069  1.0966
14023TIP3   OH263483   6.445   5.138   2.618  0.2338 -0.4826  0.1237
14023TIP3    H163484   6.392   5.096   2.550 -0.5246 -1.0439  1.0418
14023TIP3    H263485   6.392   5.131   2.698  0.9116  0.5667  0.6870
14024TIP3   OH263486   1.212   4.818   2.012  0.0958  0.2122  0.0539
14024TIP3    H163487   1.125   4.856   2.001  0.8545  1.5935 -1.4720
14024TIP3    H263488   1.210   4.739   1.957 -0.2810  0.0659  0.2709
14025TIP3   OH263489   4.753   4.913  11.204  0.0198  0.4480 -0.1026
14025TIP3    H163490   4.776   5.006  11.212  0.3600  0.2763  1.2839
14025TIP3    H263491   4.798   4.884  11.125  1.7544  0.9664  0.6413
14026TIP3   OH263492   1.264   5.718   1.682  0.1956 -0.1561  0.2586
14026TIP3    H163493   1.186   5.698   1.631  0.0798 -0.5475  0.5917
14026TIP3    H263494   1.257   5.812   1.700 -0.3069 -0.2360  0.4786
14027TIP3   OH263495   3.778   2.751  12.000 -0.4057  0.2843  0.2266
14027TIP3    H163496   3.762   2.843  11.978  0.2749  0.0082 -1.6259
14027TIP3    H263497   3.711   2.729  12.065 -0.0787  2.2894  1.3055
14028TIP3   OH263498   4.361   6.717  16.665 -0.1406  0.2570 -0.0168
14028TIP3    H163499   4.423   6.791  16.667  0.2506  0.0089 -1.8631
14028TIP3    H263500   4.358   6.690  16.574  0.2135 -2.4529  0.6944
14029TIP3   OH263501   6.469   1.184  16.221  0.0326  0.1201 -0.0783
14029TIP3    H163502   6.556   1.180  16.181  0.1367 -0.6051  0.1996
14029TIP3    H263503   6.409   1.174  16.147  0.1537  1.3020 -0.3594
14030TIP3   OH263504   6.073   1.281  17.070  0.1727  0.0143  0.1685
14030TIP3    H163505   6.123   1.272  17.151 -1.4008 -2.2661  0.9737
14030TIP3    H263506   5.983   1.300  17.099 -0.2988 -0.2526 -1.0490
14031TIP3   OH263507   6.119   4.730   3.631  0.2637  0.1872  0.6009
14031TIP3    H163508   6.027   4.713   3.655  0.4635  0.2945  1.4584
14031TIP3    H263509   6.115   4.809   3.576 -0.3128 -0.6695 -0.6526
14032TIP3   OH263510   2.463   3.147   5.245 -0.1773 -0.8688  0.0983
14032TIP3    H163511   2.539   3.198   5.272  1.7271 -2.4888 -1.8531
14032TIP3    H263512   2.392   3.212   5.239  1.7057  1.2804 -0.7131
14033TIP3   OH263513   3.602   2.960   1.210 -0.3649  0.4200  0.0101
14033TIP3    H163514   3.662   3.034   1.203 -1.0424  0.9004 -0.8491
14033TIP3    H263515   3.587   2.932   1.120 -0.0884 -0.8011  0.3252
14034TIP3   OH263516   5.822   4.461  14.382  0.0288 -0.6882 -0.1146
14034TIP3    H163517   5.910   4.429  14.364  1.7770  2.4994  1.6627
14034TIP3    H263518   5.797   4.418  14.464  1.1923  0.4085  0.8508
14035TIP3   OH263519   5.255   5.062   0.705 -0.2732 -0.2000 -0.0572
14035TIP3    H163520   5.328   5.106   0.748 -0.9765  1.9990 -0.9504
14035TIP3    H263521   5.207   5.020   0.776  0.0368  1.1398  0.9842
14036TIP3   OH263522   4.332   1.533  15.469  0.4135  0.5185  0.6512
14036TIP3    H163523   4.340   1.438  15.463 -0.6979  0.4362  0.0079
14036TIP3    H263524   4.415   1.563  15.506  0.2779 -0.8154  2.1514
14037TIP3   OH263525   0.689   0.580  12.434  0.0237  0.0617  0.3914
14037TIP3    H163526   0.617   0.589  12.496 -0.5798 -0.9956 -0.1363
14037TIP3    H263527   0.655   0.614  12.351 -0.4814 -1.9807 -0.2845
14038TIP3   OH263528   2.671   3.701  16.915 -0.3704 -0.4215 -0.1618
14038TIP3    H163529   2.675   3.787  16.873 -0.7294  1.0362  2.5216
14038TIP3    H263530   2.739   3.649  16.872 -0.1047  1.2043 -1.8259
14039TIP3   OH263531   4.508   5.695  11.309  0.2646  0.0090  0.2492
14039TIP3    H163532   4.539   5.660  11.393  0.5154 -2.0497 -0.6329
14039TIP3    H263533   4.413   5.697  11.318  0.3297  0.7260  0.8995
14040TIP3   OH263534   2.023   5.961   0.892 -0.0754  0.0763  0.5046
14040TIP3    H163535   2.118   5.959   0.904  0.0058  0.5302 -0.0268
14040TIP3    H263536   1.997   5.869   0.896  0.4843 -0.1145 -0.0402
14041TIP3   OH263537   3.185   6.540   4.692  0.1625  0.3022 -0.0789
14041TIP3    H163538   3.146   6.575   4.772 -1.1482 -0.2971 -0.4316
14041TIP3    H263539   3.114   6.540   4.628  0.5189 -1.5153 -0.5419
14042TIP3   OH263540   1.643   4.847  14.526  0.0035  0.2004 -0.0569
14042TIP3    H163541   1.663   4.865  14.434  2.6747 -0.9407  0.1980
14042TIP3    H263542   1.709   4.782  14.552 -1.2364 -0.1751  2.4372
14043TIP3   OH263543   3.971   5.093   5.686  0.2700 -0.0115  0.3405
14043TIP3    H163544   3.972   5.080   5.780  0.3682  1.0804  0.5048
14043TIP3    H263545   3.897   5.040   5.655  1.6624 -2.2941  0.6909
14044TIP3   OH263546   5.888   2.300   3.076  0.1387 -0.2211  0.1481
14044TIP3    H163547   5.840   2.261   3.003  0.2132  0.2187 -0.1367
14044TIP3    H263548   5.825   2.360   3.116  0.6180  0.7863 -0.5714
14045TIP3   OH263549   2.923   3.416  13.149 -0.4629  0.1557 -0.0591
14045TIP3    H163550   2.956   3.506  13.148 -0.7689  0.2733  0.2631
14045TIP3    H263551   2.985   3.368  13.205 -0.6434  0.2994  0.2631
14046TIP3   OH263552   1.541   2.434   5.656  0.6046 -0.0498 -0.1061
14046TIP3    H163553   1.519   2.516   5.612 -0.6624 -1.4617 -2.2847
14046TIP3    H263554   1.480   2.428   5.729  0.0032  0.4500 -0.5664
14047TIP3   OH263555   2.229   6.590  17.033 -0.5952 -0.3449  0.1473
14047TIP3    H163556   2.250   6.558  16.945  2.3907  3.0451 -0.5943
14047TIP3    H263557   2.161   6.656  17.019 -0.7916 -0.4612  0.5330
14048TIP3   OH263558   3.204   4.438   6.675  0.3173  0.4958  0.8019
14048TIP3    H163559   3.125   4.426   6.623  0.6036  0.4361  0.3711
14048TIP3    H263560   3.206   4.532   6.695 -0.4756  0.3019  1.8179
14049TIP3   OH263561   2.769   5.466   5.465 -0.4770 -0.1312 -0.3232
14049TIP3    H163562   2.780   5.443   5.372 -0.2359 -1.9440  0.1192
14049TIP3    H263563   2.857   5.488   5.495 -0.2615 -1.1744 -0.1438
14050TIP3   OH263564   4.920   2.012  13.271 -0.0432 -0.1746 -0.2058
14050TIP3    H163565   4.920   1.931  13.322  1.1088  1.4471  2.6282
14050TIP3    H263566   5.012   2.023  13.245 -0.5787 -0.8546 -2.5588
14051TIP3   OH263567   2.652   6.383  15.485 -0.1387  0.0759  0.7328
14051TIP3    H163568   2.697   6.409  15.405 -0.6470 -1.1050  0.0499
14051TIP3    H263569   2.603   6.462  15.511  0.4741  0.6438  0.2118
14052TIP3   OH263570   3.926   2.741   3.092  0.1735 -0.7317 -0.2144
14052TIP3    H163571   3.855   2.799   3.064  1.2027  0.7020 -0.0217
14052TIP3    H263572   3.978   2.726   3.013  0.4060 -0.6289 -0.0851
14053TIP3   OH263573   4.063   0.360  14.648 -0.0494 -0.1938 -0.3984
14053TIP3    H163574   3.985   0.337  14.699  0.0451 -0.5005 -0.3921
14053TIP3    H263575   4.134   0.311  14.689  0.1524  0.0969 -0.3949
14054TIP3   OH263576   4.376   1.264  15.456 -0.0234 -0.8917  0.2973
14054TIP3    H163577   4.466   1.272  15.422  0.1507 -0.6247  0.8087
14054TIP3    H263578   4.329   1.218  15.387  0.6167 -1.4415  0.2154
14055TIP3   OH263579   0.539   0.560   2.112  0.1556  0.2387  0.3845
14055TIP3    H163580   0.593   0.528   2.039 -1.2815  0.1446 -0.6869
14055TIP3    H263581   0.456   0.585   2.071 -0.5008  0.7104  1.9271
14056TIP3   OH263582   6.427   3.357  13.416 -0.4079  0.9513  0.1139
14056TIP3    H163583   6.399   3.266  13.428  0.4254  0.7875  0.8866
14056TIP3    H263584   6.461   3.383  13.501  2.8285  0.7873 -1.0132
14057TIP3   OH263585   6.246   4.579   4.017 -0.9111  0.2651 -0.1100
14057TIP3    H163586   6.286   4.561   4.102  1.8396 -1.3290 -1.5558
14057TIP3    H263587   6.212   4.494   3.989 -1.8961  0.7966 -0.5661
14058TIP3   OH263588   2.028   1.612   5.999  0.1491 -0.5001 -0.3074
14058TIP3    H163589   2.037   1.614   6.095 -0.4143 -1.5284 -0.2162
14058TIP3    H263590   2.116   1.593   5.967  0.1962 -0.8876  0.0468
14059TIP3   OH263591   2.675   1.712   3.677  0.3960  0.2190  0.0009
14059TIP3    H163592   2.748   1.650   3.673  0.1320 -0.0902 -0.0769
14059TIP3    H263593   2.694   1.777   3.609 -0.4349 -1.0001 -1.4481
14060TIP3   OH263594   2.623   5.072   1.828 -0.5182  0.4696 -0.0380
14060TIP3    H163595   2.625   5.156   1.873 -1.0683  0.7430 -0.5116
14060TIP3    H263596   2.710   5.064   1.788 -0.8266  1.3463 -0.9340
14061TIP3   OH263597   5.628   5.657   0.078  0.3027 -0.2553 -0.3650
14061TIP3    H163598   5.677   5.586   0.037 -0.4765 -0.6038 -0.7221
14061TIP3    H263599   5.593   5.619   0.159 -0.0888 -0.2782 -0.5414
14062TIP3   OH263600   6.533   2.017  13.809  0.9511 -0.3246 -0.0704
14062TIP3    H163601   6.460   1.960  13.784  0.9226  0.7824 -2.8910
14062TIP3    H263602   6.611   1.971  13.779  1.0730  0.2376 -0.6449
14063TIP3   OH263603   5.256   0.386   3.872 -0.2458 -0.0360 -0.0452
14063TIP3    H163604   5.216   0.318   3.818 -0.8052  1.2229 -1.2752
14063TIP3    H263605   5.192   0.400   3.943 -0.3565 -0.4438 -0.0627
14064TIP3   OH263606   3.288   0.769  16.394  0.7084  0.2281 -0.1952
14064TIP3    H163607   3.306   0.809  16.479  1.9936 -0.4588 -0.1074
14064TIP3    H263608   3.308   0.838  16.330  2.6692 -0.1361 -0.0400
14065TIP3   OH263609   6.530   0.985  14.035 -0.3175 -0.5508  0.1289
14065TIP3    H163610   6.466   0.947  13.975 -1.1825  0.0065  0.6846
14065TIP3    H263611   6.479   1.042  14.093  0.7708  0.4928  0.1135
14066TIP3   OH263612   3.472   4.055  15.115 -0.4277  0.5943  0.2205
14066TIP3    H163613   3.554   4.032  15.072 -0.2442 -1.6758  1.6152
14066TIP3    H263614   3.408   3.992  15.082 -1.3196  1.5292  0.1067
14067TIP3   OH263615   6.422   0.158   5.453  0.3635 -0.0971  0.5993
14067TIP3    H163616   6.437   0.072   5.414  1.5121 -0.2266  1.2745
14067TIP3    H263617   6.480   0.160   5.529 -0.4857  0.8458  1.2490
14068TIP3   OH263618   4.708   2.712   0.124  0.2724  0.4935 -0.0702
14068TIP3    H163619   4.632   2.655   0.136  0.5988 -0.3232 -1.5985
14068TIP3    H263620   4.707   2.770   0.199 -1.2474 -0.2131  0.4870
14069TIP3   OH263621   3.160   6.007  12.295  0.4408  1.1148  0.4161
14069TIP3    H163622   3.197   5.937  12.241  3.6765  2.8167  0.1665
14069TIP3    H263623   3.140   5.965  12.378  1.6475 -0.2746  0.0525
14070TIP3   OH263624   2.079   3.150   3.340 -0.2005  0.4460  0.4460
14070TIP3    H163625   2.099   3.057   3.326 -0.3755  0.7445 -2.2553
14070TIP3    H263626   2.008   3.150   3.404 -0.0043 -1.2450  0.7178
14071TIP3   OH263627   2.138   2.245   1.086  0.2408  0.2465 -0.5009
14071TIP3    H163628   2.055   2.280   1.117 -0.0408 -0.9991  0.2020
14071TIP3    H263629   2.136   2.152   1.108  2.9675  0.6363  2.1662
14072TIP3   OH263630   0.196   1.944   5.125 -0.2211 -0.3042  0.4883
14072TIP3    H163631   0.201   1.854   5.156 -1.2113 -0.6831 -0.3525
14072TIP3    H263632   0.232   1.941   5.036  0.1132  0.2155  0.5987
14073TIP3   OH263633   3.100   6.285  15.664  0.1618 -0.7176 -0.3992
14073TIP3    H163634   3.010   6.251  15.666 -0.0579 -0.1509 -0.4093
14073TIP3    H263635   3.155   6.208  15.676 -0.2666 -1.2983 -1.9710
14074TIP3   OH263636   1.384   4.043   5.451  0.4276 -0.3196  0.3133
14074TIP3    H163637   1.453   3.998   5.499  0.4627 -1.9341 -1.1437
14074TIP3    H263638   1.430   4.083   5.376  0.0880  0.4617  0.5119
14075TIP3   OH263639   2.943   5.445   1.916  0.2925  0.1778 -0.4148
14075TIP3    H163640   3.005   5.435   1.988  0.8335 -0.8627 -1.0025
14075TIP3    H263641   2.930   5.540   1.908  0.5166  0.3227  0.7844
14076TIP3   OH263642   1.306   1.006  15.084  0.0676  0.5062 -0.4372
14076TIP3    H163643   1.233   0.956  15.118 -1.2789  1.5274 -1.7126
14076TIP3    H263644   1.343   1.050  15.161 -3.6824  3.7976 -0.2440
14077TIP3   OH263645   2.681   1.772   2.652  0.1317 -0.3164  0.4188
14077TIP3    H163646   2.649   1.683   2.638  0.3875 -0.4784  0.8420
14077TIP3    H263647   2.629   1.805   2.725  0.2922 -0.2548  0.5071
14078TIP3   OH263648   3.470   5.645   5.641  0.4825  0.2409 -0.3469
14078TIP3    H163649   3.453   5.678   5.552 -0.1955  0.1215 -0.2672
14078TIP3    H263650   3.552   5.596   5.632 -0.4804 -1.2853 -1.3239
14079TIP3   OH263651   5.473   6.007  15.708 -0.0311  0.4676 -0.3151
14079TIP3    H163652   5.406   6.074  15.713 -3.3598 -2.4871 -1.4160
14079TIP3    H263653   5.506   6.012  15.618 -0.5522  0.3821 -0.5119
14080TIP3   OH263654   4.174   0.703   1.365 -0.0121  0.0827 -0.3067
14080TIP3    H163655   4.255   0.723   1.319 -0.3480 -0.0318 -0.9514
14080TIP3    H263656   4.105   0.729   1.305 -0.4548 -1.0651 -0.3079
14081TIP3   OH263657   0.667   3.486  12.809  0.1898 -0.3722  0.2604
14081TIP3    H163658   0.572   3.475  12.801  0.1787  0.3734 -0.7777
14081TIP3    H263659   0.678   3.551  12.878 -0.0705 -0.1325  0.0764
14082TIP3   OH263660   0.340   3.956  14.655 -0.5206 -0.3869 -0.6962
14082TIP3    H163661   0.293   3.899  14.593  0.0453 -1.4847 -0.1590
14082TIP3    H263662   0.426   3.968  14.615 -0.0553 -1.3336 -0.0141
14083TIP3   OH263663   3.633   0.663   5.230  0.2473  0.3267  0.0507
14083TIP3    H163664   3.669   0.686   5.144 -0.0982 -1.1695 -0.5221
14083TIP3    H263665   3.613   0.569   5.223 -4.0812  1.0521  0.2062
14084TIP3   OH263666   0.576   3.921   5.655  0.3363  0.6171  0.0316
14084TIP3    H163667   0.504   3.876   5.610 -0.0325  2.0592 -0.8682
14084TIP3    H263668   0.648   3.919   5.592  1.5167 -1.7144  1.2940
14085TIP3   OH263669   3.512   3.240   6.660 -0.1473 -0.0274 -0.0712
14085TIP3    H163670   3.487   3.201   6.744  0.0437  1.7558  0.8575
14085TIP3    H263671   3.430   3.245   6.612 -0.6577  0.8121  0.8405
14086TIP3   OH263672   5.176   4.350  11.422 -0.2598 -0.0308 -0.3981
14086TIP3    H163673   5.149   4.282  11.360 -2.3819  0.0913  0.3080
14086TIP3    H263674   5.094   4.382  11.460  0.7703  1.9862  0.2959
14087TIP3   OH263675   6.206   6.483  12.674 -0.0592 -0.7499 -0.4092
14087TIP3    H163676   6.224   6.559  12.619  1.3049 -0.0587  0.8924
14087TIP3    H263677   6.291   6.438  12.681 -0.6023 -1.7822 -0.2743
14088TIP3   OH263678   6.008   6.449   1.677  0.0408 -0.1336 -0.4629
14088TIP3    H163679   5.958   6.392   1.735  1.0285 -1.1380 -0.5654
14088TIP3    H263680   6.065   6.498   1.737  0.4433 -0.5458 -0.4982
14089TIP3   OH263681   0.003   4.770   4.032 -0.2307 -0.5171 -0.1724
14089TIP3    H163682   0.044   4.814   4.107 -1.0433  2.8034 -1.4855
14089TIP3    H263683   0.073   4.760   3.968 -0.1763 -0.5375 -0.1093
14090TIP3   OH263684   5.182   0.115   0.906  0.2871  0.2581 -0.3983
14090TIP3    H163685   5.177   0.046   0.840  0.0221  0.0079 -0.1244
14090TIP3    H263686   5.118   0.180   0.878 -1.0698 -0.6347  0.4912
14091TIP3   OH263687   3.998   6.517  10.526 -0.3081  0.6828  0.7397
14091TIP3    H163688   4.070   6.513  10.462 -1.1478 -0.2391 -0.1818
14091TIP3    H263689   3.984   6.426  10.552 -2.0205  0.6544 -0.1269
14092TIP3   OH263690   0.803   5.588   2.960 -0.2881  0.0719  0.1849
14092TIP3    H163691   0.865   5.650   2.921 -0.2971 -0.3531 -0.5155
14092TIP3    H263692   0.723   5.640   2.973  0.5793  0.9854  2.3189
14093TIP3   OH263693   0.576   0.489   1.643  0.3997 -0.0415  0.0826
14093TIP3    H163694   0.604   0.447   1.724 -0.0629  0.0821  0.3133
14093TIP3    H263695   0.557   0.416   1.584  2.2513 -0.1211 -0.4651
14094TIP3   OH263696   1.844   6.571  17.034  0.1848  0.5309 -0.1143
14094TIP3    H163697   1.887   6.642  16.988 -1.5472  2.1026  0.5386
14094TIP3    H263698   1.902   6.496  17.023  2.5209  2.2314 -0.1158
14095TIP3   OH263699   4.279   4.153   5.070  0.2548  0.8505 -0.5564
14095TIP3    H163700   4.185   4.168   5.056 -0.0090  0.5227  0.7351
14095TIP3    H263701   4.298   4.195   5.154  1.0455  0.0645 -0.3242
14096TIP3   OH263702   2.881   1.101   0.402 -0.1818  0.0180 -0.1393
14096TIP3    H163703   2.808   1.051   0.365 -1.5516  2.0986 -0.4350
14096TIP3    H263704   2.939   1.035   0.439 -1.4464 -1.8205 -1.2413
14097TIP3   OH263705   2.952   4.273  11.237  0.4084  0.5805 -0.5480
14097TIP3    H163706   2.904   4.322  11.170  0.2289 -1.7793 -2.2615
14097TIP3    H263707   3.036   4.319  11.244 -0.1636  1.7871 -1.2124
14098TIP3   OH263708   2.348   4.477  16.713 -0.5940 -0.0464 -0.1986
14098TIP3    H163709   2.347   4.412  16.643 -1.0371  0.1447 -0.3735
14098TIP3    H263710   2.328   4.560  16.669  0.4614  0.2984 -0.0584
14099TIP3   OH263711   6.188   3.940  14.105  0.2331  0.2132 -0.2298
14099TIP3    H163712   6.198   3.988  14.187  0.3097 -0.4896  0.1721
14099TIP3    H263713   6.271   3.953  14.059  0.2180  0.5428 -0.1682
14100TIP3   OH263714   0.547   6.525   0.334  0.4150  0.0452 -0.4521
14100TIP3    H163715   0.522   6.616   0.315 -0.3474  0.0628  0.5623
14100TIP3    H263716   0.477   6.472   0.295 -1.4336  0.0973  2.4421
14101TIP3   OH263717   5.566   4.126   1.601 -0.3089 -0.5341 -0.0673
14101TIP3    H163718   5.513   4.057   1.639 -0.6634  0.2669  0.9160
14101TIP3    H263719   5.513   4.205   1.608  0.8481  0.2169  0.6122
14102TIP3   OH263720   1.202   5.908   4.359  0.6631 -0.1200  0.5750
14102TIP3    H163721   1.255   5.858   4.296 -1.0698  1.4079 -2.2922
14102TIP3    H263722   1.120   5.860   4.365  0.5250  0.1734  1.0638
14103TIP3   OH263723   1.193   1.781  16.116  0.2875  0.3183  0.3145
14103TIP3    H163724   1.098   1.788  16.129 -0.2512  0.3569 -2.7889
14103TIP3    H263725   1.218   1.865  16.077  2.2077  1.3902  3.4689
14104TIP3   OH263726   5.076   0.471  13.950  0.3368  0.1769 -0.0840
14104TIP3    H163727   5.171   0.471  13.962  0.3506  0.1618 -0.1884
14104TIP3    H263728   5.041   0.444  14.034  0.4426 -0.2806 -0.1810
14105TIP3   OH263729   6.307   2.315  11.789 -0.2239  0.2309  0.3192
14105TIP3    H163730   6.242   2.274  11.733 -1.2694  1.9174  0.2195
14105TIP3    H263731   6.289   2.409  11.782  2.2544  0.7719  0.2686
14106TIP3   OH263732   1.011   3.286  13.592 -0.0282 -0.4325  0.2999
14106TIP3    H163733   0.935   3.344  13.581  0.0036 -0.5779 -0.8806
14106TIP3    H263734   1.060   3.324  13.665 -0.9017  0.0380  0.6501
14107TIP3   OH263735   1.141   3.658   4.070 -0.4745 -0.5149 -0.5898
14107TIP3    H163736   1.155   3.582   4.126 -1.1562 -0.4583 -0.3409
14107TIP3    H263737   1.085   3.716   4.122  1.8851  1.2172  0.2196
14108TIP3   OH263738   5.397   5.301  15.133  0.2755  0.7507 -0.0585
14108TIP3    H163739   5.303   5.305  15.115  0.2113  1.0144  0.3340
14108TIP3    H263740   5.416   5.207  15.134  0.2804  0.7296 -1.4591
14109TIP3   OH263741   3.106   4.067   1.309 -0.2637 -0.1843 -0.0572
14109TIP3    H163742   3.158   4.137   1.270 -2.0502 -0.4435 -3.2272
14109TIP3    H263743   3.015   4.097   1.301 -0.9627 -2.1050  0.0672
14110TIP3   OH263744   4.969   0.793  15.239  0.4980 -0.6817  0.2225
14110TIP3    H163745   4.953   0.700  15.255 -0.1824 -0.5563  0.3234
14110TIP3    H263746   4.882   0.833  15.245  0.3271 -0.4488 -2.6400
14111TIP3   OH263747   1.728   5.856   5.682  0.2493  0.3542  0.2231
14111TIP3    H163748   1.738   5.768   5.716 -0.1738  0.3946  0.4619
14111TIP3    H263749   1.786   5.859   5.605  0.3271 -0.1014  0.2622
14112TIP3   OH263750   5.378   2.802   3.563 -0.5608  0.0431  0.4381
14112TIP3    H163751   5.444   2.748   3.609 -1.4162 -0.7692  0.7402
14112TIP3    H263752   5.415   2.890   3.564  1.0458 -0.5849 -0.3835
14113TIP3   OH263753   5.755   6.672  17.248 -0.7149 -0.3235 -0.2297
14113TIP3    H163754   5.692   6.743  17.236 -0.9940  0.0256  2.7252
14113TIP3    H263755   5.701   6.595  17.266 -0.3672 -0.2595  1.1828
14114TIP3   OH263756   2.516   4.162  16.889  0.3022 -0.3883  0.2651
14114TIP3    H163757   2.588   4.174  16.950  0.4735 -0.6806  0.1237
14114TIP3    H263758   2.441   4.205  16.931  0.6137  0.1214  0.3001
14115TIP3   OH263759   4.721   4.424   5.198  0.2584 -0.1181 -0.0992
14115TIP3    H163760   4.631   4.454   5.205  0.4371  0.2738  0.7742
14115TIP3    H263761   4.730   4.359   5.268  0.3114 -1.0736 -0.9769
14116TIP3   OH263762   5.478   1.371  11.703 -0.1490  0.2174 -0.3509
14116TIP3    H163763   5.400   1.423  11.723 -0.2268 -0.7301  2.1130
14116TIP3    H263764   5.449   1.311  11.634 -1.4375  0.2963  0.0901
14117TIP3   OH263765   5.366   4.685   0.338  0.1192  0.0792  0.1606
14117TIP3    H163766   5.342   4.605   0.385 -0.6951 -0.2102 -0.7034
14117TIP3    H263767   5.427   4.730   0.396 -0.5983 -0.4223  1.3353
14118TIP3   OH263768   0.823   0.888  14.705 -0.5678  0.2622 -0.0685
14118TIP3    H163769   0.772   0.955  14.751 -1.3525 -0.5067  0.2169
14118TIP3    H263770   0.759   0.822  14.679 -0.1999  0.7996 -2.5975
14119TIP3   OH263771   4.229   2.093   5.381  0.1843 -0.1737  0.1486
14119TIP3    H163772   4.285   2.060   5.311  2.7005  0.7063  1.5773
14119TIP3    H263773   4.187   2.171   5.345  1.0969  0.0130 -0.5431
14120TIP3   OH263774   3.044   2.079   4.073 -0.8364  0.5631 -0.7265
14120TIP3    H163775   3.044   2.143   4.144 -2.2560  1.9536 -1.9169
14120TIP3    H263776   3.136   2.055   4.063 -0.0596  3.3289 -0.9879
14121TIP3   OH263777   4.363   4.402   2.478  0.1227  0.3028 -0.0378
14121TIP3    H163778   4.338   4.479   2.529  1.4825  1.9189 -1.6894
14121TIP3    H263779   4.432   4.360   2.531 -0.6933  0.1169  0.9126
14122TIP3   OH263780   2.336   4.930   5.608  0.1876 -0.0207  0.2157
14122TIP3    H163781   2.422   4.928   5.566  0.5391 -0.4031  0.9415
14122TIP3    H263782   2.323   4.842   5.642 -0.4735  0.0473  0.1592
14123TIP3   OH263783   5.554   2.447  13.552 -0.1590  0.2229 -0.5127
14123TIP3    H163784   5.510   2.505  13.491 -0.5700  2.3120  1.6142
14123TIP3    H263785   5.499   2.449  13.631  1.1044 -1.1598  0.4596
14124TIP3   OH263786   4.321   3.509  10.616  0.0715  0.1880  0.1452
14124TIP3    H163787   4.358   3.436  10.666  0.1015  0.4110  0.4479
14124TIP3    H263788   4.228   3.508  10.638 -0.2072 -0.6377 -0.9377
14125TIP3   OH263789   4.228   6.153  16.610  0.0507 -0.1194 -0.0473
14125TIP3    H163790   4.270   6.191  16.533  2.5916 -0.6164  0.9987
14125TIP3    H263791   4.281   6.075  16.630 -1.3474 -0.7390  1.4278
14126TIP3   OH263792   4.147   3.004   2.244  0.5526  0.1371  0.5977
14126TIP3    H163793   4.181   3.065   2.179 -1.7319 -0.9592 -1.8118
14126TIP3    H263794   4.201   2.926   2.235  0.0697 -0.1122 -0.2421
14127TIP3   OH263795   0.439   1.890   5.330  0.0456 -0.1090 -0.3151
14127TIP3    H163796   0.491   1.866   5.407  0.5033  0.6498 -0.3732
14127TIP3    H263797   0.472   1.833   5.260 -0.0813 -0.5101 -0.0489
14128TIP3   OH263798   4.987   1.444  15.220  0.0012  0.2072  0.0668
14128TIP3    H163799   4.948   1.458  15.133 -0.6645  1.1140  0.4923
14128TIP3    H263800   4.927   1.490  15.280 -1.2235 -2.8668  1.3838
14129TIP3   OH263801   6.710   4.787  10.914 -0.2484  0.2585  0.1289
14129TIP3    H163802   6.792   4.744  10.939  0.6592  1.2921 -0.9685
14129TIP3    H263803   6.664   4.721  10.862 -1.2032 -1.1499  2.5555
14130TIP3   OH263804   3.416   5.485  14.899 -0.3514  0.1623 -0.5165
14130TIP3    H163805   3.510   5.481  14.918 -0.4233  1.6754  0.3502
14130TIP3    H263806   3.398   5.579  14.892 -1.5367 -0.1647 -2.1144
14131TIP3   OH263807   6.256   4.582  17.265  0.1255  0.2107  0.0358
14131TIP3    H163808   6.261   4.565  17.359 -0.1560  0.5423  0.1130
14131TIP3    H263809   6.176   4.537  17.237  1.1467 -1.4121 -0.3860
14132TIP3   OH263810   0.190   0.320  12.369  0.0134  0.2932 -0.3559
14132TIP3    H163811   0.277   0.285  12.349 -0.1921 -0.0269 -0.6983
14132TIP3    H263812   0.134   0.286  12.299 -0.4049  0.4219 -0.0845
14133TIP3   OH263813   0.831   5.782  16.929  0.5390  0.1306  0.3409
14133TIP3    H163814   0.813   5.757  17.019 -2.2784  0.5970  0.0155
14133TIP3    H263815   0.802   5.874  16.923 -0.2501 -0.1796 -1.2334
14134TIP3   OH263816   6.437   2.484   3.888  0.7541 -0.1311  0.4906
14134TIP3    H163817   6.458   2.404   3.839  1.3475  1.1541 -1.4911
14134TIP3    H263818   6.343   2.498   3.872  1.0855  0.6447 -0.9194
14135TIP3   OH263819   3.537   3.669   2.674  0.0133  0.3452 -0.3497
14135TIP3    H163820   3.581   3.596   2.719  0.9851  0.4984 -1.0299
14135TIP3    H263821   3.582   3.747   2.706  0.7902  0.4518 -1.6432
14136TIP3   OH263822   6.366   1.263   1.207  0.0855  0.7128  0.6056
14136TIP3    H163823   6.366   1.221   1.121 -0.1797 -0.5752  1.2123
14136TIP3    H263824   6.370   1.191   1.270  1.2973  1.6472  1.6805
14137TIP3   OH263825   0.811   3.718  15.321 -0.2148  0.5142 -0.3298
14137TIP3    H163826   0.867   3.654  15.365 -0.0481  1.2299  0.5447
14137TIP3    H263827   0.855   3.736  15.238 -0.7084 -1.1131 -0.9733
14138TIP3   OH263828   1.664   5.444   4.510 -0.1688  0.6859  0.0322
14138TIP3    H163829   1.748   5.408   4.539 -0.3069 -0.2800 -0.7147
14138TIP3    H263830   1.610   5.367   4.494 -0.6842  1.2534 -1.0287
14139TIP3   OH263831   1.851   1.325  11.614 -0.2852  0.3760  0.0981
14139TIP3    H163832   1.888   1.249  11.660 -1.9155 -0.6096 -0.1366
14139TIP3    H263833   1.904   1.399  11.643 -0.4654 -0.3929  2.5996
14140TIP3   OH263834   5.647   3.866   5.061 -0.5838 -0.5332  0.4395
14140TIP3    H163835   5.564   3.864   5.108 -0.2550 -4.0936  1.1146
14140TIP3    H263836   5.668   3.774   5.043  3.2220  0.1651  0.3216
14141TIP3   OH263837   1.664   5.608  15.690 -0.1044  0.1652  0.1460
14141TIP3    H163838   1.623   5.672  15.749 -0.5500 -0.4894  0.5607
14141TIP3    H263839   1.749   5.647  15.668  0.4697  0.0330  1.9334
14142TIP3   OH263840   5.000   4.432  14.342  0.0813 -0.1992  0.6639
14142TIP3    H163841   4.923   4.482  14.370  0.6175  1.2208 -0.3269
14142TIP3    H263842   5.008   4.449  14.249  1.3091 -0.7504  0.6434
14143TIP3   OH263843   3.326   1.681   4.696 -0.2571  0.2963 -0.3467
14143TIP3    H163844   3.298   1.764   4.735 -0.9100 -0.3484  0.5872
14143TIP3    H263845   3.268   1.669   4.621 -0.9090  0.1426  0.1758
14144TIP3   OH263846   4.704   4.534  15.042  0.4828  0.0508  0.0942
14144TIP3    H163847   4.619   4.576  15.053  0.4924 -0.1108  0.8098
14144TIP3    H263848   4.721   4.538  14.948  0.0991  0.9031  0.0515
14145TIP3   OH263849   6.125   5.624   0.374  0.1692 -0.1167  0.4921
14145TIP3    H163850   6.217   5.623   0.348  0.3124  0.5997  0.9350
14145TIP3    H263851   6.108   5.535   0.407  0.9590  0.0037  1.2654
14146TIP3   OH263852   4.608   3.364  13.688  0.6014  0.1314  0.6904
14146TIP3    H163853   4.571   3.275  13.684 -0.3543  0.4606  1.8997
14146TIP3    H263854   4.641   3.379  13.599 -1.6461 -0.4220 -0.3124
14147TIP3   OH263855   2.528   0.729   0.649  0.0776 -0.3588 -0.1597
14147TIP3    H163856   2.530   0.679   0.568  0.0725 -1.1212  0.3035
14147TIP3    H263857   2.598   0.794   0.639 -1.6183  1.3581 -1.8798
14148TIP3   OH263858   6.530   0.309   0.780  0.0290  0.3378  0.2914
14148TIP3    H163859   6.504   0.217   0.772  0.2862  0.2992 -0.1329
14148TIP3    H263860   6.568   0.331   0.695  0.2295  0.7567  0.4845
14149TIP3   OH263861   5.803   3.380   0.369  0.4905 -0.1409  0.0125
14149TIP3    H163862   5.728   3.358   0.314  0.4685 -2.7933  0.9506
14149TIP3    H263863   5.812   3.475   0.360 -2.4947  0.1885 -0.7241
14150TIP3   OH263864   2.377   2.180   3.142 -0.0103 -0.0268  0.7451
14150TIP3    H163865   2.286   2.175   3.172 -0.3115  1.1373  0.0982
14150TIP3    H263866   2.371   2.218   3.054  1.0815 -0.3013  0.5328
14151TIP3   OH263867   5.016   2.009   4.224 -0.0988 -0.3343  0.1349
14151TIP3    H163868   5.012   1.948   4.297 -1.1982  0.2222  0.5593
14151TIP3    H263869   4.926   2.035   4.209 -0.0466 -1.2124 -2.1128
14152TIP3   OH263870   5.124   0.699   4.303  0.0435 -0.0096  0.5229
14152TIP3    H163871   5.124   0.655   4.218  0.4493 -0.7296  0.8871
14152TIP3    H263872   5.049   0.660   4.349 -0.2551  0.4729  0.4574
14153TIP3   OH263873   2.340   1.344   2.500 -0.2116 -0.3482  0.0311
14153TIP3    H163874   2.314   1.334   2.592 -0.4889 -1.0736 -0.1165
14153TIP3    H263875   2.321   1.259   2.461  2.1226 -0.8635 -0.1553
14154TIP3   OH263876   3.078   3.027  15.336 -0.0536 -0.4610  0.2667
14154TIP3    H163877   3.111   3.038  15.247 -1.1722  0.2504 -0.0878
14154TIP3    H263878   3.107   2.940  15.362  0.1491 -0.7442 -0.8545
14155TIP3   OH263879   5.314   3.668  11.294 -0.8854 -0.0650 -0.3485
14155TIP3    H163880   5.283   3.618  11.218 -0.1951 -0.4078 -0.4220
14155TIP3    H263881   5.333   3.755  11.260  0.6945 -0.5873 -0.8920
14156TIP3   OH263882   4.020   3.755  12.078  0.1414  0.4280 -0.0771
14156TIP3    H163883   3.925   3.744  12.078 -0.0963  2.1224  1.1889
14156TIP3    H263884   4.038   3.806  11.999  0.2299 -1.1739 -1.1493
14157TIP3   OH263885   4.227   4.922   1.940  0.1595 -0.4653  0.8515
14157TIP3    H163886   4.271   4.840   1.962 -1.2439 -1.8851 -1.1794
14157TIP3    H263887   4.297   4.981   1.916  1.1393 -1.6432  0.7104
14158TIP3   OH263888   2.444   4.947  13.729 -0.2279 -0.2051 -0.2550
14158TIP3    H163889   2.372   4.993  13.686  0.9349  0.5037 -1.5590
14158TIP3    H263890   2.458   4.993  13.811 -0.7798  0.1137 -0.3418
14159TIP3   OH263891   5.498   2.997   2.777 -0.4317  0.0935 -0.2321
14159TIP3    H163892   5.544   3.019   2.858 -2.7992  3.1290  0.5011
14159TIP3    H263893   5.462   2.910   2.792 -1.3407  0.8220  2.3474
14160TIP3   OH263894   2.848   2.390  16.000  0.1408  0.0968  0.0874
14160TIP3    H163895   2.782   2.447  16.040 -0.5437  0.5685 -1.6676
14160TIP3    H263896   2.931   2.437  16.013 -0.1246  0.4561  0.5163
14161TIP3   OH263897   0.294   0.047   2.460 -0.1483 -0.6396 -0.0387
14161TIP3    H163898   0.385   0.040   2.488  0.1186 -0.3305 -0.7961
14161TIP3    H263899   0.258  -0.041   2.473  1.1845 -1.7085 -2.7746
14162TIP3   OH263900   6.223   2.210   6.079  0.2793  0.0686 -0.1748
14162TIP3    H163901   6.141   2.257   6.093 -0.5535 -0.9308 -1.4289
14162TIP3    H263902   6.238   2.213   5.984  0.8265 -1.1280 -0.1593
14163TIP3   OH263903   1.630   4.490   3.714  0.3801  0.0029 -1.0501
14163TIP3    H163904   1.710   4.438   3.718  0.1430 -0.4631 -2.1701
14163TIP3    H263905   1.594   4.485   3.803  1.3760 -0.1048 -0.6363
14164TIP3   OH263906   4.243   2.678   1.520  0.6909  0.1962 -0.3038
14164TIP3    H163907   4.254   2.590   1.485  0.6706  0.4239 -0.8803
14164TIP3    H263908   4.148   2.692   1.520  0.5234 -0.5333  1.6587
14165TIP3   OH263909   2.342   4.524  13.518 -0.2780  0.0708  0.2582
14165TIP3    H163910   2.366   4.437  13.549  2.0817  0.7359  0.4412
14165TIP3    H263911   2.307   4.568  13.596 -0.3077 -0.2998  0.4579
14166TIP3   OH263912   2.813   1.878  15.132 -0.0758  0.2848 -0.5153
14166TIP3    H163913   2.907   1.891  15.141 -0.0779 -0.0597  0.0602
14166TIP3    H263914   2.773   1.951  15.181 -0.1151  0.6089 -1.0203
14167TIP3   OH263915   0.416   5.709  16.530 -0.2437 -0.6364 -0.1223
14167TIP3    H163916   0.331   5.750  16.547 -0.4258 -1.2343  0.5028
14167TIP3    H263917   0.450   5.689  16.618  1.4478  1.3398 -0.2544
14168TIP3   OH263918   6.517   1.640  13.324  0.3029  1.0569 -0.1370
14168TIP3    H163919   6.470   1.656  13.242  0.8106 -1.9492 -1.1156
14168TIP3    H263920   6.608   1.630  13.297  0.3811 -0.6040  0.6676
14169TIP3   OH263921   3.323   3.709   0.799 -0.0834 -0.0269  0.0026
14169TIP3    H163922   3.312   3.636   0.737  0.4537 -0.3535  0.2860
14169TIP3    H263923   3.337   3.785   0.743 -0.5926 -0.1491 -0.2973
14170TIP3   OH263924   2.726   0.016   3.881  0.5263  0.1102  0.6331
14170TIP3    H163925   2.716  -0.032   3.963  2.4039 -1.1146  0.2116
14170TIP3    H263926   2.707   0.107   3.904 -1.7695 -0.5834  1.7648
14171TIP3   OH263927   6.735   6.436  14.970 -0.2356  0.1967 -0.0382
14171TIP3    H163928   6.784   6.387  15.036 -0.6766  1.5606  1.3654
14171TIP3    H263929   6.725   6.375  14.897 -0.5587 -1.7062  1.5199
14172TIP3   OH263930   4.378   3.681   0.335 -0.0385  0.0465 -0.0915
14172TIP3    H163931   4.316   3.610   0.347 -1.0294  0.6412 -1.3434
14172TIP3    H263932   4.349   3.724   0.254  1.1201  1.2613  0.1024
14173TIP3   OH263933   3.550   0.219  15.786 -0.4147 -0.2485 -0.1973
14173TIP3    H163934   3.556   0.124  15.790 -0.9188 -0.2730  0.0659
14173TIP3    H263935   3.521   0.245  15.873  0.1683  0.1830 -0.1305
14174TIP3   OH263936   4.735   1.586   5.257 -0.1381 -0.0591  0.1540
14174TIP3    H163937   4.792   1.663   5.257 -1.3139  0.9022 -2.1880
14174TIP3    H263938   4.654   1.616   5.297 -0.2659 -0.3644  0.1238
14175TIP3   OH263939   2.599   6.365  10.917  0.4138  0.5258  0.4063
14175TIP3    H163940   2.610   6.459  10.931  0.2958  0.3864  1.5447
14175TIP3    H263941   2.669   6.324  10.967 -0.8434 -0.0585  1.7806
14176TIP3   OH263942   0.548   0.286   2.252  0.6627  0.0825  0.4886
14176TIP3    H163943   0.487   0.253   2.187 -1.3225  0.9889  1.8110
14176TIP3    H263944   0.579   0.370   2.216 -0.7018  0.7562  0.8139
14177TIP3   OH263945   1.208   4.779   5.318 -0.6983 -0.5544 -0.3650
14177TIP3    H163946   1.145   4.796   5.248 -1.1945  2.3268  0.6643
14177TIP3    H263947   1.265   4.856   5.319  0.2054 -1.1795  1.4650
14178TIP3   OH263948   4.364   4.142   3.823  0.0970  0.2442 -0.4043
14178TIP3    H163949   4.282   4.093   3.830  0.1429  0.3422  0.9945
14178TIP3    H263950   4.399   4.144   3.912  1.0629  1.1628 -0.7842
14179TIP3   OH263951   2.863   3.369   1.098  0.4469  0.0056 -0.3269
14179TIP3    H163952   2.781   3.325   1.077  0.0352  1.1966 -1.3701
14179TIP3    H263953   2.876   3.353   1.191 -1.3430  0.3692  0.0240
14180TIP3   OH263954   4.920   4.334  16.595  0.1735  0.2822 -0.2435
14180TIP3    H163955   4.867   4.377  16.662  0.6339 -0.7200  0.8102
14180TIP3    H263956   4.941   4.248  16.633  1.9901  0.3954 -0.8929
14181TIP3   OH263957   5.466   3.052   4.076 -0.2443 -0.2872 -0.1520
14181TIP3    H163958   5.466   3.146   4.060  0.2125 -0.3969 -0.8358
14181TIP3    H263959   5.405   3.016   4.012 -3.1558 -0.1383  2.3312
14182TIP3   OH263960   3.028   0.224   3.069 -0.1704  0.3411 -0.4147
14182TIP3    H163961   2.947   0.178   3.093 -0.4114  0.7549 -0.4412
14182TIP3    H263962   3.096   0.181   3.121 -0.3355 -0.2971 -0.7119
14183TIP3   OH263963   5.548   3.968  14.005  0.2255 -0.5281 -0.2426
14183TIP3    H163964   5.479   4.023  13.968 -0.0867 -0.4874  0.3841
14183TIP3    H263965   5.506   3.883  14.017  0.1614 -0.3913  0.5220
14184TIP3   OH263966   0.296   0.195   0.384 -0.5677 -0.2720 -0.0887
14184TIP3    H163967   0.384   0.232   0.385 -0.7582  0.2774  2.4887
14184TIP3    H263968   0.272   0.186   0.476 -3.2498 -0.3049 -0.6934
14185TIP3   OH263969   1.221   1.022  16.573 -0.0431  0.1569  0.4668
14185TIP3    H163970   1.173   0.939  16.565  1.5312 -1.1663  3.1982
14185TIP3    H263971   1.184   1.063  16.651  0.4327  1.1629  0.1779
14186TIP3   OH263972   4.458   0.997  16.007  0.6124 -0.3027 -0.0691
14186TIP3    H163973   4.470   1.021  16.099  1.1292 -0.8215  0.0024
14186TIP3    H263974   4.366   0.970  16.001  0.1907  1.0248 -0.0091
14187TIP3   OH263975   3.106   3.022  13.189  0.3080 -0.1810 -0.2880
14187TIP3    H163976   3.142   3.101  13.230 -0.6902 -0.2914  0.8873
14187TIP3    H263977   3.173   2.955  13.201  0.7205  0.2209 -0.3408
14188TIP3   OH263978   6.768   3.657  12.142 -0.2003 -0.1793 -0.0347
14188TIP3    H163979   6.694   3.597  12.143 -0.1016 -0.3038 -0.1468
14188TIP3    H263980   6.756   3.711  12.220  0.0352 -0.7459  0.4090
14189TIP3   OH263981   2.627   3.453   3.520  0.0158 -0.0484  0.1308
14189TIP3    H163982   2.627   3.359   3.505 -0.5663  0.0060 -0.2292
14189TIP3    H263983   2.561   3.488   3.460  0.0316  0.5591  0.4524
14190TIP3   OH263984   2.128   3.280  12.135  0.6328  0.4034  0.0629
14190TIP3    H163985   2.154   3.372  12.138 -0.2952  0.7808 -1.7364
14190TIP3    H263986   2.051   3.274  12.191  1.2327  0.5085  0.9091
14191TIP3   OH263987   1.553   2.954  12.760  0.4128  0.2513  0.7279
14191TIP3    H163988   1.629   2.958  12.819  0.4063 -0.7176  0.8247
14191TIP3    H263989   1.582   2.898  12.688 -0.5507 -1.0753  1.3216
14192TIP3   OH263990   2.707   1.439  12.822  0.2543  0.9155 -0.1655
14192TIP3    H163991   2.708   1.346  12.844  1.8092  0.2339 -2.6340
14192TIP3    H263992   2.791   1.471  12.851  0.1449  1.2821 -0.2541
14193TIP3   OH263993   5.682   5.424  13.515 -0.2667  0.2563  0.0879
14193TIP3    H163994   5.747   5.486  13.547 -0.0660 -0.7667  1.7693
14193TIP3    H263995   5.603   5.444  13.565 -0.5971  0.0310 -0.3335
14194TIP3   OH263996   6.232   1.421  13.577  0.2480 -0.3492  0.1979
14194TIP3    H163997   6.186   1.499  13.547 -0.3822 -0.2867  1.2806
14194TIP3    H263998   6.164   1.368  13.619  0.2911 -2.2667 -1.9430
14195TIP3   OH263999   4.603   2.718   3.155 -0.3231  0.5429  0.1982
14195TIP3    H164000   4.678   2.731   3.097 -0.3306 -1.3061 -0.2907
14195TIP3    H264001   4.527   2.733   3.099 -0.3251 -0.8906 -0.2263
14196TIP3   OH264002   4.869   5.025   0.382 -0.4734 -0.4698 -0.4884
14196TIP3    H164003   4.893   5.092   0.446 -2.4436 -1.0414  0.9589
14196TIP3    H264004   4.859   5.073   0.300  0.0393  0.6667  0.0902
14197TIP3   OH264005   5.959   2.516  13.688  0.4137  0.5031 -0.2214
14197TIP3    H164006   5.937   2.542  13.777  0.0935 -0.4336 -0.0125
14197TIP3    H264007   5.906   2.573  13.632  0.5394  1.0247  0.1841
14198TIP3   OH264008   1.285   2.390  11.072 -0.0020  0.7469  0.5562
14198TIP3    H164009   1.244   2.364  11.155 -0.2304 -0.6956  0.0254
14198TIP3    H264010   1.379   2.376  11.087 -0.1267 -0.5072  0.2602
14199TIP3   OH264011   4.472   1.801   0.165  0.1885  0.2301  0.0237
14199TIP3    H164012   4.434   1.750   0.236  2.2000 -1.3056  0.0792
14199TIP3    H264013   4.532   1.862   0.208 -0.2149  0.8245 -0.2335
14200TIP3   OH264014   4.225   2.621   0.671 -0.1367  0.1942 -0.4607
14200TIP3    H164015   4.180   2.666   0.599 -0.9861 -0.1564 -0.1545
14200TIP3    H264016   4.316   2.617   0.643 -0.1693  1.4472 -0.8295
14201TIP3   OH264017   4.650   1.671   2.063 -0.2963 -0.3016 -0.7064
14201TIP3    H164018   4.723   1.620   2.029 -0.8557 -0.4182 -1.7895
14201TIP3    H264019   4.572   1.626   2.029 -0.8318  0.5951 -0.7054
14202TIP3   OH264020   5.285   0.629   3.098 -0.9477  0.8195 -0.0866
14202TIP3    H164021   5.251   0.689   3.164 -0.9616  1.4723 -0.6709
14202TIP3    H264022   5.217   0.562   3.090 -0.5961  0.2955  1.1087
14203TIP3   OH264023   5.145   0.176  15.770 -0.6775  0.3795 -0.3222
14203TIP3    H164024   5.103   0.248  15.724 -3.0507 -1.0363 -0.5420
14203TIP3    H264025   5.229   0.165  15.727 -1.4533  1.2099 -2.1512
14204TIP3   OH264026   1.435   1.740   6.604  0.5669  0.4777 -0.1449
14204TIP3    H164027   1.482   1.765   6.525  0.2754 -1.7400 -1.0980
14204TIP3    H264028   1.399   1.654   6.584  1.1049 -0.4997  2.6549
14205TIP3   OH264029   6.776   3.725  11.588 -0.4940  0.1891  0.8009
14205TIP3    H164030   6.758   3.735  11.682 -1.2049 -0.1899  0.7152
14205TIP3    H264031   6.847   3.662  11.584 -0.7488 -0.1229  1.0759
14206TIP3   OH264032   5.491   2.324   0.023  0.3353 -0.3932 -0.1509
14206TIP3    H164033   5.561   2.324  -0.042  1.1919  0.0010  0.7536
14206TIP3    H264034   5.411   2.321  -0.029  1.0095 -2.3829 -1.1983
14207TIP3   OH264035   0.590   3.512  11.972  0.1029  0.3361  0.3931
14207TIP3    H164036   0.684   3.524  11.956  0.2627 -2.4703 -1.3122
14207TIP3    H264037   0.547   3.567  11.907  0.5064  1.4397  1.0206
14208TIP3   OH264038   3.785   4.204   3.089 -0.1003 -0.5188 -0.5077
14208TIP3    H164039   3.753   4.290   3.061  0.0639 -0.2122  0.2145
14208TIP3    H264040   3.736   4.185   3.169  1.4635 -0.0436  0.6176
14209TIP3   OH264041   0.083   5.319   1.616  0.1665  0.4730  0.4490
14209TIP3    H164042   0.078   5.227   1.590  0.5250  0.2344  1.2158
14209TIP3    H264043  -0.003   5.355   1.595  0.4017  0.2718 -0.9764
14210TIP3   OH264044   5.288   6.413   2.096  0.1791 -0.6725  0.3882
14210TIP3    H164045   5.219   6.366   2.051 -0.0314 -0.4752  0.5051
14210TIP3    H264046   5.285   6.502   2.059  1.2135 -0.9992 -0.5497
14211TIP3   OH264047   3.405   4.165   1.089  0.6727  0.4181 -0.3962
14211TIP3    H164048   3.410   4.228   1.016 -0.4089 -0.5484 -1.3352
14211TIP3    H264049   3.452   4.088   1.057  0.7799  0.2368  0.1969
14212TIP3   OH264050   2.894   5.121  12.832 -0.6414  0.4099  0.1375
14212TIP3    H164051   2.983   5.107  12.862  0.0128  2.9718 -0.3331
14212TIP3    H264052   2.839   5.077  12.897  0.9125 -0.1653  1.1126
14213TIP3   OH264053   0.835   2.818   4.752 -0.2279  0.2223 -0.0334
14213TIP3    H164054   0.912   2.827   4.809  0.2160 -0.4495 -0.4955
14213TIP3    H264055   0.760   2.835   4.809  0.2580  0.7489  0.4623
14214TIP3   OH264056   3.245   4.397  15.164  0.5071  0.0070  0.4188
14214TIP3    H164057   3.327   4.388  15.115  0.3420 -0.2542  0.1885
14214TIP3    H264058   3.252   4.330  15.233  0.1144 -0.6154 -0.1301
14215TIP3   OH264059   4.424   5.881   0.510 -0.0021 -0.3051  0.2658
14215TIP3    H164060   4.417   5.932   0.591  0.0300  0.2771 -0.0924
14215TIP3    H264061   4.356   5.815   0.518 -0.5481  0.2610  0.4126
14216TIP3   OH264062   3.288   4.340   4.691 -0.1959 -0.1613  0.3716
14216TIP3    H164063   3.261   4.395   4.617 -0.5618  1.1664  1.4493
14216TIP3    H264064   3.379   4.317   4.672 -0.7089 -1.1070 -1.1954
14217TIP3   OH264065   4.202   5.873  10.518  0.1510 -0.8273 -0.2464
14217TIP3    H164066   4.281   5.907  10.475 -0.8148  1.0276 -0.6956
14217TIP3    H264067   4.132   5.931  10.487 -0.9446 -0.7210  2.2487
14218TIP3   OH264068   0.782   3.106   4.011  0.0812  0.2068 -0.4909
14218TIP3    H164069   0.827   3.188   4.028 -0.6038  0.1832  1.7912
14218TIP3    H264070   0.765   3.070   4.098 -4.0373  0.0572 -1.1718
14219TIP3   OH264071   6.608   3.046  14.090  0.2953  0.0663 -0.3036
14219TIP3    H164072   6.680   3.086  14.040 -0.3870  0.5509 -0.9271
14219TIP3    H264073   6.607   2.955  14.062 -0.7431  0.5572 -2.0307
14220TIP3   OH264074   3.564   4.718   3.132  0.2124  0.6136 -0.2927
14220TIP3    H164075   3.631   4.665   3.174  2.2603  2.4045 -1.1235
14220TIP3    H264076   3.511   4.750   3.205  0.8192 -0.0940  0.4776
14221TIP3   OH264077   1.115   2.823  10.977 -0.2020 -0.0340  0.2418
14221TIP3    H164078   1.130   2.749  10.917  1.1177  1.5998 -1.5599
14221TIP3    H264079   1.191   2.821  11.036 -0.7364 -0.7460  0.9246
14222TIP3   OH264080   1.576   4.071   3.997  0.4030  0.4667 -0.0322
14222TIP3    H164081   1.573   3.976   3.984 -0.7260  0.5803 -0.6851
14222TIP3    H264082   1.487   4.101   3.978  1.0773  1.8329 -1.1919
14223TIP3   OH264083   5.640   6.108  12.076 -0.5161  0.1324  0.8924
14223TIP3    H164084   5.618   6.021  12.044  0.8946  0.2221 -0.4195
14223TIP3    H264085   5.588   6.168  12.022 -1.3759  0.1429  1.6969
14224TIP3   OH264086   1.167   1.126   4.398 -0.2269 -0.2770  0.5003
14224TIP3    H164087   1.098   1.065   4.372 -1.4420  0.4592  1.8486
14224TIP3    H264088   1.239   1.109   4.337 -1.3506 -1.5236 -0.5284
14225TIP3   OH264089   5.320   3.231  16.891  0.3932  0.3261  0.1081
14225TIP3    H164090   5.250   3.204  16.951  2.0068  0.8248  2.3888
14225TIP3    H264091   5.348   3.150  16.848 -0.4425 -0.1727  0.4850
14226TIP3   OH264092   2.391   1.501  17.058  0.5684 -0.3523  0.5159
14226TIP3    H164093   2.367   1.427  17.114  0.1924 -0.0419  0.7703
14226TIP3    H264094   2.308   1.542  17.036  0.7025 -0.5613 -0.4075
14227TIP3   OH264095   0.424   5.678  16.807  0.0523 -0.3869 -0.3976
14227TIP3    H164096   0.500   5.624  16.830  0.0995  0.2108  0.9605
14227TIP3    H264097   0.430   5.754  16.865 -1.7172 -0.4381 -0.0787
14228TIP3   OH264098   6.474   1.348   5.554 -0.3020 -0.7220  0.0054
14228TIP3    H164099   6.467   1.389   5.640 -1.1520  0.1524 -0.4653
14228TIP3    H264100   6.386   1.315   5.537 -0.0017 -1.3850 -0.3043
14229TIP3   OH264101   6.235   4.607  16.462  0.1448  0.5453 -0.0728
14229TIP3    H164102   6.310   4.667  16.464  0.1464  0.5212  0.9556
14229TIP3    H264103   6.269   4.528  16.420  0.0884  1.3117 -1.6383
14230TIP3   OH264104   5.563   5.580   5.133 -0.6117  0.0054 -0.3815
14230TIP3    H164105   5.555   5.515   5.063 -0.2165 -0.8732  0.3789
14230TIP3    H264106   5.606   5.534   5.205  0.5594  1.3651 -0.1612
14231TIP3   OH264107   3.158   5.960   5.413  0.3580  0.0376  0.1627
14231TIP3    H164108   3.172   6.006   5.331  1.4523  2.3642  1.5700
14231TIP3    H264109   3.063   5.967   5.428  0.4165  1.2780  0.0241
14232TIP3   OH264110   6.289   4.704   5.782  0.1866  0.5793 -0.1526
14232TIP3    H164111   6.336   4.781   5.750  1.9765 -0.3944 -0.0031
14232TIP3    H264112   6.307   4.636   5.717  1.4062 -0.6048  1.3448
14233TIP3   OH264113   6.462   2.189  14.636  0.2784 -0.0101 -0.0750
14233TIP3    H164114   6.418   2.146  14.562 -0.7800  0.3854  0.3076
14233TIP3    H264115   6.428   2.278  14.635 -0.1806 -0.1489  1.2101
14234TIP3   OH264116   5.388   2.120  16.394  0.6753 -0.2123 -0.2231
14234TIP3    H164117   5.418   2.132  16.484  0.0045 -0.6194  0.0623
14234TIP3    H264118   5.296   2.094  16.402  0.7186 -0.6405 -1.0063
14235TIP3   OH264119   1.121   2.967   1.365  0.2966  0.5322  0.0519
14235TIP3    H164120   1.148   2.936   1.451 -2.2157 -1.5234  0.2167
14235TIP3    H264121   1.154   2.900   1.304 -1.7933 -0.4846 -0.0291
14236TIP3   OH264122   5.535   4.790  12.397  0.5338 -0.3192 -0.0509
14236TIP3    H164123   5.557   4.769  12.488  0.9141 -0.5542 -0.1956
14236TIP3    H264124   5.619   4.804  12.354  0.3343  0.3355 -0.2424
14237TIP3   OH264125   5.065   3.572   5.639  0.0826  0.2131 -0.0442
14237TIP3    H164126   5.148   3.568   5.687 -0.0381  0.2458  0.1708
14237TIP3    H264127   5.001   3.535   5.700 -0.2714  1.2931  0.2636
14238TIP3   OH264128   3.301   1.132   3.587 -0.0321 -0.2054 -0.4837
14238TIP3    H164129   3.328   1.063   3.526  0.1380  0.0617 -0.7163
14238TIP3    H264130   3.354   1.208   3.562  0.0987 -0.1174  0.0590
14239TIP3   OH264131   0.106   6.319   2.641 -0.1950  0.4709  0.5029
14239TIP3    H164132   0.030   6.377   2.645 -0.8305 -0.3730  0.8242
14239TIP3    H264133   0.088   6.251   2.705  0.2104 -0.4947 -0.3830
14240TIP3   OH264134   0.189   0.801  12.296 -0.0372  0.2329  0.3206
14240TIP3    H164135   0.134   0.878  12.311 -2.3355 -1.4347  1.0283
14240TIP3    H264136   0.199   0.796  12.201  0.4672  1.5724  0.2876
14241TIP3   OH264137   1.175   2.860   2.040 -0.1448  0.5248  0.7436
14241TIP3    H164138   1.219   2.857   1.955 -1.6407  0.5586 -0.0694
14241TIP3    H264139   1.159   2.768   2.062  0.7529  0.4892  1.2816
14242TIP3   OH264140   2.695   5.032  11.299  0.1061 -0.0465  0.0639
14242TIP3    H164141   2.675   4.943  11.326  0.4441 -0.6969 -1.7114
14242TIP3    H264142   2.678   5.034  11.205  0.7825  1.5627 -0.0700
14243TIP3   OH264143   6.564   2.097  12.274  0.1677 -0.2465 -0.3366
14243TIP3    H164144   6.616   2.127  12.200 -0.0034  2.3971  0.5082
14243TIP3    H264145   6.475   2.088  12.240  0.1113  0.8443 -0.5231
14244TIP3   OH264146   1.504   0.400  13.318  0.2019  0.4769 -0.0836
14244TIP3    H164147   1.453   0.378  13.241  0.7789  1.2749 -0.7067
14244TIP3    H264148   1.521   0.316  13.361 -0.3078  0.0541 -0.7034
14245TIP3   OH264149   1.888   1.786   1.492 -0.2016 -0.3132  0.3840
14245TIP3    H164150   1.837   1.797   1.412  0.9513  0.0749 -0.3256
14245TIP3    H264151   1.824   1.760   1.558 -1.0869 -1.2810 -0.8010
14246TIP3   OH264152   2.327   2.565   2.971  0.0757 -0.4157 -0.0225
14246TIP3    H164153   2.317   2.561   2.875 -0.9818  1.5413 -0.0626
14246TIP3    H264154   2.380   2.643   2.986 -0.2209 -0.4042  1.0066
14247TIP3   OH264155   5.774   3.545   0.086  0.2156  0.1362  0.2430
14247TIP3    H164156   5.722   3.609   0.038 -1.0801 -1.0989 -0.0706
14247TIP3    H264157   5.861   3.585   0.092  0.0069  1.0348 -1.7365
14248TIP3   OH264158   2.633   6.297  11.485  0.3407  0.4280  0.2735
14248TIP3    H164159   2.647   6.392  11.481  0.6483  0.3474 -1.5325
14248TIP3    H264160   2.660   6.265  11.399 -1.9124 -1.0181  0.0214
14249TIP3   OH264161   0.016   1.345  12.488 -0.3959  0.7841  0.1918
14249TIP3    H164162   0.049   1.368  12.401  0.0598  0.4908  0.2880
14249TIP3    H264163   0.078   1.385  12.549  1.2145 -1.7697  0.3768
14250TIP3   OH264164   6.263   0.106  15.301 -0.4251  0.0948  0.6691
14250TIP3    H164165   6.302   0.140  15.221  0.2530 -0.7397  0.6315
14250TIP3    H264166   6.173   0.138  15.300  0.3704  2.5373  1.0288
14251TIP3   OH264167   2.354   2.644   2.699 -0.0002 -0.0204 -0.1395
14251TIP3    H164168   2.349   2.687   2.614  1.3038  0.6261  0.0920
14251TIP3    H264169   2.443   2.660   2.730 -0.3267 -0.5656  1.1824
14252TIP3   OH264170   2.129   4.663   5.886 -0.1951 -0.5406  0.0545
14252TIP3    H164171   2.138   4.724   5.960 -0.4811 -0.8706  0.3621
14252TIP3    H264172   2.218   4.650   5.855 -0.0999 -0.2026  0.1837
14253TIP3   OH264173   1.691   3.374  10.579 -0.3034  0.1785 -0.2505
14253TIP3    H164174   1.784   3.393  10.568 -0.0150 -0.2381  1.2767
14253TIP3    H264175   1.688   3.279  10.593 -0.7522  0.4184  1.4526
14254TIP3   OH264176   2.230   5.847   6.032  0.2485 -0.1443 -0.3265
14254TIP3    H164177   2.325   5.853   6.042  0.4437  0.8267 -2.2876
14254TIP3    H264178   2.210   5.755   6.047  1.3603 -0.2045  0.9846
14255TIP3   OH264179   0.195   4.050   1.779 -0.1476 -0.0717 -0.0725
14255TIP3    H164180   0.131   4.011   1.838  1.6304 -2.3520  0.4592
14255TIP3    H264181   0.263   3.984   1.769  2.1662  2.2229 -0.6094
14256TIP3   OH264182   4.320   4.964   5.591  0.0004  0.3145  0.1760
14256TIP3    H164183   4.297   5.048   5.551 -3.8132  0.4792  2.1548
14256TIP3    H264184   4.252   4.904   5.560 -0.7426 -0.5106  3.1131
14257TIP3   OH264185   5.917   0.377   0.041  0.2059 -0.6292  0.5809
14257TIP3    H164186   5.861   0.323   0.096  0.4607 -0.7539  0.7147
14257TIP3    H264187   5.871   0.380  -0.043  0.6052 -1.7494  0.3047
14258TIP3   OH264188   2.971   4.603   2.723 -0.0165  0.5516  0.5094
14258TIP3    H164189   3.028   4.557   2.661 -2.5682  1.5264 -2.8907
14258TIP3    H264190   2.952   4.538   2.791  1.8232 -1.1195 -0.4620
14259TIP3   OH264191   1.873   6.723   2.988  0.4955  0.0788  0.0484
14259TIP3    H164192   1.850   6.641   2.944 -0.8181  0.7453 -0.5608
14259TIP3    H264193   1.898   6.696   3.076  1.9230 -1.1474 -0.6910
14260TIP3   OH264194   0.868   3.298   0.389 -0.4425 -0.4620 -0.4587
14260TIP3    H164195   0.794   3.284   0.447  0.1060  1.2629  0.7515
14260TIP3    H264196   0.884   3.392   0.394  2.6160 -0.9265  0.3634
14261TIP3   OH264197   2.902   6.067   3.465 -0.1431  0.1805  0.1057
14261TIP3    H164198   2.953   6.122   3.524 -1.1407  1.4589 -0.1759
14261TIP3    H264199   2.943   6.078   3.380  0.8992 -1.1569  0.3941
14262TIP3   OH264200   1.645   5.706   3.643  0.0238  0.2698 -0.1536
14262TIP3    H164201   1.676   5.732   3.730  2.1946 -0.5737 -0.6010
14262TIP3    H264202   1.555   5.737   3.640 -0.0287  0.6103  2.2672
14263TIP3   OH264203   0.965   1.736   1.953  0.6512 -0.6612  0.1472
14263TIP3    H164204   1.005   1.738   2.040 -0.0858  1.4764  0.5048
14263TIP3    H264205   0.925   1.823   1.943  0.8335 -0.7903 -2.4015
14264TIP3   OH264206   0.847   3.404   4.041 -0.2989 -0.1026 -0.3988
14264TIP3    H164207   0.929   3.373   4.003  1.0082  1.0830  1.2756
14264TIP3    H264208   0.852   3.500   4.032 -1.7521 -0.0343 -0.7154
14265TIP3   OH264209   4.808   3.946  14.976 -0.0312 -0.2035  0.3773
14265TIP3    H164210   4.787   3.875  14.915  2.0377  0.9903 -1.8936
14265TIP3    H264211   4.848   3.903  15.051  0.0265 -1.5283 -0.3899
14266TIP3   OH264212   5.788   5.861  15.579  0.1414 -0.4150 -0.6051
14266TIP3    H164213   5.792   5.916  15.657 -0.4082 -1.0166 -0.1442
14266TIP3    H264214   5.717   5.898  15.526  0.3096 -0.1958 -0.6790
14267TIP3   OH264215   5.457   0.296  13.727  0.9631  0.5168 -0.5381
14267TIP3    H164216   5.380   0.341  13.761 -1.0839 -1.1069 -2.7199
14267TIP3    H264217   5.470   0.222  13.786  0.9574  0.8726 -0.0832
14268TIP3   OH264218   2.028   5.457   0.010  0.3210 -0.4216  0.2648
14268TIP3    H164219   2.001   5.503  -0.069 -0.1211 -0.1228  0.5879
14268TIP3    H264220   1.950   5.456   0.066  0.8574  0.1182  1.0552
14269TIP3   OH264221   1.523   0.670  16.341 -0.1431  0.2458 -0.0332
14269TIP3    H164222   1.431   0.668  16.367  0.1604 -2.0622  1.0737
14269TIP3    H264223   1.555   0.754  16.375 -2.3691  2.4643 -2.8396
14270TIP3   OH264224   3.276   2.436   3.286  0.3136  0.5645  0.7474
14270TIP3    H164225   3.304   2.528   3.280 -0.5208  0.8558  1.1940
14270TIP3    H264226   3.263   2.421   3.380 -1.8290  0.7160  0.5322
14271TIP3   OH264227   3.235   2.946   4.157 -0.0961  0.0638  0.2179
14271TIP3    H164228   3.141   2.930   4.148 -0.0502  0.4676 -1.2954
14271TIP3    H264229   3.256   3.007   4.086  0.7738  2.3865  2.3226
14272TIP3   OH264230   0.600   4.058  11.773 -0.8546 -0.3066 -0.0489
14272TIP3    H164231   0.530   4.115  11.743 -0.2925  0.7864  0.6504
14272TIP3    H264232   0.617   4.000  11.699 -0.3077  1.5388 -1.4694
14273TIP3   OH264233   1.808   5.276  16.448  0.1786  0.2231 -0.1985
14273TIP3    H164234   1.765   5.342  16.393 -0.7572  0.1576  0.4403
14273TIP3    H264235   1.766   5.193  16.424  0.4477  0.0485 -0.0740
14274TIP3   OH264236   5.009   4.107   0.590 -0.3216  0.1928  0.1762
14274TIP3    H164237   4.971   4.091   0.677 -0.0421 -1.0081  0.0934
14274TIP3    H264238   5.096   4.067   0.595 -0.5439 -0.4574 -0.8605
14275TIP3   OH264239   2.721   1.389   2.191  0.3272  0.0338  0.1295
14275TIP3    H164240   2.627   1.381   2.177  0.4571 -1.3032 -0.1261
14275TIP3    H264241   2.744   1.475   2.155 -1.1322  1.3668  2.2107
14276TIP3   OH264242   2.680   2.363   0.661  0.9664 -0.6874 -0.7128
14276TIP3    H164243   2.636   2.331   0.740 -0.1909  3.0886  0.4109
14276TIP3    H264244   2.773   2.360   0.683  0.7214 -0.7612  0.4021
14277TIP3   OH264245   4.040   2.782   0.235 -1.1189 -0.5270 -0.1222
14277TIP3    H164246   3.948   2.779   0.207 -1.4409 -0.9782  0.9319
14277TIP3    H264247   4.059   2.693   0.262 -0.4803 -0.3438  0.0281
14278TIP3   OH264248   6.279   5.753  15.649  0.0207  0.0519  0.0264
14278TIP3    H164249   6.328   5.831  15.622 -0.3045  0.1446 -0.2926
14278TIP3    H264250   6.192   5.785  15.671  0.1336 -0.0977  0.7108
14279TIP3   OH264251   6.650   3.009  11.441 -0.1283  0.7619  0.2155
14279TIP3    H164252   6.575   3.039  11.493  0.7907  1.6417  1.0797
14279TIP3    H264253   6.642   3.056  11.358  0.2183  1.9309  0.8294
14280TIP3   OH264254   4.884   2.567   1.773 -0.1586  0.0853  0.1576
14280TIP3    H164255   4.964   2.577   1.824  0.1983 -0.3627 -0.3004
14280TIP3    H264256   4.822   2.528   1.835  0.9572 -2.6907 -0.3028
14281TIP3   OH264257   0.318   4.513  11.336 -0.2146  0.4680  0.1261
14281TIP3    H164258   0.406   4.503  11.302 -0.1162 -2.6569  0.9770
14281TIP3    H264259   0.328   4.510  11.431 -1.2494 -0.5576  0.2343
14282TIP3   OH264260   5.761   1.439  11.519  0.1924  0.7165 -0.8163
14282TIP3    H164261   5.779   1.439  11.425  1.2604  0.4191 -0.6327
14282TIP3    H264262   5.750   1.531  11.541  1.8955  0.9736 -0.9122
14283TIP3   OH264263   1.303   1.523   3.233 -0.3029 -0.0122 -0.2934
14283TIP3    H164264   1.282   1.459   3.302 -0.6922 -1.5018 -1.7327
14283TIP3    H264265   1.220   1.567   3.217  0.2474  1.8811  1.6217
14284TIP3   OH264266   3.028   1.010  12.015  0.1018  0.3919 -0.0573
14284TIP3    H164267   2.946   0.961  12.018  0.4621 -0.2212 -0.1611
14284TIP3    H264268   3.055   1.017  12.107  0.9526 -1.1599 -0.1501
14285TIP3   OH264269   4.226   1.487  13.312  0.7337  0.2745  0.0840
14285TIP3    H164270   4.196   1.578  13.314 -1.0714 -0.2684 -0.5778
14285TIP3    H264271   4.205   1.457  13.224 -0.8947 -1.4666  1.0101
14286TIP3   OH264272   3.245   1.838   1.317 -0.6168 -0.5382 -0.7122
14286TIP3    H164273   3.197   1.839   1.235 -2.3008 -2.4997  0.1573
14286TIP3    H264274   3.178   1.852   1.384  0.6873  0.8255  0.3897
14287TIP3   OH264275   0.260   0.209   4.124  0.1038 -0.0388 -0.0605
14287TIP3    H164276   0.284   0.128   4.170  0.2044 -0.2558 -0.4939
14287TIP3    H264277   0.191   0.182   4.064 -1.5486  0.6450  1.4400
14288TIP3   OH264278   0.266   5.015  14.751  0.0452  0.1751 -0.3818
14288TIP3    H164279   0.182   5.041  14.713 -0.1348  0.0289 -0.0853
14288TIP3    H264280   0.330   5.035  14.683 -0.1592  0.8578 -0.3758
14289TIP3   OH264281   5.878   2.958  15.557 -0.0846  0.6654 -0.2766
14289TIP3    H164282   5.790   2.924  15.539 -0.1659  0.5152  0.3831
14289TIP3    H264283   5.910   2.904  15.629  0.1704  1.3635  0.1374
14290TIP3   OH264284   2.395   6.467  16.812  0.3327  0.3204  1.0072
14290TIP3    H164285   2.451   6.535  16.776  0.5540 -0.5545 -0.3610
14290TIP3    H264286   2.316   6.469  16.758  1.1600 -1.8121 -0.4053
14291TIP3   OH264287   0.255   4.407   4.462  1.1243 -0.1251 -0.0466
14291TIP3    H164288   0.270   4.348   4.536  0.8297  1.3944  1.2925
14291TIP3    H264289   0.199   4.357   4.402  1.7456 -1.5572  0.5187
14292TIP3   OH264290   5.315   3.166  11.171  0.0328  0.1216 -0.1253
14292TIP3    H164291   5.343   3.089  11.122 -0.0541 -0.0757  0.1343
14292TIP3    H264292   5.252   3.210  11.114 -1.0726 -0.8109  0.3406
14293TIP3   OH264293   2.868   0.101   5.936 -0.0281 -0.6489 -0.4881
14293TIP3    H164294   2.870   0.166   5.866 -0.9882 -0.7762 -0.6481
14293TIP3    H264295   2.830   0.148   6.011  2.7493  0.0587  0.5844
14294TIP3   OH264296   1.006   2.762  14.977  0.2003 -0.3998 -0.3683
14294TIP3    H164297   0.924   2.771  14.929 -1.2633 -0.3079  2.0144
14294TIP3    H264298   0.980   2.748  15.067  2.8258 -1.2705  0.3435
14295TIP3   OH264299   5.779   5.552   4.739 -0.0599  0.0357 -0.0628
14295TIP3    H164300   5.822   5.504   4.668 -0.3149 -0.4728  0.1274
14295TIP3    H264301   5.789   5.496   4.816 -0.7659  0.0678  0.0573
14296TIP3   OH264302   2.594   2.626   6.236  0.6852  0.0940  0.5133
14296TIP3    H164303   2.571   2.553   6.294  0.5396 -1.0178 -0.8911
14296TIP3    H264304   2.621   2.696   6.295 -1.0583 -0.4078  1.9986
14297TIP3   OH264305   0.066   2.320   5.850  0.4720  0.6847  0.1152
14297TIP3    H164306   0.043   2.388   5.914  2.1115  1.8228 -0.4326
14297TIP3    H264307   0.143   2.278   5.888 -0.5346 -0.9249  0.4529
14298TIP3   OH264308   1.540   2.429   4.571  0.0491 -0.2124  0.3602
14298TIP3    H164309   1.569   2.497   4.631 -0.1996  1.8462 -1.7334
14298TIP3    H264310   1.463   2.466   4.528 -1.0912 -2.4861  0.2815
14299TIP3   OH264311   5.355   2.421  13.096  0.0906 -0.7297 -0.2341
14299TIP3    H164312   5.276   2.469  13.122  0.3405 -0.9790  1.0698
14299TIP3    H264313   5.343   2.404  13.003 -1.2671 -0.5271 -0.1203
14300TIP3   OH264314   2.945   5.596   4.437  0.1637  0.4540  0.2145
14300TIP3    H164315   2.985   5.636   4.359 -0.7186 -0.0783 -0.5366
14300TIP3    H264316   3.000   5.521   4.457  0.3002  0.4900 -0.0193
14301TIP3   OH264317   5.970   1.484   4.702 -0.3564 -0.2977 -0.0364
14301TIP3    H164318   5.875   1.483   4.714 -0.4946  1.1186 -0.8029
14301TIP3    H264319   5.999   1.567   4.740  0.5892 -0.7141  0.1911
14302TIP3   OH264320   2.372   3.844  14.291 -0.2025  0.4379  0.3842
14302TIP3    H164321   2.291   3.859  14.340  1.2424  1.0687  2.7315
14302TIP3    H264322   2.366   3.904  14.216 -0.6889  2.6460  2.0856
14303TIP3   OH264323   2.263   2.129  11.011 -0.0386 -0.0380  0.3264
14303TIP3    H164324   2.192   2.064  11.013  0.7855 -1.2187 -2.9401
14303TIP3    H264325   2.337   2.085  11.051 -0.1683 -0.1326  0.4647
14304TIP3   OH264326   2.458   1.445   2.214 -0.5874  0.5697  0.5117
14304TIP3    H164327   2.392   1.440   2.284 -0.6243 -0.1260  0.4291
14304TIP3    H264328   2.438   1.528   2.169  1.9000  3.2273  3.7659
14305TIP3   OH264329   3.888   4.261   1.755  0.0478 -0.0696 -0.2238
14305TIP3    H164330   3.810   4.212   1.726 -1.0707  1.5462 -0.0662
14305TIP3    H264331   3.855   4.321   1.822  1.6238  0.0230  0.5166
14306TIP3   OH264332   1.784   5.572  13.950  0.3657 -0.4622 -0.5149
14306TIP3    H164333   1.865   5.580  14.001  0.5973 -1.8648 -0.6257
14306TIP3    H264334   1.782   5.480  13.922 -0.3947 -0.0315 -1.9684
14307TIP3   OH264335   5.481   2.115  12.406  0.4183 -0.0842 -0.6165
14307TIP3    H164336   5.465   2.203  12.370 -1.6465  0.2035  0.8064
14307TIP3    H264337   5.447   2.055  12.340  1.3038  0.1871 -1.3388
14308TIP3   OH264338   4.997   1.516  13.288  0.2326 -0.6721  0.5053
14308TIP3    H164339   4.967   1.583  13.350 -0.9104  1.6403 -2.2951
14308TIP3    H264340   4.917   1.476  13.256  0.7330 -1.1535 -0.1560
14309TIP3   OH264341   3.508   0.374   0.816 -0.3192 -0.2804  0.0010
14309TIP3    H164342   3.601   0.358   0.800 -0.2070  1.1016 -1.0116
14309TIP3    H264343   3.480   0.427   0.740 -1.0983  2.1951  1.8725
14310TIP3   OH264344   6.433   0.321   0.247 -0.2547  0.3410  0.1526
14310TIP3    H164345   6.362   0.384   0.264 -0.5217 -0.5682  2.8224
14310TIP3    H264346   6.507   0.353   0.299  1.3421  1.1529 -2.4147
14311TIP3   OH264347   2.904   2.764  15.877  0.1164 -0.3457  0.1771
14311TIP3    H164348   2.985   2.807  15.849 -0.2968  0.3921  0.1063
14311TIP3    H264349   2.877   2.712  15.801 -0.4584  0.8581 -0.4574
14312TIP3   OH264350   3.692   6.186   3.303  0.1478 -0.1640 -0.8221
14312TIP3    H164351   3.721   6.125   3.371 -2.5589  0.4259  1.0525
14312TIP3    H264352   3.608   6.151   3.273  0.6868  0.2916 -2.9881
14313TIP3   OH264353   6.083   1.444   6.578  0.7350 -0.5449 -0.4548
14313TIP3    H164354   6.121   1.521   6.537 -0.9888  0.5859 -0.0397
14313TIP3    H264355   6.132   1.433   6.660  1.5242 -0.3898 -0.9052
14314TIP3   OH264356   5.801   0.394  15.324  0.5180 -0.3112  0.4975
14314TIP3    H164357   5.759   0.331  15.383 -1.1196  0.2630 -0.0158
14314TIP3    H264358   5.749   0.474  15.332  2.4038  0.9652  0.9540
14315TIP3   OH264359   1.452   3.001  15.416 -0.1814  0.0613 -0.2813
14315TIP3    H164360   1.482   3.060  15.347  0.7115  0.5401  0.4848
14315TIP3    H264361   1.526   2.995  15.476 -0.1944 -1.9577 -0.3944
14316TIP3   OH264362   1.023   5.471   5.223 -0.6815  0.2555  0.6237
14316TIP3    H164363   1.091   5.537   5.234 -0.1354  0.0399 -1.2021
14316TIP3    H264364   1.057   5.394   5.270 -0.5018  0.6877  1.2246
14317TIP3   OH264365   2.931   2.425   2.732  0.2033 -0.2339 -0.4154
14317TIP3    H164366   2.997   2.379   2.680 -1.4613  0.8376 -3.7714
14317TIP3    H264367   2.961   2.516   2.734  0.5774 -0.3590  1.2121
14318TIP3   OH264368   2.455   1.914  13.847 -0.1140  0.4514  0.2402
14318TIP3    H164369   2.514   1.929  13.773 -0.3724 -0.8043 -0.2377
14318TIP3    H264370   2.490   1.970  13.917  1.0609  0.4707 -0.3325
14319TIP3   OH264371   6.355   0.397  12.363 -0.2708  0.2935  0.0839
14319TIP3    H164372   6.300   0.378  12.287 -0.1306  1.8503 -0.4342
14319TIP3    H264373   6.348   0.491  12.375  0.3307  0.1738  1.5407
14320TIP3   OH264374   6.134   4.032   2.445 -0.1764 -0.5320  0.3504
14320TIP3    H164375   6.195   4.049   2.374  1.4648  0.0931  1.8575
14320TIP3    H264376   6.189   4.007   2.519 -1.8563 -1.5491  1.3199
14321TIP3   OH264377   6.460   4.982   3.826 -0.4171  0.3648 -0.0201
14321TIP3    H164378   6.527   4.920   3.856  0.0080  0.6372 -0.3858
14321TIP3    H264379   6.380   4.930   3.820 -0.0520 -0.1697 -0.3765
14322TIP3   OH264380   1.497   5.258  14.269 -0.3341  0.5608  0.4035
14322TIP3    H164381   1.463   5.311  14.340 -0.3141 -0.9552  1.6020
14322TIP3    H264382   1.567   5.206  14.309 -0.4862 -0.5099 -0.6509
14323TIP3   OH264383   2.372   6.049   3.553 -0.1813 -0.4922  0.4683
14323TIP3    H164384   2.459   6.034   3.518 -0.1178  0.6701  0.0897
14323TIP3    H264385   2.382   6.123   3.613 -1.2912  1.2074 -1.3362
14324TIP3   OH264386   3.376   0.183  16.277  0.4180  1.2602  0.0495
14324TIP3    H164387   3.431   0.219  16.207  1.1814  0.2564  0.1225
14324TIP3    H264388   3.393   0.240  16.352  2.0711  0.4256  0.3352
14325TIP3   OH264389   2.368   6.085   4.874  0.2023  0.0792  0.8297
14325TIP3    H164390   2.455   6.118   4.896  0.3644 -0.6861  1.3528
14325TIP3    H264391   2.340   6.037   4.951 -0.8622  0.6464  0.8190
14326TIP3   OH264392   6.031   6.051   4.047  0.0264  0.5011 -0.0116
14326TIP3    H164393   6.073   6.080   4.128  0.9321 -0.2550 -0.1981
14326TIP3    H264394   5.982   6.127   4.017 -2.0036  0.2429  2.2910
14327TIP3   OH264395   4.528   1.060  11.150  0.0830  0.5667  0.0247
14327TIP3    H164396   4.542   1.104  11.234  1.2112  0.8612 -0.3128
14327TIP3    H264397   4.565   0.972  11.162  0.3372  0.6433 -0.1959
14328TIP3   OH264398   5.476   0.520   6.381  0.0775 -0.1781  0.6663
14328TIP3    H164399   5.494   0.441   6.331 -0.5562  0.3720 -0.4632
14328TIP3    H264400   5.442   0.488   6.465 -0.1916 -1.0990  0.2211
14329TIP3   OH264401   5.164   5.370  14.101 -0.5173 -0.0054 -0.4237
14329TIP3    H164402   5.130   5.329  14.181 -0.9699 -0.7518 -0.9911
14329TIP3    H264403   5.126   5.458  14.102 -1.0160 -0.2157 -0.1195
14330TIP3   OH264404   6.217   6.127  15.837  0.0995  0.3116  0.0574
14330TIP3    H164405   6.225   6.162  15.748 -0.0066  0.5169  0.1279
14330TIP3    H264406   6.263   6.190  15.892 -2.0587  1.5957  0.4886
14331TIP3   OH264407   4.160   3.620  13.883  0.3887  0.1546  0.1168
14331TIP3    H164408   4.233   3.661  13.930  0.7576 -0.8111  0.4312
14331TIP3    H264409   4.191   3.611  13.793  0.5177  0.0646  0.1708
14332TIP3   OH264410   2.757   2.171   0.983 -0.2472  0.2473 -0.2203
14332TIP3    H164411   2.728   2.105   0.920 -0.8209  0.4865 -0.2227
14332TIP3    H264412   2.699   2.246   0.966 -0.6488  0.1912  0.8232
14333TIP3   OH264413   4.928   6.635  13.842  0.1126 -0.5370  0.4059
14333TIP3    H164414   4.867   6.653  13.913 -1.3520 -0.5273 -0.7836
14333TIP3    H264415   4.916   6.542  13.823  1.0279 -0.7131  0.6274
14334TIP3   OH264416   1.219   1.146   1.455  0.3522  0.4942  0.5773
14334TIP3    H164417   1.183   1.097   1.529 -0.2762 -1.1008 -0.7293
14334TIP3    H264418   1.310   1.117   1.450  0.7731  1.5591  1.4476
14335TIP3   OH264419   2.520   3.180   4.557 -0.3165 -0.7490  0.2376
14335TIP3    H164420   2.503   3.274   4.563  1.8263 -0.1128 -1.9692
14335TIP3    H264421   2.447   3.146   4.504 -0.9259 -0.2888  0.7629
14336TIP3   OH264422   1.853   5.421  12.462  0.2585 -0.1921  0.4096
14336TIP3    H164423   1.947   5.413  12.448  0.2305  1.9643 -1.6590
14336TIP3    H264424   1.841   5.505  12.506 -0.7518  0.0404 -0.2651
14337TIP3   OH264425   6.598   5.790   2.198  0.3029  0.5187  0.7241
14337TIP3    H164426   6.514   5.835   2.198 -0.0302 -0.0917 -0.5180
14337TIP3    H264427   6.578   5.700   2.220  0.7428  0.5401  1.2479
14338TIP3   OH264428   6.270   4.672   0.248 -0.2212 -0.1245 -0.1994
14338TIP3    H164429   6.311   4.759   0.246 -1.2527  0.4078  0.8042
14338TIP3    H264430   6.335   4.616   0.289 -0.6059  0.7982  1.7657
14339TIP3   OH264431   4.886   3.007  13.918  0.6000 -0.0250  0.6029
14339TIP3    H164432   4.898   3.020  13.824 -2.0087 -1.7628 -0.0791
14339TIP3    H264433   4.967   2.965  13.947  1.2456  0.0576 -0.9617
14340TIP3   OH264434   6.203   4.671  11.498  0.3010  0.6813 -0.0989
14340TIP3    H164435   6.108   4.676  11.489  0.4222  0.1099 -2.0610
14340TIP3    H264436   6.231   4.761  11.512 -0.3664  1.1362 -1.5582
14341TIP3   OH264437   6.578   0.338  14.936  0.5031  0.3329  0.4289
14341TIP3    H164438   6.541   0.418  14.899  0.6152  0.3334  0.3167
14341TIP3    H264439   6.630   0.369  15.010  0.7024  0.3848  0.2691
14342TIP3   OH264440   5.931   5.580  16.734  0.1717  0.2555  0.3778
14342TIP3    H164441   6.021   5.554  16.753 -0.1268 -0.8802  0.3039
14342TIP3    H264442   5.910   5.536  16.652 -0.8030 -0.3373  0.9393
14343TIP3   OH264443   0.884   6.778   3.000 -0.4646  0.0283  0.1366
14343TIP3    H164444   0.892   6.837   2.925 -2.6594  0.7797  0.3889
14343TIP3    H264445   0.973   6.769   3.034  0.4766  0.1712 -2.1504
14344TIP3   OH264446   3.630   3.434   6.310  0.0956 -0.1420 -0.1921
14344TIP3    H164447   3.604   3.460   6.222  1.4969 -0.1446 -0.6380
14344TIP3    H264448   3.583   3.494   6.367 -0.1151  0.4718 -0.9896
14345TIP3   OH264449   6.348   6.555  14.137  0.1485 -0.1224 -0.0361
14345TIP3    H164450   6.372   6.634  14.186 -0.9889  1.0544 -1.3087
14345TIP3    H264451   6.287   6.509  14.195  0.5280  0.0959  0.5543
14346TIP3   OH264452   2.781   0.427  16.836 -0.7442 -0.1068 -0.2913
14346TIP3    H164453   2.805   0.479  16.760 -1.0578  0.1276 -0.2308
14346TIP3    H264454   2.705   0.472  16.873  0.5653  0.8938  1.3020
14347TIP3   OH264455   0.875   1.127   1.522  0.1671 -0.2793  0.4158
14347TIP3    H164456   0.801   1.155   1.468  0.4253 -0.0370  0.1795
14347TIP3    H264457   0.914   1.209   1.553 -0.2656 -0.4168  1.3760
14348TIP3   OH264458   1.397   2.858  13.148 -0.4783  0.1726 -0.5070
14348TIP3    H164459   1.469   2.877  13.088 -0.9618 -0.5914 -1.3629
14348TIP3    H264460   1.439   2.833  13.229  0.1965  1.0789 -0.5660
14349TIP3   OH264461   0.046   0.317  13.421 -0.6333 -0.5770 -0.8152
14349TIP3    H164462   0.084   0.284  13.502 -0.2922 -0.7806 -1.0551
14349TIP3    H264463  -0.026   0.374  13.449 -0.1920 -0.2347 -0.3602
14350TIP3   OH264464   4.883   2.817  15.759  0.7420 -0.1220 -0.5765
14350TIP3    H164465   4.790   2.815  15.783  1.2462  2.3920  2.2930
14350TIP3    H264466   4.887   2.874  15.683 -0.0654 -0.1202 -0.6273
14351TIP3   OH264467   3.857   6.075  13.370  0.0714  0.2451  0.5342
14351TIP3    H164468   3.878   6.146  13.430 -0.8564  0.3645  0.7370
14351TIP3    H264469   3.897   6.100  13.287 -2.4882  2.3992 -0.1872
14352TIP3   OH264470   4.474   6.449  11.734  1.4631 -0.5845  0.4430
14352TIP3    H164471   4.436   6.537  11.736 -0.9878 -1.5618  3.1069
14352TIP3    H264472   4.452   6.416  11.647  0.5422  0.6640  0.1651
14353TIP3   OH264473   3.708   4.455   5.065  0.3872  0.2540 -0.5979
14353TIP3    H164474   3.798   4.478   5.090  0.4119  0.6107 -0.9999
14353TIP3    H264475   3.707   4.465   4.970 -0.2952  0.9963 -0.5147
14354TIP3   OH264476   2.824   4.720  14.006  0.6304 -0.0236 -0.1259
14354TIP3    H164477   2.807   4.813  13.990  0.9921  0.6254  2.7412
14354TIP3    H264478   2.737   4.679  14.004 -0.1190  1.1961  2.6979
14355TIP3   OH264479   4.336   0.895   3.177  0.3202 -0.5364 -0.8567
14355TIP3    H164480   4.244   0.919   3.187  0.7217  0.3697  1.4380
14355TIP3    H264481   4.359   0.856   3.262  2.5884  1.3295 -0.5104
14356TIP3   OH264482   2.908   4.062   4.379 -0.1558  0.5061 -0.3531
14356TIP3    H164483   2.996   4.026   4.375  0.0720  1.0765 -0.8124
14356TIP3    H264484   2.878   4.061   4.288 -0.7641 -0.0117 -0.1526
14357TIP3   OH264485   5.580   5.778   3.237 -0.1180 -0.4177  0.0350
14357TIP3    H164486   5.545   5.700   3.280 -1.4431 -0.8136 -1.6861
14357TIP3    H264487   5.526   5.850   3.270 -1.1549 -0.7265 -0.9117
14358TIP3   OH264488   6.217   6.637   1.598  0.1537  0.3115  0.4161
14358TIP3    H164489   6.272   6.715   1.587  1.2148 -0.2484  1.5404
14358TIP3    H264490   6.127   6.671   1.597  0.5191  1.3339 -0.7265
14359TIP3   OH264491   3.365   0.276   3.605  0.0674  0.0559  0.1776
14359TIP3    H164492   3.428   0.341   3.637 -0.8617  0.6705  0.7785
14359TIP3    H264493   3.316   0.250   3.683 -2.1498  1.4761 -0.6660
14360TIP3   OH264494   0.530   6.611   5.322 -0.0370  0.2991 -0.1132
14360TIP3    H164495   0.545   6.665   5.245  1.3385  0.9424  0.5820
14360TIP3    H264496   0.444   6.638   5.354  0.7153  2.2569  0.3445
14361TIP3   OH264497   5.662   2.971  13.383  0.4045  0.1818  0.6755
14361TIP3    H164498   5.656   2.928  13.469  0.4510 -1.6254 -0.1709
14361TIP3    H264499   5.684   2.900  13.322  0.7863  1.4911 -0.7832
14362TIP3   OH264500   2.582   4.288  13.949  0.2719  0.0564 -0.5319
14362TIP3    H164501   2.660   4.232  13.946 -0.6828 -1.3529 -0.0608
14362TIP3    H264502   2.521   4.242  14.007 -0.9373  1.1023 -0.9160
14363TIP3   OH264503   5.487   1.286   0.780 -0.0625 -0.4975  0.2717
14363TIP3    H164504   5.575   1.291   0.744  0.1827 -0.0633  0.8964
14363TIP3    H264505   5.432   1.330   0.715  0.0120 -1.6523 -0.5922
14364TIP3   OH264506   4.989   6.501  14.348 -0.0615  0.2892 -0.0950
14364TIP3    H164507   5.047   6.506  14.271  1.2409 -1.5161  0.6995
14364TIP3    H264508   5.006   6.582  14.396  2.8385 -0.7092  0.7505
14365TIP3   OH264509   5.665   4.064  14.937 -0.5221 -0.2817 -0.2387
14365TIP3    H164510   5.759   4.050  14.928 -0.6754 -1.2355 -0.3691
14365TIP3    H264511   5.657   4.129  15.008  0.3429  1.8316 -1.9578
14366TIP3   OH264512   0.560   6.468  14.814  0.1908  0.2259  0.2937
14366TIP3    H164513   0.509   6.500  14.889  0.4290 -1.0075  1.0132
14366TIP3    H264514   0.648   6.453  14.850  0.0321 -1.4323  0.0775
14367TIP3   OH264515   2.083   1.178  11.735 -0.1861  0.0109 -0.7743
14367TIP3    H164516   2.014   1.170  11.800 -1.6754  0.7175 -2.1941
14367TIP3    H264517   2.059   1.116  11.666  0.6807  0.1574 -1.2302
14368TIP3   OH264518   5.803   4.532  15.351  0.6774 -0.1267 -0.1247
14368TIP3    H164519   5.881   4.521  15.297  0.2722  1.7407 -1.1744
14368TIP3    H264520   5.732   4.543  15.289 -0.2652 -0.6126  0.8235
14369TIP3   OH264521   0.343   2.764  14.213 -0.1653 -0.5664 -0.1939
14369TIP3    H164522   0.436   2.770  14.234 -0.5355  1.8726  1.2251
14369TIP3    H264523   0.317   2.678  14.245  1.2806 -0.6188  0.9897
14370TIP3   OH264524   4.936   2.446   0.139 -0.0368  0.4410  0.0648
14370TIP3    H164525   4.880   2.452   0.062 -0.3013  2.0936  0.3344
14370TIP3    H264526   4.880   2.472   0.212  0.1051 -1.4756  0.8997
14371TIP3   OH264527   0.396   2.103   0.057  0.1002 -0.6479  0.0413
14371TIP3    H164528   0.405   2.058  -0.027 -0.7136 -0.2746 -0.2544
14371TIP3    H264529   0.479   2.087   0.102  0.1750 -1.6457 -0.4393
14372TIP3   OH264530   6.765   5.856   1.181 -0.0248 -0.5580  0.4633
14372TIP3    H164531   6.692   5.794   1.192 -0.9110  0.4977  0.7584
14372TIP3    H264532   6.814   5.850   1.264 -1.5047  0.8558  1.4967
14373TIP3   OH264533   5.979   3.326   1.825  0.1528  0.1012 -0.3642
14373TIP3    H164534   5.886   3.336   1.803 -0.0281 -2.3789 -1.0918
14373TIP3    H264535   6.023   3.396   1.777 -1.2401  0.6631 -0.8715
14374TIP3   OH264536   2.858   5.427  16.746 -0.6558 -0.2028  0.3094
14374TIP3    H164537   2.852   5.372  16.824  0.0209  0.1539  0.6216
14374TIP3    H264538   2.792   5.392  16.686 -3.1600  1.1737  2.0684
14375TIP3   OH264539   0.491   5.406  13.610 -0.2133 -0.0071  0.2377
14375TIP3    H164540   0.452   5.321  13.592  0.9225 -0.4845 -0.0386
14375TIP3    H264541   0.540   5.394  13.691  0.2153  0.2819  0.0305
14376TIP3   OH264542   0.865   3.022  11.466  0.5334  0.0571  0.0688
14376TIP3    H164543   0.891   3.063  11.549  1.8251 -1.8852  0.7094
14376TIP3    H264544   0.778   2.985  11.484  0.8855 -0.5200  0.6635
14377TIP3   OH264545   3.096   0.929   0.248  0.0751 -0.0076 -0.2318
14377TIP3    H164546   3.125   0.949   0.159  1.0121 -0.9463 -0.1676
14377TIP3    H264547   3.134   0.998   0.302  0.4286 -0.0405 -0.4327
14378TIP3   OH264548   3.673   0.986   0.287 -0.0019  0.0984 -0.4081
14378TIP3    H164549   3.679   0.922   0.358 -0.0943  2.3276  1.6915
14378TIP3    H264550   3.579   0.989   0.266 -0.1746  0.5030  0.4058
14379TIP3   OH264551   5.382   0.617   0.296 -0.5802 -0.0902  0.7921
14379TIP3    H164552   5.363   0.527   0.272  0.4924 -0.2770  0.5691
14379TIP3    H264553   5.450   0.610   0.364  1.4316  0.5475 -1.0349
14380TIP3   OH264554   1.811   2.456  14.033  0.5272 -0.3924 -0.4241
14380TIP3    H164555   1.832   2.374  13.987  1.4540  0.4035 -1.4924
14380TIP3    H264556   1.873   2.520  13.997  1.3337  0.3018  1.9815
14381TIP3   OH264557   2.390   4.860  12.521 -0.4718  0.3494  0.7029
14381TIP3    H164558   2.338   4.805  12.580 -0.2338  0.5894  1.1489
14381TIP3    H264559   2.377   4.822  12.434 -0.8989  0.0395  0.8991
14382TIP3   OH264560   0.238   2.735  16.039 -0.3261  0.0801  0.3623
14382TIP3    H164561   0.326   2.715  16.008 -0.2820 -0.9578  1.1047
14382TIP3    H264562   0.181   2.677  15.988 -0.3405 -0.9609  1.5263
14383TIP3   OH264563   0.954   5.924   1.381  0.5325 -1.5646 -0.3545
14383TIP3    H164564   0.899   5.983   1.330  0.0131 -0.9207  0.9096
14383TIP3    H264565   0.893   5.874   1.436  1.1680  1.4825  3.5729
14384TIP3   OH264566   3.788   1.413   1.213  0.4483  0.4373 -0.1818
14384TIP3    H164567   3.696   1.396   1.234  0.7737  0.4742  1.3492
14384TIP3    H264568   3.790   1.416   1.117 -1.4843  2.3474 -0.2317
14385TIP3   OH264569   3.470   3.527  12.370  0.0128 -0.5617  0.3003
14385TIP3    H164570   3.459   3.485  12.285 -0.6198  1.8992 -0.9204
14385TIP3    H264571   3.534   3.596  12.354  1.6871 -1.4904  2.4424
14386TIP3   OH264572   1.655   2.796   0.791  0.0512 -0.1637 -0.4847
14386TIP3    H164573   1.652   2.706   0.758 -0.3394 -0.9998  1.6499
14386TIP3    H264574   1.737   2.832   0.757  0.1122 -1.2625 -1.5343
14387TIP3   OH264575   1.564   2.680   3.827 -0.1672  0.8663 -0.4118
14387TIP3    H164576   1.628   2.723   3.771  0.6940 -2.8900 -2.6927
14387TIP3    H264577   1.615   2.621   3.882 -1.3841  0.8811  0.7909
14388TIP3   OH264578   5.127   2.207   5.809 -0.4036  0.0897  0.2846
14388TIP3    H164579   5.127   2.256   5.892 -1.0224 -0.7716  0.8150
14388TIP3    H264580   5.219   2.185   5.794 -0.2046  0.8453  0.3830
14389TIP3   OH264581   3.920   3.145   5.798  0.3728  0.3701  0.1461
14389TIP3    H164582   3.974   3.109   5.728  2.7822 -0.2574  2.1506
14389TIP3    H264583   3.959   3.110   5.878 -2.1448  1.1591  1.8366
14390TIP3   OH264584   4.950   5.592   5.548  0.4492 -0.0901  0.4823
14390TIP3    H164585   4.906   5.507   5.541  1.9542 -0.8589 -0.2762
14390TIP3    H264586   4.926   5.624   5.634 -1.4768 -0.4940  0.1538
14391TIP3   OH264587   1.558   5.729  11.484 -0.1786 -0.3733  0.0796
14391TIP3    H164588   1.647   5.717  11.519  0.2197  2.2695  0.1413
14391TIP3    H264589   1.530   5.814  11.517 -2.7951 -1.1556  0.0882
14392TIP3   OH264590   3.191   5.510   3.852 -0.5663 -0.8704  0.1071
14392TIP3    H164591   3.124   5.473   3.909 -0.2771  0.4384  1.3631
14392TIP3    H264592   3.157   5.596   3.827 -0.3733 -1.1415 -1.1625
14393TIP3   OH264593   6.640   0.070  13.724 -0.0842 -0.2180  0.4383
14393TIP3    H164594   6.577   0.063  13.653  1.3575 -4.3090 -0.6920
14393TIP3    H264595   6.626  -0.009  13.777  3.5278 -0.9882  0.5071
14394TIP3   OH264596   4.621   6.087  16.103 -0.2302 -0.2845 -0.4272
14394TIP3    H164597   4.710   6.096  16.137 -0.6228  4.1696  0.0244
14394TIP3    H264598   4.582   6.017  16.155  2.1805 -0.5037  1.2395
14395TIP3   OH264599   5.625   2.953   2.143  0.2426  0.0553 -0.5861
14395TIP3    H164600   5.663   2.874   2.181 -0.3418 -1.5275 -3.1019
14395TIP3    H264601   5.533   2.932   2.127  0.1993  1.0180 -1.8220
14396TIP3   OH264602   6.405   3.391  16.942  0.3283 -0.3443  0.2890
14396TIP3    H164603   6.468   3.457  16.970 -1.4201  0.7947  1.7584
14396TIP3    H264604   6.432   3.369  16.853  2.3422  0.6040  0.5856
14397TIP3   OH264605   4.194   3.416  14.198  0.5844 -0.0103 -0.2714
14397TIP3    H164606   4.217   3.357  14.127  0.4411 -1.1264  0.5841
14397TIP3    H264607   4.277   3.436  14.241  0.7068  0.8701 -0.8774
14398TIP3   OH264608   2.524   4.745  15.729  0.0405  0.4180 -0.1275
14398TIP3    H164609   2.462   4.684  15.769 -0.9591  0.5517 -1.3897
14398TIP3    H264610   2.579   4.690  15.673 -0.4333  0.5707 -0.7570
14399TIP3   OH264611   0.533   3.699   5.233 -0.0544 -0.3631  0.6307
14399TIP3    H164612   0.469   3.628   5.225 -0.7942  0.4472 -2.2576
14399TIP3    H264613   0.481   3.773   5.266  0.4196 -0.7957  2.3995
14400TIP3   OH264614   2.180   4.184   4.592  0.1201  0.6898 -0.2755
14400TIP3    H164615   2.119   4.120   4.627  1.2603 -0.2283  0.0991
14400TIP3    H264616   2.159   4.265   4.639 -1.1442  0.5354 -0.5458
14401TIP3   OH264617   4.027   2.623  14.916  0.3572  0.5533  0.6123
14401TIP3    H164618   4.065   2.550  14.868 -0.0247  0.2209  0.8099
14401TIP3    H264619   4.095   2.690  14.916  0.0135  0.9320 -1.1999
14402TIP3   OH264620   3.061   2.291   4.261  0.0681  0.0305 -0.6150
14402TIP3    H164621   2.977   2.335   4.278 -0.3634 -0.1340 -2.1303
14402TIP3    H264622   3.127   2.359   4.277 -0.5285  0.9435 -1.7935
14403TIP3   OH264623   4.275   3.107   2.755 -0.2452 -0.8708 -0.0462
14403TIP3    H164624   4.251   3.096   2.663 -0.3146 -2.0352  0.0925
14403TIP3    H264625   4.361   3.066   2.762  0.7583  1.1392 -0.0307
14404TIP3   OH264626   2.339   3.337   1.540  0.5710 -0.2747 -0.3697
14404TIP3    H164627   2.383   3.337   1.455  0.7609  2.0494 -0.3565
14404TIP3    H264628   2.251   3.368   1.522  0.8955  1.1810  0.3325
14405TIP3   OH264629   4.189   5.407   1.741 -0.2694  0.2371  0.4992
14405TIP3    H164630   4.242   5.391   1.820  0.7917 -3.4043 -0.7302
14405TIP3    H264631   4.252   5.406   1.669 -1.6395 -1.9917 -0.8096
14406TIP3   OH264632   4.248   1.906  15.530 -0.3361 -0.2850  0.5675
14406TIP3    H164633   4.277   1.902  15.621  1.1125  3.2017  0.4166
14406TIP3    H264634   4.224   1.998  15.516  1.4759 -0.1843 -3.0792
14407TIP3   OH264635   6.151   0.609   1.810 -0.0710 -0.5144  0.0014
14407TIP3    H164636   6.238   0.637   1.839  0.9311 -0.2778 -2.9500
14407TIP3    H264637   6.116   0.684   1.762 -1.3749 -1.0703  0.0345
14408TIP3   OH264638   6.330   3.436   5.315  0.5447  0.0026 -0.3107
14408TIP3    H164639   6.272   3.447   5.240  2.6067  1.2870 -1.8220
14408TIP3    H264640   6.272   3.436   5.391 -1.3813  1.7674 -1.6794
14409TIP3   OH264641   4.661   2.699   1.956 -0.3373  0.1567  0.0453
14409TIP3    H164642   4.755   2.703   1.972  0.2308  0.7875 -2.8277
14409TIP3    H264643   4.643   2.605   1.943  0.5561  0.2424 -2.2851
14410TIP3   OH264644   6.650   1.844  11.540  0.7191  0.2074 -0.5600
14410TIP3    H164645   6.556   1.862  11.540  0.8987  1.2907  1.0500
14410TIP3    H264646   6.662   1.781  11.469 -1.1364  0.4548 -1.1416
14411TIP3   OH264647   1.966   6.179  17.141 -0.1914  0.4559  0.0191
14411TIP3    H164648   1.987   6.238  17.068 -1.1268 -0.3953 -0.9830
14411TIP3    H264649   1.885   6.213  17.177 -0.2779  0.2872 -0.0146
14412TIP3   OH264650   5.919   5.031   0.027 -0.0357  0.0231 -0.0888
14412TIP3    H164651   5.979   5.098   0.062  0.0910  0.4235 -1.0485
14412TIP3    H264652   5.964   4.996  -0.049  0.8465 -2.6891  1.5481
14413TIP3   OH264653   4.960   3.197   3.031 -0.1912 -0.0093  0.4286
14413TIP3    H164654   4.868   3.216   3.049 -0.9184 -2.0092 -0.8385
14413TIP3    H264655   4.980   3.123   3.089  0.2185 -0.3810 -0.1738
14414TIP3   OH264656   3.056   4.955   0.008 -0.0706 -0.2528 -0.5453
14414TIP3    H164657   3.084   4.919   0.092 -1.9472  0.6834  0.5214
14414TIP3    H264658   2.970   4.917  -0.008 -0.4867  0.8976 -1.2052
14415TIP3   OH264659   3.574   4.420  17.128 -0.3744 -0.0454 -0.2729
14415TIP3    H164660   3.636   4.384  17.192  0.6758 -0.0122 -1.2422
14415TIP3    H264661   3.500   4.449  17.181  1.1521  1.4901  1.1374
14416TIP3   OH264662   6.100   5.031   5.792 -0.1673 -0.2224  0.4150
14416TIP3    H164663   6.011   5.002   5.812 -0.1598  0.8705  2.2422
14416TIP3    H264664   6.090   5.098   5.724 -0.8294  0.4577  1.1681
14417TIP3   OH264665   5.512   2.941  17.235 -0.3355  0.0320 -0.3651
14417TIP3    H164666   5.479   2.978  17.317  0.7740  0.4062 -0.0721
14417TIP3    H264667   5.607   2.938  17.247 -0.0126  1.3402 -2.1225
14418TIP3   OH264668   4.836   3.305  16.564 -0.7579  0.0351 -0.3716
14418TIP3    H164669   4.917   3.315  16.615  0.1250  0.1079 -1.7300
14418TIP3    H264670   4.836   3.213  16.538 -2.7615 -0.8182  2.1892
14419TIP3   OH264671   2.185   2.818   2.333 -0.3432 -0.1218 -0.3094
14419TIP3    H164672   2.231   2.736   2.314  1.5923 -0.7890  5.2979
14419TIP3    H264673   2.249   2.886   2.312  0.5741 -0.5923  0.7979
14420TIP3   OH264674   1.660   3.934  10.775  0.8387  0.0580  0.6343
14420TIP3    H164675   1.646   4.026  10.752  2.4721  0.2379  0.1915
14420TIP3    H264676   1.733   3.907  10.719  0.0501 -1.6667  0.3866
14421TIP3   OH264677   4.845   0.522  16.209  0.0431 -0.0285  0.6115
14421TIP3    H164678   4.881   0.592  16.263 -1.6697  1.4904 -0.1050
14421TIP3    H264679   4.750   0.530  16.219 -0.2094 -2.4803  0.7377
14422TIP3   OH264680   2.781   3.293   0.008 -0.1621  0.3255  0.1691
14422TIP3    H164681   2.809   3.381   0.032 -0.5083  0.7493 -0.9035
14422TIP3    H264682   2.704   3.306  -0.048 -0.8728 -0.7035  0.8636
14423TIP3   OH264683   4.513   3.020   5.028 -0.0595 -0.5470 -0.5388
14423TIP3    H164684   4.425   2.989   5.006  0.2757 -1.5874 -0.4841
14423TIP3    H264685   4.503   3.114   5.044 -0.8361 -0.3232 -2.2388
14424TIP3   OH264686   3.551   2.453  16.044  0.1675 -0.1735  0.1176
14424TIP3    H164687   3.470   2.420  16.004  0.0549 -0.5675  0.6593
14424TIP3    H264688   3.536   2.547  16.053  0.6789  0.1403 -1.8855
14425TIP3   OH264689   4.379   0.399   3.981 -0.7744 -0.2231 -0.1402
14425TIP3    H164690   4.413   0.485   3.955 -1.2642 -0.8578 -3.2668
14425TIP3    H264691   4.293   0.394   3.939 -1.2444 -1.8003  0.9535
14426TIP3   OH264692   4.346   3.960   2.898 -0.0190  0.4233 -0.0561
14426TIP3    H164693   4.360   3.867   2.916  0.5998  0.7166  1.0390
14426TIP3    H264694   4.251   3.968   2.888 -0.3712  0.0753  2.3738
14427TIP3   OH264695   0.045   2.979  10.789  0.7872 -0.0809  0.1081
14427TIP3    H164696   0.035   3.060  10.840  0.5156 -0.1549  0.1702
14427TIP3    H264697   0.121   2.996  10.733  1.8167 -0.4257  1.3501
14428TIP3   OH264698   2.229   2.974   6.161 -0.4996  0.8190  0.0621
14428TIP3    H164699   2.218   2.930   6.246  2.2137  1.1248  0.6751
14428TIP3    H264700   2.204   3.065   6.177 -1.7827  0.5007 -0.0092
14429TIP3   OH264701   5.012   6.701  12.622  0.3014 -0.0984 -0.2196
14429TIP3    H164702   5.009   6.768  12.690  1.1921  0.7867 -1.0060
14429TIP3    H264703   4.921   6.692  12.594  0.0085 -0.0590  0.6829
14430TIP3   OH264704   1.947   5.474   0.326 -0.0356  0.1436  0.4956
14430TIP3    H164705   2.038   5.451   0.343 -0.2991 -0.3194  1.3515
14430TIP3    H264706   1.938   5.563   0.362 -0.1217 -0.1281  1.1658
14431TIP3   OH264707   0.883   4.454  12.849  0.4736 -0.0196 -0.2577
14431TIP3    H164708   0.794   4.433  12.821  0.8570  0.7760 -2.2653
14431TIP3    H264709   0.885   4.550  12.853  0.4147 -0.0467  2.8560
14432TIP3   OH264710   1.583   1.916   6.093 -0.5440 -0.8442 -0.1429
14432TIP3    H164711   1.675   1.889   6.091  0.1100  1.2041 -0.9363
14432TIP3    H264712   1.561   1.933   6.001 -0.6152  1.8433  0.2808
14433TIP3   OH264713   5.730   1.228   3.582  0.2641 -0.4097  0.6736
14433TIP3    H164714   5.790   1.163   3.545 -0.7692 -1.1804  0.3133
14433TIP3    H264715   5.705   1.192   3.667  0.9020  0.2996  1.1889
14434TIP3   OH264716   3.600   5.489  12.665 -0.4069 -0.0325  0.2753
14434TIP3    H164717   3.677   5.478  12.721  1.1236 -1.6610 -2.0025
14434TIP3    H264718   3.534   5.528  12.723  1.7304  0.3657  2.6077
14435TIP3   OH264719   2.763   3.905   2.298 -0.4706 -0.9340  0.9301
14435TIP3    H164720   2.850   3.919   2.336 -0.1159  2.0679 -0.7658
14435TIP3    H264721   2.705   3.958   2.352 -0.2854  1.6104 -1.1715
14436TIP3   OH264722   1.247   6.471  15.523  0.0140  0.3152  0.4522
14436TIP3    H164723   1.245   6.418  15.443  0.1134  0.1966  0.5277
14436TIP3    H264724   1.156   6.500  15.534 -0.0861 -0.0180  0.5262
14437TIP3   OH264725   4.588   1.052   5.217 -0.3052 -0.2784  0.5945
14437TIP3    H164726   4.680   1.059   5.245 -0.1484 -0.5876  0.1718
14437TIP3    H264727   4.576   1.125   5.156 -0.5561  0.2072  1.2175
14438TIP3   OH264728   1.039   3.695   2.915 -0.5325  0.0782 -0.3557
14438TIP3    H164729   1.024   3.616   2.863  0.0063  0.4550 -1.1104
14438TIP3    H264730   0.975   3.758   2.881 -2.5514 -0.6637  1.7767
14439TIP3   OH264731   2.497   2.294  15.694 -0.2160  0.2076 -0.5833
14439TIP3    H164732   2.461   2.273  15.608 -0.6852 -0.0097 -0.3352
14439TIP3    H264733   2.585   2.256  15.692 -0.8999 -1.4738 -0.2921
14440TIP3   OH264734   1.685   2.455  15.935 -0.5328  0.4810  0.1641
14440TIP3    H164735   1.734   2.504  15.869 -0.7717  0.6014  0.0779
14440TIP3    H264736   1.751   2.429  15.999  0.0843 -1.4021 -1.1516
14441TIP3   OH264737   5.245   5.736  16.925 -0.0266 -0.4735  0.1522
14441TIP3    H164738   5.162   5.784  16.921 -0.0554 -0.5750 -0.9359
14441TIP3    H264739   5.287   5.767  17.005 -1.7341 -1.4718  1.5056
14442TIP3   OH264740   3.098   3.376   4.145 -0.0852  0.5259 -0.3227
14442TIP3    H164741   3.069   3.442   4.082 -0.4826 -0.7822 -1.5879
14442TIP3    H264742   3.054   3.399   4.226 -0.2026  1.8165 -0.7346
14443TIP3   OH264743   6.282   4.162   1.299  0.5108  0.0536 -0.4444
14443TIP3    H164744   6.332   4.170   1.218 -0.4031 -0.4801 -1.0891
14443TIP3    H264745   6.198   4.125   1.271  0.1470 -0.0517  0.7379
14444TIP3   OH264746   2.816   6.188   5.932 -0.3042  0.2062  0.2950
14444TIP3    H164747   2.865   6.174   6.013 -0.5530 -1.4375  0.1963
14444TIP3    H264748   2.855   6.267   5.893 -0.8800  1.6596  2.5120
14445TIP3   OH264749   3.356   3.068  17.054  0.5830 -0.1409  0.1562
14445TIP3    H164750   3.269   3.094  17.084  0.8778 -2.0480  3.1689
14445TIP3    H264751   3.340   2.995  16.994  0.0968  0.1134 -0.0269
14446TIP3   OH264752   4.871   0.258  13.896 -0.2803 -0.5765 -0.0370
14446TIP3    H164753   4.957   0.260  13.852 -0.8000  2.0265 -1.1536
14446TIP3    H264754   4.809   0.284  13.828 -1.9089 -1.7505  0.9266
14447TIP3   OH264755   3.867   0.051   4.495 -0.8371 -0.2853  0.0368
14447TIP3    H164756   3.936   0.109   4.528  0.0802 -0.1657 -1.9469
14447TIP3    H264757   3.881  -0.032   4.539  0.9681 -0.4320 -0.7349
14448TIP3   OH264758   3.300   1.369  14.458  0.6587  0.0519  0.0559
14448TIP3    H164759   3.354   1.439  14.494 -2.2440  2.7568 -0.4046
14448TIP3    H264760   3.236   1.350  14.527 -0.1063 -0.3579 -0.7413
14449TIP3   OH264761   2.919   1.277   1.440  0.4001 -0.3363  0.6556
14449TIP3    H164762   2.960   1.270   1.354 -0.4317 -0.7055  0.2780
14449TIP3    H264763   2.990   1.306   1.498  1.3998 -1.7640  0.1933
14450TIP3   OH264764   6.289   0.218   1.312  0.5002 -0.2902 -0.1792
14450TIP3    H164765   6.315   0.268   1.234  1.3364 -0.5337 -0.0667
14450TIP3    H264766   6.295   0.126   1.285 -0.6044 -0.3596 -0.2513
14451TIP3   OH264767   0.033   5.422  13.562  0.0623  0.3343 -0.0912
14451TIP3    H164768   0.082   5.344  13.536  0.7252  0.6732  0.1086
14451TIP3    H264769   0.096   5.475  13.611 -0.5897  0.6570  0.4162
14452TIP3   OH264770   5.136   6.557  11.929  0.3726 -0.1364 -0.7451
14452TIP3    H164771   5.052   6.510  11.934  0.1461  0.3043 -0.2664
14452TIP3    H264772   5.180   6.520  11.853 -1.4425  1.5699 -2.7655
14453TIP3   OH264773   3.894   4.221   1.095 -0.3883  0.4028  0.4395
14453TIP3    H164774   3.928   4.204   1.007  2.1174 -0.0428  1.4292
14453TIP3    H264775   3.799   4.214   1.085 -0.1119 -1.1908 -1.9203
14454TIP3   OH264776   5.309   0.090  13.927 -0.3121 -0.1590  0.1049
14454TIP3    H164777   5.237   0.149  13.905 -0.0232  0.3675  0.5510
14454TIP3    H264778   5.325   0.104  14.020 -0.0912 -0.7821  0.1661
14455TIP3   OH264779   1.812   3.101   2.580 -0.8809  0.1699  0.5861
14455TIP3    H164780   1.792   3.171   2.517  0.3300  0.7308  0.7994
14455TIP3    H264781   1.731   3.050   2.585 -1.3542  0.7685 -0.5825
14456TIP3   OH264782   1.962   0.785  16.740  0.4650 -0.0883  0.2971
14456TIP3    H164783   1.938   0.878  16.737  0.5897 -0.0477  0.6002
14456TIP3    H264784   2.057   0.784  16.735  0.4040 -0.2940 -2.0676
14457TIP3   OH264785   4.441   4.787  13.062  0.4549 -0.1014  0.2759
14457TIP3    H164786   4.525   4.787  13.108  0.9420 -0.7192 -0.5671
14457TIP3    H264787   4.465   4.773  12.970 -0.5472  0.1811 -0.0422
14458TIP3   OH264788   6.747   6.686   4.088 -0.1497 -0.0825  0.5021
14458TIP3    H164789   6.703   6.701   4.005  0.5841 -2.2773 -0.3583
14458TIP3    H264790   6.686   6.719   4.154 -0.7806  1.6263 -0.8465
14459TIP3   OH264791   5.712   5.017   4.299 -0.2913 -0.4990  0.0804
14459TIP3    H164792   5.687   4.932   4.262 -0.7634 -0.0922 -0.5422
14459TIP3    H264793   5.629   5.059   4.322 -0.0465 -0.3503  0.7427
14460TIP3   OH264794   5.392   6.000   6.131 -0.8872  0.1097 -0.1226
14460TIP3    H164795   5.393   5.905   6.146 -1.0479 -0.0275 -0.9296
14460TIP3    H264796   5.392   6.009   6.036  0.2083  0.9361 -0.0590
14461TIP3   OH264797   0.418   4.778  13.021 -0.4437  0.0340 -0.0602
14461TIP3    H164798   0.418   4.729  13.103  2.4726 -2.4164 -1.3101
14461TIP3    H264799   0.492   4.838  13.029 -0.5843  0.2914 -0.6467
14462TIP3   OH264800   1.844   0.750   6.808 -0.3482  0.4758  0.3149
14462TIP3    H164801   1.854   0.681   6.741 -1.3580 -1.8184  2.3553
14462TIP3    H264802   1.933   0.778   6.827  0.3043 -1.6690  0.7156
14463TIP3   OH264803   4.767   3.973  16.895 -0.0804  0.0418  0.2571
14463TIP3    H164804   4.700   3.978  16.826  0.1275  1.6430  0.1391
14463TIP3    H264805   4.720   3.996  16.975  0.3242  1.2470  0.1640
14464TIP3   OH264806   1.394   2.278  16.532  0.2549 -0.0271  0.5558
14464TIP3    H164807   1.440   2.218  16.474  0.6112  0.4832  0.2986
14464TIP3    H264808   1.317   2.306  16.481 -0.2846 -0.7873  0.9383
14465TIP3   OH264809   3.036   5.326   2.215  0.0845 -0.3434  0.2450
14465TIP3    H164810   2.974   5.399   2.220  2.1501  1.6390 -1.1749
14465TIP3    H264811   3.105   5.350   2.277  0.9279 -0.9562 -0.4557
14466TIP3   OH264812   6.230   0.727   5.719  0.4412  0.2266  0.1069
14466TIP3    H164813   6.294   0.668   5.680  0.3816  0.4961 -0.4056
14466TIP3    H264814   6.280   0.806   5.739  0.5563 -0.0462  0.9381
14467TIP3   OH264815   6.170   4.843   0.019  0.2561  0.4647 -0.2756
14467TIP3    H164816   6.225   4.769   0.046 -0.6314  0.1652  0.7644
14467TIP3    H264817   6.103   4.850   0.087 -2.9710 -1.2096 -2.9412
14468TIP3   OH264818   3.788   5.724  15.103  0.0584  0.0779 -0.0953
14468TIP3    H164819   3.739   5.644  15.125  1.0369 -0.5048  0.0110
14468TIP3    H264820   3.874   5.712  15.144 -0.8980  2.8554  3.2776
14469TIP3   OH264821   2.932   5.919   6.468  0.2251  0.2995 -0.5749
14469TIP3    H164822   2.911   5.924   6.374 -1.7260 -1.0472 -0.2641
14469TIP3    H264823   2.853   5.951   6.512  0.9322  0.4368  0.6388
14470TIP3   OH264824   6.495   3.093  15.545 -0.3573  0.6816  0.6184
14470TIP3    H164825   6.402   3.113  15.555 -0.5784  0.3334 -0.5908
14470TIP3    H264826   6.501   2.999  15.565 -0.8215 -0.0480 -2.2059
14471TIP3   OH264827   6.163   6.729  16.609  0.8438 -0.1430  0.7868
14471TIP3    H164828   6.239   6.673  16.598  1.2725  0.1446  2.0812
14471TIP3    H264829   6.121   6.730  16.523  2.4199 -0.1172 -0.0093
14472TIP3   OH264830   6.063   1.971  16.515 -0.0382 -0.1879  0.0113
14472TIP3    H164831   6.139   2.023  16.543  0.0130 -1.4278  2.4052
14472TIP3    H264832   5.990   2.033  16.516  0.5180  0.4825 -0.0324
14473TIP3   OH264833   6.351   3.458  11.502 -0.6541 -0.3632  0.1044
14473TIP3    H164834   6.267   3.469  11.458 -2.1329 -0.8797  2.6031
14473TIP3    H264835   6.371   3.364  11.492 -0.3416 -0.2306 -0.5328
14474TIP3   OH264836   4.523   1.136  14.411 -0.3437 -0.1046 -0.2841
14474TIP3    H164837   4.459   1.205  14.397 -1.0937 -1.1253 -2.4094
14474TIP3    H264838   4.494   1.065  14.353  2.5928 -0.6809 -1.1996
14475TIP3   OH264839   2.551   3.931   1.451  0.1386  0.8387 -0.1691
14475TIP3    H164840   2.508   3.974   1.525  1.0177 -0.4427  1.1425
14475TIP3    H264841   2.629   3.891   1.489  0.6629  0.2354 -1.8271
14476TIP3   OH264842   3.338   3.167   3.654 -0.1304 -0.4927  0.3369
14476TIP3    H164843   3.291   3.116   3.587 -0.6094 -1.4925  1.3865
14476TIP3    H264844   3.320   3.120   3.736  0.9172  0.3675  1.0843
14477TIP3   OH264845   1.373   0.295   3.544 -0.7741  0.3787  0.5492
14477TIP3    H164846   1.358   0.226   3.479  2.3679 -0.5686  0.6692
14477TIP3    H264847   1.312   0.275   3.614 -0.6589 -1.7103  0.1271
14478TIP3   OH264848   6.134   0.613  12.699  0.3400 -0.0532  0.1833
14478TIP3    H164849   6.140   0.704  12.671 -0.0340  0.9834  3.1154
14478TIP3    H264850   6.178   0.610  12.784 -1.1864 -2.1865  1.0160
14479TIP3   OH264851   0.802   3.687   1.373  0.2878 -0.1462  0.5284
14479TIP3    H164852   0.771   3.681   1.464 -0.7796 -0.5550  0.1397
14479TIP3    H264853   0.878   3.628   1.370  0.4166 -0.0239  1.1834
14480TIP3   OH264854   2.273   4.872  16.248 -0.0966 -0.2700 -0.4170
14480TIP3    H164855   2.254   4.819  16.325  0.2655  0.9861  0.5864
14480TIP3    H264856   2.280   4.810  16.176 -0.5825 -1.4635  0.5393
14481TIP3   OH264857   2.623   3.025   5.070 -1.0540  0.0311  0.5512
14481TIP3    H164858   2.569   3.077   5.129  0.3526 -0.1021  2.0329
14481TIP3    H264859   2.616   2.935   5.104 -0.3424 -0.0695  0.4520
14482TIP3   OH264860   1.750   4.118   0.986 -0.2832  0.2689 -0.1583
14482TIP3    H164861   1.810   4.064   0.936 -0.8148  1.2268 -1.9360
14482TIP3    H264862   1.806   4.184   1.028  0.0108  0.6467 -1.1159
14483TIP3   OH264863   0.448   1.292   3.158 -0.3367  0.4607  0.1026
14483TIP3    H164864   0.404   1.208   3.170  0.6658 -0.1710 -0.4730
14483TIP3    H264865   0.382   1.357   3.180 -0.7509 -0.4881  1.8614
14484TIP3   OH264866   5.088   6.385  11.502 -0.3260  0.0234 -0.0621
14484TIP3    H164867   5.016   6.445  11.483 -0.4936  0.2398  1.1204
14484TIP3    H264868   5.119   6.413  11.589 -1.2289 -2.3909  1.1353
14485TIP3   OH264869   4.322   0.957   6.698 -0.2429 -0.1639 -0.0985
14485TIP3    H164870   4.374   0.955   6.617  0.7974 -0.2740  0.5614
14485TIP3    H264871   4.246   0.902   6.678  0.5856 -1.1464 -0.6222
14486TIP3   OH264872   5.224   6.076  15.629 -0.4121  0.6474 -0.5291
14486TIP3    H164873   5.200   6.032  15.548 -0.7844  1.0473 -0.6417
14486TIP3    H264874   5.225   6.007  15.695  0.2494  0.2584 -0.9441
14487TIP3   OH264875   1.551   6.762  13.956  0.4216 -0.0003 -0.3080
14487TIP3    H164876   1.588   6.681  13.994 -0.2822  0.1623  0.7474
14487TIP3    H264877   1.529   6.738  13.866 -1.5906 -1.6007  0.5328
14488TIP3   OH264878   6.230   3.211   4.942 -0.6088 -0.5115  0.4278
14488TIP3    H164879   6.316   3.189   4.979  0.0933  0.6574 -0.4257
14488TIP3    H264880   6.173   3.138   4.967  1.1294 -2.3735 -0.7330
14489TIP3   OH264881   2.994   5.170  11.871  0.3080  0.1617 -0.0041
14489TIP3    H164882   3.075   5.125  11.895  0.6579  0.4073 -0.6872
14489TIP3    H264883   2.968   5.130  11.787 -1.7658 -1.8445  1.4540
14490TIP3   OH264884   6.356   1.073  15.778 -0.1101  0.0760 -0.2089
14490TIP3    H164885   6.295   1.077  15.704 -0.8739  0.1041  0.4215
14490TIP3    H264886   6.443   1.078  15.737 -0.4862 -1.0212 -1.1949
14491TIP3   OH264887   3.074   1.288   4.795  0.3500 -0.1658 -0.4741
14491TIP3    H164888   3.074   1.382   4.778  2.0743 -0.1051 -0.3166
14491TIP3    H264889   3.008   1.275   4.864  1.5940  1.2441  1.0342
14492TIP3   OH264890   1.513   3.030   6.176  0.4021 -0.2477 -0.3165
14492TIP3    H164891   1.428   3.068   6.200  0.5222  0.4839 -0.9898
14492TIP3    H264892   1.515   3.034   6.081  0.5544 -1.7202 -0.3999
14493TIP3   OH264893   0.420   1.806  15.570 -0.2357  0.2397 -0.2224
14493TIP3    H164894   0.502   1.765  15.543 -0.3115 -1.6032  2.0068
14493TIP3    H264895   0.438   1.841  15.657 -1.3940  1.1881 -0.3404
14494TIP3   OH264896   0.109   6.677  12.356  0.6578  0.3642 -0.0773
14494TIP3    H164897   0.030   6.673  12.302  1.3310  1.1194 -1.1547
14494TIP3    H264898   0.089   6.623  12.433 -1.5423  1.9198  0.5244
14495TIP3   OH264899   0.744   4.032   2.195  0.0984 -0.2444  0.1443
14495TIP3    H164900   0.824   4.023   2.248  0.4113  1.8888  0.1165
14495TIP3    H264901   0.702   4.111   2.228 -0.2572  0.5480 -2.0535
14496TIP3   OH264902   0.915   2.244  15.006 -0.6941 -0.2039 -0.0929
14496TIP3    H164903   0.821   2.248  15.023 -1.0272 -2.1854 -1.1094
14496TIP3    H264904   0.934   2.320  14.951 -0.9700  2.1354  2.7720
14497TIP3   OH264905   0.991   1.702   0.091 -0.0043  0.4652  0.9434
14497TIP3    H164906   1.079   1.737   0.109  0.1547 -0.0571  1.1896
14497TIP3    H264907   0.941   1.723   0.169 -0.2340  1.1638  0.6250
14498TIP3   OH264908   2.548   1.108  16.215 -0.0254 -0.4439 -0.2273
14498TIP3    H164909   2.631   1.124  16.261 -0.0327 -0.6091 -0.1568
14498TIP3    H264910   2.490   1.178  16.244  0.1053 -0.3016 -0.3117
14499TIP3   OH264911   4.068   0.523   2.031  0.0533  0.2439  0.1516
14499TIP3    H164912   4.146   0.498   1.980  0.1911 -1.3949  1.0783
14499TIP3    H264913   4.102   0.583   2.097  0.7125 -1.0393  1.0219
14500TIP3   OH264914   5.387   4.608   5.838 -0.1487  0.0478 -0.1886
14500TIP3    H164915   5.409   4.651   5.920  0.6240 -0.5467 -0.0741
14500TIP3    H264916   5.437   4.526   5.839 -1.6105 -0.8952 -0.3800
14501TIP3   OH264917   5.826   2.450   2.221 -0.0595  0.2939 -0.1841
14501TIP3    H164918   5.840   2.513   2.151  2.3025  0.0881  0.0242
14501TIP3    H264919   5.761   2.389   2.185 -0.6296  1.4975 -1.2716
14502TIP3   OH264920   1.356   0.835   0.568  0.3207 -0.0227 -0.0183
14502TIP3    H164921   1.422   0.853   0.635 -1.9371  0.7297  2.0993
14502TIP3    H264922   1.363   0.909   0.507  0.6303  0.6777  0.8453
14503TIP3   OH264923   2.798   0.129   4.444 -0.2243 -0.4663 -0.0580
14503TIP3    H164924   2.780   0.038   4.420  3.1237 -1.7740  1.8263
14503TIP3    H264925   2.787   0.132   4.539 -1.8848  1.6030 -0.2380
14504TIP3   OH264926   1.633   2.747   0.258 -0.6279  0.5972 -0.1429
14504TIP3    H164927   1.726   2.755   0.278 -0.3271 -0.7950 -0.8551
14504TIP3    H264928   1.593   2.823   0.301  0.7677  0.9991  0.5244
14505TIP3   OH264929   4.850   4.584  16.960  0.6120 -0.4148  0.2677
14505TIP3    H164930   4.849   4.543  16.874  1.1964 -0.4173  0.2584
14505TIP3    H264931   4.761   4.574  16.993  0.2439  0.0642 -0.5595
14506TIP3   OH264932   1.304   4.185   3.988  0.1732 -0.4449  0.1636
14506TIP3    H164933   1.304   4.185   3.892 -1.0808  0.5135  0.1335
14506TIP3    H264934   1.233   4.126   4.012 -1.8205  1.8784  0.3881
14507TIP3   OH264935   6.036   6.217  16.020 -0.3484  0.4164 -0.6788
14507TIP3    H164936   6.031   6.159  16.096  0.9739  1.6786  0.4603
14507TIP3    H264937   6.084   6.167  15.954  0.0355 -0.0832 -0.0283
14508TIP3   OH264938   6.345   5.144  14.601 -0.7160 -0.7089 -0.3050
14508TIP3    H164939   6.383   5.061  14.573  1.4065  0.1479 -0.1560
14508TIP3    H264940   6.311   5.126  14.689 -2.7099 -2.0646 -1.3079
14509TIP3   OH264941   5.156   2.022  16.030 -0.1715  0.5714  0.4145
14509TIP3    H164942   5.206   2.041  15.950  0.5184 -0.7295  0.5004
14509TIP3    H264943   5.099   2.097  16.041 -1.6086  0.0094 -2.3388
14510TIP3   OH264944   3.308   3.478  16.435  0.1012  0.2189 -0.3833
14510TIP3    H164945   3.318   3.545  16.502 -0.9673 -0.6192  0.6626
14510TIP3    H264946   3.249   3.413  16.475 -1.4292  0.2059 -2.5223
14511TIP3   OH264947   4.815   5.537   6.302  0.2204  0.1186 -0.1385
14511TIP3    H164948   4.879   5.467   6.310 -0.0500 -0.1177 -0.0472
14511TIP3    H264949   4.824   5.588   6.382 -1.1212 -1.1003  0.8237
14512TIP3   OH264950   3.540   4.362   3.087 -0.2442 -0.2304  0.9639
14512TIP3    H164951   3.577   4.449   3.105 -0.4308 -0.1578  0.9959
14512TIP3    H264952   3.446   4.376   3.080 -0.0943  0.0496 -1.7691
14513TIP3   OH264953   3.607   3.631   4.071 -0.3783  0.2078 -0.4422
14513TIP3    H164954   3.647   3.715   4.093  0.1801 -0.5164  1.5308
14513TIP3    H264955   3.617   3.578   4.151 -1.4023 -1.4690 -1.3703
14514TIP3   OH264956   1.055   2.273   3.660 -0.2053 -0.4395 -0.7599
14514TIP3    H164957   0.986   2.208   3.648  0.7678 -1.8126  0.7820
14514TIP3    H264958   1.133   2.231   3.624  0.6104 -0.5048  1.0046
14515TIP3   OH264959   5.258   3.271   0.734  0.1477  0.2614  0.3704
14515TIP3    H164960   5.175   3.224   0.730 -0.2967  1.0370  0.2466
14515TIP3    H264961   5.308   3.239   0.658  0.3148 -0.8335  0.9268
14516TIP3   OH264962   1.955   4.530  17.247  0.8981  0.6611 -0.2520
14516TIP3    H164963   1.877   4.584  17.260 -1.0043 -1.0526 -3.1833
14516TIP3    H264964   1.964   4.479  17.327 -0.5203  1.4907  0.4655
14517TIP3   OH264965   1.421   5.108   2.262 -0.3177 -0.2349 -0.0038
14517TIP3    H164966   1.376   5.081   2.342  0.4630  0.4277  0.6809
14517TIP3    H264967   1.387   5.195   2.243 -1.2916 -0.8166 -1.0202
14518TIP3   OH264968   6.606   4.684  14.360 -0.0771  0.7252  0.3946
14518TIP3    H164969   6.575   4.678  14.270  0.4474  2.4543  0.0674
14518TIP3    H264970   6.701   4.680  14.354 -0.0698 -0.7375  1.0483
14519TIP3   OH264971   5.495   2.604   0.721 -0.9169 -0.0477 -0.8642
14519TIP3    H164972   5.564   2.630   0.782  0.6266  0.4457 -2.7482
14519TIP3    H264973   5.481   2.511   0.739 -0.8068  0.1728  0.5011
14520TIP3   OH264974   4.036   5.133  12.037  0.0021 -0.4288 -0.2620
14520TIP3    H164975   4.043   5.225  12.012  0.3011 -0.4292 -0.1849
14520TIP3    H264976   3.985   5.134  12.118  0.6674 -0.2604  0.1623
14521TIP3   OH264977   1.398   3.458  15.964  0.4107  0.2319  0.5080
14521TIP3    H164978   1.378   3.364  15.964 -0.9283  0.4380  2.9599
14521TIP3    H264979   1.490   3.462  15.936  0.1913 -1.6770 -0.7226
14522TIP3   OH264980   6.118   0.118  12.669  0.2968 -0.0557 -0.2982
14522TIP3    H164981   6.149   0.206  12.686  1.3908 -0.6370  0.9561
14522TIP3    H264982   6.182   0.061  12.713 -0.5609 -1.4528 -0.7799
14523TIP3   OH264983   3.430   2.812   1.690 -0.2675 -0.4872  0.2991
14523TIP3    H164984   3.469   2.863   1.618  1.6577  0.3700  1.8392
14523TIP3    H264985   3.442   2.868   1.767 -1.6071 -1.6948  1.4236
14524TIP3   OH264986   0.804   1.323  12.112 -0.2990  0.3151  0.4278
14524TIP3    H164987   0.822   1.231  12.131 -2.0124 -0.3089 -0.7256
14524TIP3    H264988   0.842   1.370  12.186  1.4732 -1.2152  0.5591
14525TIP3   OH264989   6.636   2.680  12.295 -0.0961  0.1670  0.7137
14525TIP3    H164990   6.596   2.679  12.381  0.6194 -1.3050  1.0484
14525TIP3    H264991   6.567   2.714  12.237 -1.8364 -2.1366  1.2823
14526TIP3   OH264992   0.405   5.434   1.917  0.2145  0.1208  0.4141
14526TIP3    H164993   0.374   5.362   1.971  0.3011  1.1676  1.9479
14526TIP3    H264994   0.500   5.433   1.928  0.3151 -0.1394 -0.3924
14527TIP3   OH264995   2.053   4.272   3.412 -0.3926  0.0763 -0.2671
14527TIP3    H164996   2.015   4.303   3.330  2.8339  0.9040 -1.6063
14527TIP3    H264997   2.093   4.188   3.389  0.1224  0.0788  0.5936
14528TIP3   OH264998   1.368   3.590   2.517 -0.5712  0.2593 -0.2894
14528TIP3    H164999   1.363   3.537   2.437  1.8365  1.4931 -1.3699
14528TIP3    H265000   1.282   3.631   2.524 -1.2816 -0.9406 -1.4615
14529TIP3   OH265001   3.185   4.425  16.788  0.0517  0.3787  0.1082
14529TIP3    H165002   3.149   4.455  16.705  0.0340  1.3651  0.4521
14529TIP3    H265003   3.110   4.423  16.847  0.1224  0.0014  0.1853
14530TIP3   OH265004   1.953   1.499  11.953 -0.4007 -0.2733  0.2715
14530TIP3    H165005   1.962   1.497  11.857 -0.4712 -1.5792  0.2741
14530TIP3    H265006   2.035   1.459  11.985 -1.2980 -1.9043  0.6595
14531TIP3   OH265007   4.379   0.410  16.592  0.0009  0.7751 -0.0839
14531TIP3    H165008   4.377   0.410  16.687 -0.5295 -1.4502 -0.0349
14531TIP3    H265009   4.347   0.496  16.567  0.5044  1.5352  1.7335
14532TIP3   OH265010   5.715   3.533  16.861 -0.6111 -0.0154  0.1388
14532TIP3    H165011   5.702   3.438  16.858 -0.0669 -0.1384  1.1385
14532TIP3    H265012   5.805   3.545  16.830 -0.3622  0.0816  0.8782
14533TIP3   OH265013   2.767   4.837   3.175 -0.0251 -0.1951  0.1212
14533TIP3    H165014   2.747   4.930   3.177  0.3111 -0.1226  0.1803
14533TIP3    H265015   2.827   4.826   3.101  0.3876 -0.2695  0.4598
14534TIP3   OH265016   5.667   4.212   2.707 -0.7729 -0.2479 -0.3819
14534TIP3    H165017   5.697   4.165   2.786 -0.5514  0.4939 -0.0175
14534TIP3    H265018   5.735   4.194   2.642 -0.2289  0.2845  0.0253
14535TIP3   OH265019   6.155   4.124  16.564 -0.8579  0.2549 -0.6308
14535TIP3    H165020   6.150   4.219  16.572 -0.6572  0.1626  0.9341
14535TIP3    H265021   6.192   4.109  16.477  0.1922  1.6344 -0.4564
14536TIP3   OH265022   4.664   5.434   4.109  0.2735 -0.1676  0.0669
14536TIP3    H165023   4.721   5.490   4.162  1.9341 -1.4225 -0.2962
14536TIP3    H265024   4.636   5.490   4.036 -0.7931  1.1115  1.4085
14537TIP3   OH265025   2.621   1.764  12.104  0.2228  0.1805 -0.2003
14537TIP3    H165026   2.552   1.805  12.156 -0.2818  0.6545 -1.2081
14537TIP3    H265027   2.584   1.680  12.077  0.5260 -0.1134  0.2676
14538TIP3   OH265028   0.852   6.725   3.350  0.1896 -0.7038 -0.0242
14538TIP3    H165029   0.941   6.691   3.336 -0.0123 -0.7500 -1.3939
14538TIP3    H265030   0.866   6.811   3.389  0.7817 -1.2603  1.0491
14539TIP3   OH265031   5.114   0.878  16.274  0.3314  0.0377  0.4193
14539TIP3    H165032   5.094   0.858  16.182 -1.1609  1.8166  0.2936
14539TIP3    H265033   5.124   0.792  16.315 -2.0512 -0.9221 -0.7878
14540TIP3   OH265034   2.228   5.869  13.601  0.5396 -0.2140 -0.4968
14540TIP3    H165035   2.207   5.949  13.554 -1.1696 -0.0630  0.4448
14540TIP3    H265036   2.144   5.823  13.608  1.0368 -0.9259  1.0872
14541TIP3   OH265037   3.368   2.046  12.378 -0.6745 -0.0261 -0.2604
14541TIP3    H165038   3.288   2.066  12.427 -2.0698 -0.7725 -2.0743
14541TIP3    H265039   3.409   2.131  12.361 -0.5181  0.2885  1.5441
14542TIP3   OH265040   0.421   4.770  12.756 -0.2567 -0.0878 -0.7973
14542TIP3    H165041   0.506   4.740  12.724 -0.2020 -1.0550  0.1760
14542TIP3    H265042   0.428   4.764  12.851 -0.7890  1.6442 -0.6243
14543TIP3   OH265043   5.142   6.080  11.582 -0.0639 -0.1583 -0.4125
14543TIP3    H165044   5.136   6.169  11.547 -1.5012 -0.1582 -0.2609
14543TIP3    H265045   5.198   6.087  11.659 -2.6795  1.3192  1.5153
14544TIP3   OH265046   5.902   4.452   3.413  0.3121  0.0699 -0.4744
14544TIP3    H165047   5.938   4.541   3.419  0.6606  0.0370 -1.8155
14544TIP3    H265048   5.901   4.433   3.320  0.6159 -1.5039 -0.1866
14545TIP3   OH265049   0.488   2.249   1.708 -0.2910 -0.6335  0.3237
14545TIP3    H165050   0.504   2.331   1.756  1.6141  0.0378 -1.3035
14545TIP3    H265051   0.402   2.260   1.669  0.1784  0.9198 -0.3783
14546TIP3   OH265052   4.169   3.662   2.529  0.6651 -0.1255  0.0698
14546TIP3    H165053   4.166   3.757   2.544  0.4607 -0.0050 -0.6511
14546TIP3    H265054   4.169   3.623   2.616 -0.1319  0.5236  0.3764
14547TIP3   OH265055   0.396   6.583   3.479 -0.3333  0.2884 -0.0890
14547TIP3    H165056   0.384   6.529   3.401 -0.0533  0.8093 -0.4994
14547TIP3    H265057   0.483   6.620   3.470  0.6600 -1.4677  1.6335
14548TIP3   OH265058   1.965   1.844   3.265  0.3688 -0.5451 -0.0160
14548TIP3    H165059   1.905   1.916   3.248  2.5143  1.3045 -0.1530
14548TIP3    H265060   1.908   1.766   3.268 -2.1616  1.1904  1.0283
14549TIP3   OH265061   1.554   2.156  13.910  0.2806 -0.3747  0.4060
14549TIP3    H165062   1.541   2.249  13.893  0.2627 -0.5688 -0.7117
14549TIP3    H265063   1.593   2.153  13.998  1.2408  0.7517  0.0511
14550TIP3   OH265064   2.319   0.166   4.141  0.0901  0.1422 -0.0443
14550TIP3    H165065   2.242   0.119   4.110  1.1320  0.7505 -4.1571
14550TIP3    H265066   2.285   0.231   4.203 -2.2939 -1.2016  0.1804
14551TIP3   OH265067   3.660   5.688  11.541 -0.6141  0.3298  0.4439
14551TIP3    H165068   3.652   5.597  11.513  0.1205 -0.5255  2.7907
14551TIP3    H265069   3.711   5.730  11.472  1.4045 -1.7064  0.5780
14552TIP3   OH265070   0.320   3.221  16.698  0.3984 -0.6592  0.1078
14552TIP3    H165071   0.359   3.163  16.763 -0.6319 -1.1855  0.2769
14552TIP3    H265072   0.232   3.238  16.731  0.5794  0.7712 -0.0881
14553TIP3   OH265073   3.994   0.477  11.635  0.0183  0.5681  0.0263
14553TIP3    H165074   4.064   0.532  11.669  0.0418  0.8134 -0.4067
14553TIP3    H265075   3.914   0.513  11.672 -0.0639  1.4916 -0.9787
14554TIP3   OH265076   0.226   2.774  13.084  0.2826 -0.6557 -0.0996
14554TIP3    H165077   0.148   2.830  13.089  1.6052  1.2892 -0.4315
14554TIP3    H265078   0.196   2.696  13.037 -2.2148 -1.3980  2.4345
14555TIP3   OH265079   6.600   3.990   4.135 -0.2737 -0.3779  0.3824
14555TIP3    H165080   6.589   3.896   4.123  0.6143 -0.5204  0.6450
14555TIP3    H265081   6.592   4.027   4.047  2.6601 -1.0551 -0.2724
14556TIP3   OH265082   3.346   4.611   3.433 -0.8053  0.2261 -0.7259
14556TIP3    H165083   3.344   4.541   3.368  1.4035 -0.3604 -0.2578
14556TIP3    H265084   3.383   4.686   3.387 -2.7205  1.0110 -1.0953
14557TIP3   OH265085   5.430   5.801   5.036  0.0183  0.2144  0.2331
14557TIP3    H165086   5.390   5.863   5.097  0.4401 -0.2033  0.9452
14557TIP3    H265087   5.481   5.743   5.091  1.0175  0.2785 -0.6015
14558TIP3   OH265088   2.284   2.010   3.457 -0.3201 -0.3377 -0.7395
14558TIP3    H165089   2.342   2.033   3.530 -1.1107 -0.3129 -0.1055
14558TIP3    H265090   2.298   2.080   3.393  0.8905 -0.7265 -0.9262
14559TIP3   OH265091   4.711   1.503  10.581  0.4114 -0.3651  0.0287
14559TIP3    H165092   4.667   1.567  10.526 -0.5003 -0.6350  0.4232
14559TIP3    H265093   4.662   1.422  10.567 -1.0953 -0.0336  2.6390
14560TIP3   OH265094   6.776   6.493   1.679 -0.2813 -0.0194  0.1205
14560TIP3    H165095   6.864   6.480   1.714 -0.2978  0.8757  0.5277
14560TIP3    H265096   6.719   6.478   1.755 -0.4373  0.0547  0.0169
14561TIP3   OH265097   0.620   4.670  10.496  0.4780 -0.1246  0.0022
14561TIP3    H165098   0.621   4.575  10.486  0.8342  0.0043 -1.4460
14561TIP3    H265099   0.537   4.698  10.458 -0.5804  0.0155  2.2646
14562TIP3   OH265100   6.628   3.437  10.941 -0.2523 -0.1704 -0.3686
14562TIP3    H165101   6.654   3.476  11.025 -1.1656  0.0138 -0.1619
14562TIP3    H265102   6.596   3.512  10.890  0.2833 -0.2839 -0.8895
14563TIP3   OH265103   0.543   5.351   4.651 -0.4745 -0.4036 -0.3776
14563TIP3    H165104   0.495   5.403   4.716  0.0154 -0.1114 -0.2433
14563TIP3    H265105   0.477   5.327   4.587 -0.8867 -0.3510  0.0173
14564TIP3   OH265106   3.560   1.330  15.718 -0.4100  0.2617 -0.1466
14564TIP3    H165107   3.642   1.282  15.706 -1.3330 -1.8695  1.3736
14564TIP3    H265108   3.505   1.302  15.645 -0.4798  0.0613 -0.0187
14565TIP3   OH265109   2.785   6.287  14.456  0.4307 -0.4901 -0.1436
14565TIP3    H165110   2.703   6.258  14.497  1.2308 -1.6089  0.7286
14565TIP3    H265111   2.757   6.330  14.376 -1.3131  3.0381  2.1258
14566TIP3   OH265112   1.442   3.298   1.162  0.5050 -0.0128  0.3398
14566TIP3    H165113   1.430   3.247   1.243 -1.8996  0.8791  0.6253
14566TIP3    H265114   1.394   3.248   1.096 -0.9882  1.2792  0.3966
14567TIP3   OH265115   3.728   1.874   1.328 -0.0749 -0.3265  0.0879
14567TIP3    H165116   3.773   1.792   1.350  0.0243  0.1298  1.6720
14567TIP3    H265117   3.673   1.852   1.253  0.3774 -1.6994  0.1382
14568TIP3   OH265118   2.055   5.326  11.512 -0.2806 -0.2520 -0.2361
14568TIP3    H165119   1.983   5.386  11.495 -1.0261 -0.6238  1.4645
14568TIP3    H265120   2.101   5.364  11.587 -0.3658 -1.4367  0.4403
14569TIP3   OH265121   6.055   4.246   3.051 -0.1195 -0.2061  1.1854
14569TIP3    H165122   6.066   4.154   3.028  0.7608  0.4821 -1.4172
14569TIP3    H265123   6.135   4.268   3.099  0.3106 -0.4639  0.6026
14570TIP3   OH265124   1.244   4.860  12.440  0.2246  0.8210  0.5893
14570TIP3    H165125   1.235   4.774  12.397  0.7960  1.1035 -0.1153
14570TIP3    H265126   1.167   4.866  12.497  0.1464 -0.1378  0.6149
14571TIP3   OH265127   2.093   3.930   0.474  0.0239  0.2207  0.1155
14571TIP3    H165128   2.023   3.972   0.425 -0.0497  0.2514  0.2476
14571TIP3    H265129   2.055   3.911   0.560  0.0969  0.0057  0.1007
14572TIP3   OH265130   3.622   3.686   3.747 -0.3938 -0.0567 -0.4069
14572TIP3    H165131   3.622   3.695   3.843 -0.6106  0.4046 -0.4452
14572TIP3    H265132   3.643   3.594   3.731 -1.0664 -0.3082  0.0988
14573TIP3   OH265133   2.428   4.164  15.895  0.2046  0.1936 -0.2435
14573TIP3    H165134   2.451   4.072  15.880 -1.0668 -0.0128 -1.0270
14573TIP3    H265135   2.509   4.212  15.879  0.7379 -0.7383 -0.3720
14574TIP3   OH265136   6.453   0.486  10.874  0.7768 -0.6593 -0.3232
14574TIP3    H165137   6.425   0.395  10.876 -0.2140 -0.3600 -0.3033
14574TIP3    H265138   6.411   0.523  10.796 -0.9545  0.4400  1.0717
14575TIP3   OH265139   4.264   3.337  13.929  0.1885 -0.4965  0.1626
14575TIP3    H165140   4.183   3.388  13.930  0.9183  0.8215 -1.7068
14575TIP3    H265141   4.266   3.299  13.841  1.7127 -0.2699  0.0719
14576TIP3   OH265142   4.515   1.539  13.282 -0.2675  0.0221  0.1008
14576TIP3    H165143   4.457   1.570  13.212 -2.9558 -0.4586  1.9615
14576TIP3    H265144   4.502   1.445  13.285 -1.1355  0.1506  1.9513
14577TIP3   OH265145   4.925   2.678  13.041  0.5178  0.0741 -0.4072
14577TIP3    H165146   4.962   2.720  12.963  0.3753  1.1192  0.0816
14577TIP3    H265147   4.844   2.638  13.010  1.5930 -1.5579 -1.3128
14578TIP3   OH265148   3.749   3.251  12.211 -0.0490 -0.1739 -0.1108
14578TIP3    H165149   3.742   3.248  12.306 -1.8247 -0.0086 -0.2032
14578TIP3    H265150   3.759   3.344  12.190 -2.5273  0.1660 -0.1709
14579TIP3   OH265151   2.601   3.914  17.129  0.6281 -0.2320  0.2678
14579TIP3    H165152   2.692   3.931  17.153  1.0380 -0.0326 -1.3218
14579TIP3    H265153   2.606   3.856  17.053 -0.5082  1.0305 -0.8392
14580TIP3   OH265154   4.605   0.866   4.402 -0.0118 -0.1429 -0.0581
14580TIP3    H165155   4.549   0.789   4.413 -0.4786  0.3498  1.1405
14580TIP3    H265156   4.587   0.896   4.313 -1.6465 -0.0205  0.2836
14581TIP3   OH265157   1.145   1.236  10.399 -0.3751 -0.2228  0.7358
14581TIP3    H165158   1.137   1.200  10.488 -0.3190 -0.2265  0.7393
14581TIP3    H265159   1.167   1.328  10.412  2.7256 -0.8417  0.7576
14582TIP3   OH265160   5.543   6.339   2.053 -0.2864 -0.4366 -0.1486
14582TIP3    H165161   5.543   6.243   2.050  0.5411 -0.4456 -0.1143
14582TIP3    H265162   5.457   6.362   2.089 -0.8351 -1.1338 -0.9715
14583TIP3   OH265163   1.753   5.106  12.589  0.3865 -0.0764  0.1581
14583TIP3    H165164   1.811   5.035  12.561 -1.5361 -1.1818 -1.3015
14583TIP3    H265165   1.763   5.173  12.521 -1.2848 -1.0408 -1.1204
14584TIP3   OH265166   1.897   4.806   5.179 -0.2579  0.1041 -0.4888
14584TIP3    H165167   1.931   4.853   5.103 -1.5431 -0.4698 -1.4531
14584TIP3    H265168   1.867   4.875   5.238 -0.4687  0.5314 -1.0874
14585TIP3   OH265169   0.081   5.114   5.258 -0.1958  0.4094  0.0280
14585TIP3    H165170   0.020   5.087   5.326  1.8046 -0.2042  1.7147
14585TIP3    H265171   0.146   5.168   5.305  0.4399  1.2277 -1.6984
14586TIP3   OH265172   4.095   5.345   4.000  0.2032 -0.1220 -0.5801
14586TIP3    H165173   4.092   5.278   4.068  1.5835 -0.4379 -0.7930
14586TIP3    H265174   4.188   5.355   3.981 -0.0727  0.9513 -1.4540
14587TIP3   OH265175   4.596   5.736  13.409 -0.1678  0.2931  0.5036
14587TIP3    H165176   4.611   5.722  13.503 -0.7677 -0.4058  0.5009
14587TIP3    H265177   4.528   5.673  13.386 -0.1667  0.6014 -0.3627
14588TIP3   OH265178   3.440   5.175   3.310  0.3012 -0.3926  0.3421
14588TIP3    H165179   3.403   5.124   3.238  0.8801  0.3047 -0.4586
14588TIP3    H265180   3.418   5.266   3.289 -0.5075 -0.2674  1.6271
14589TIP3   OH265181   6.209   3.563  16.486 -0.3664 -0.1024  0.0430
14589TIP3    H165182   6.188   3.560  16.580  0.8866 -0.2239  0.3251
14589TIP3    H265183   6.218   3.471  16.461 -0.7907 -0.0730 -0.2258
14590TIP3   OH265184   2.525   0.343  13.256  0.4461  0.4095 -0.2391
14590TIP3    H165185   2.590   0.413  13.251  0.5587  0.3357  0.1407
14590TIP3    H265186   2.561   0.273  13.202 -2.8140  3.0105 -6.9485
14591TIP3   OH265187   0.757   2.913   3.044 -0.1942  0.3430 -0.1818
14591TIP3    H165188   0.692   2.983   3.041  1.2898  1.7735 -0.4180
14591TIP3    H265189   0.727   2.856   3.115 -1.4666  1.1827 -0.0103
14592TIP3   OH265190   2.981   3.299  15.306  0.5605 -0.5977  0.3631
14592TIP3    H165191   2.986   3.394  15.295 -1.5809 -0.7055 -3.0240
14592TIP3    H265192   3.054   3.265  15.254  0.0925 -0.8185 -0.1605
14593TIP3   OH265193   3.325   1.523   1.363  0.2989  0.9102 -0.1111
14593TIP3    H165194   3.351   1.589   1.298 -2.7189  2.0738 -0.2997
14593TIP3    H265195   3.247   1.482   1.326  1.9785 -2.8990  0.0277
14594TIP3   OH265196   0.300   4.423  15.857  0.6884  0.4686 -0.4921
14594TIP3    H165197   0.373   4.418  15.796  1.5305  4.1808 -0.0278
14594TIP3    H265198   0.301   4.514  15.889 -2.1454 -0.2043  2.0211
14595TIP3   OH265199   1.094   2.222  11.734  0.4369 -0.3642  0.5033
14595TIP3    H165200   1.140   2.305  11.747  0.3216 -0.3305  0.7072
14595TIP3    H265201   1.001   2.246  11.733  0.4233 -0.4073 -0.0781
14596TIP3   OH265202   6.268   4.544  12.782 -0.2421 -0.7516  0.5482
14596TIP3    H165203   6.248   4.623  12.731  1.7931  0.2385  1.1795
14596TIP3    H265204   6.304   4.482  12.719  0.7367 -0.1315  0.4816
14597TIP3   OH265205   3.583   1.914   2.717 -0.1993 -0.1463 -0.4102
14597TIP3    H165206   3.614   2.001   2.692 -0.8317 -0.1391 -1.2151
14597TIP3    H265207   3.488   1.923   2.721 -0.3274 -1.0158 -1.3548
14598TIP3   OH265208   6.254   2.927  15.813  0.2596  0.0908 -0.2106
14598TIP3    H165209   6.274   2.959  15.902  0.9440  0.2359 -0.4084
14598TIP3    H265210   6.340   2.920  15.771 -0.0085 -0.6399 -0.6438
14599TIP3   OH265211   2.993   3.030   3.330 -0.1162 -0.1744  0.9678
14599TIP3    H165212   3.025   2.941   3.338 -0.6434 -0.2587  2.5112
14599TIP3    H265213   3.039   3.079   3.398 -0.6223  0.4855  0.8534
14600TIP3   OH265214   1.954   6.565   4.217 -0.1999 -0.1147 -0.9019
14600TIP3    H165215   1.994   6.492   4.264 -2.3714 -0.0959  1.1787
14600TIP3    H265216   1.989   6.643   4.261 -0.3459 -0.0154 -0.9641
14601TIP3   OH265217   1.928   0.081   6.367  0.8319 -0.1121  0.0747
14601TIP3    H165218   2.020   0.056   6.366  0.8855  0.0622  0.5183
14601TIP3    H265219   1.880  -0.002   6.366  0.9841 -0.2009 -0.4326
14602TIP3   OH265220   6.461   0.121   3.750  0.1985 -0.5632 -0.4542
14602TIP3    H165221   6.432   0.131   3.659  0.4889  0.7769 -0.4195
14602TIP3    H265222   6.412   0.188   3.798 -0.6258 -1.8384  0.5600
14603TIP3   OH265223   6.087   2.862  12.972 -0.2941  0.4202 -0.0166
14603TIP3    H165224   6.085   2.787  12.913 -0.1023  1.9093 -2.0154
14603TIP3    H265225   6.153   2.920  12.935  0.6237  0.9953  2.2897
14604TIP3   OH265226   2.996   0.874   0.775  0.6833  0.0065 -0.1741
14604TIP3    H165227   3.003   0.834   0.689 -1.4337  0.3613 -0.5812
14604TIP3    H265228   3.033   0.961   0.764  1.7419 -0.4543 -0.3265
14605TIP3   OH265229   1.762   5.997  11.332 -0.8192 -0.0131 -0.1358
14605TIP3    H165230   1.747   5.977  11.425 -1.5706 -1.7146 -0.5757
14605TIP3    H265231   1.837   5.942  11.308 -0.1556  0.9732 -0.3808
14606TIP3   OH265232   6.353   1.919   5.620 -0.4902 -0.1169  0.8560
14606TIP3    H165233   6.392   1.866   5.689  2.2580  1.2446  0.4738
14606TIP3    H265234   6.421   1.983   5.598 -2.5223  1.6104 -0.8004
14607TIP3   OH265235   2.844   1.589   3.040 -0.0047  0.1543  0.4339
14607TIP3    H165236   2.824   1.503   3.002 -0.0027  0.3512 -0.0188
14607TIP3    H265237   2.762   1.637   3.037  0.3150  0.6652 -0.6381
14608TIP3   OH265238   4.180   1.196   0.724 -0.5069 -0.3886 -0.2669
14608TIP3    H165239   4.272   1.219   0.735 -0.7988  1.0924 -0.7442
14608TIP3    H265240   4.181   1.102   0.706  0.8202 -0.6004  0.7540
14609TIP3   OH265241   1.484   2.602  12.341 -0.1232 -0.1756 -0.6262
14609TIP3    H165242   1.483   2.599  12.436 -0.9613  1.7248 -0.5233
14609TIP3    H265243   1.391   2.604  12.316  0.0680  1.2928 -1.3398
14610TIP3   OH265244   2.653   2.330   2.327 -0.4131 -0.5273  0.1305
14610TIP3    H165245   2.687   2.256   2.378  0.1750 -0.7925 -0.6196
14610TIP3    H265246   2.663   2.406   2.384  0.6267 -0.7472  0.2511
14611TIP3   OH265247   0.492   5.338  12.140  0.3107  0.3482 -0.4297
14611TIP3    H165248   0.477   5.369  12.229  1.4700  1.6830 -0.6595
14611TIP3    H265249   0.508   5.418  12.089 -1.7062 -0.2537 -2.1487
14612TIP3   OH265250   6.374   4.128  15.541 -0.0702 -0.1079 -0.6147
14612TIP3    H165251   6.456   4.160  15.578 -0.0696 -0.8245  0.0426
14612TIP3    H265252   6.336   4.204  15.496  1.6505 -0.1308 -2.2303
14613TIP3   OH265253   3.342   0.911   3.438  0.1829 -0.3629 -0.0861
14613TIP3    H165254   3.315   0.836   3.492  0.6273 -0.3891  0.1053
14613TIP3    H265255   3.355   0.873   3.351  1.5900 -0.7589  0.2787
14614TIP3   OH265256   5.779   0.842  14.356  0.0302  0.0648  0.2580
14614TIP3    H165257   5.743   0.891  14.282 -1.7263 -0.6859  0.5613
14614TIP3    H265258   5.737   0.755  14.349  2.6770 -1.2989 -0.0053
14615TIP3   OH265259   0.426   4.034   0.151  0.2463 -0.6965 -0.0714
14615TIP3    H165260   0.377   4.011   0.230  0.3976 -0.9990 -0.0634
14615TIP3    H265261   0.367   4.012   0.079 -0.2086  0.3280 -0.0318
14616TIP3   OH265262   6.564   0.468  13.418 -0.1299 -0.4910  0.7643
14616TIP3    H165263   6.525   0.508  13.496 -0.6652 -0.8701  0.6969
14616TIP3    H265264   6.584   0.542  13.360 -2.2480 -0.3543  0.1158
14617TIP3   OH265265   0.877   2.952  10.962 -0.3994 -0.0716 -0.3189
14617TIP3    H165266   0.896   3.044  10.978 -0.2072 -0.3966  1.5565
14617TIP3    H265267   0.955   2.906  10.992 -0.8716 -0.9072 -0.3538
14618TIP3   OH265268   3.092   3.088  17.289  0.2671  0.3592 -0.4522
14618TIP3    H165269   3.016   3.093  17.230 -1.2580  2.3104  1.4816
14618TIP3    H265270   3.076   3.009  17.341  0.3573 -0.0488 -1.0329
14619TIP3   OH265271   1.135   4.400  15.093 -0.1884  0.0578  0.9014
14619TIP3    H165272   1.053   4.351  15.103 -0.4060  0.0076 -0.8079
14619TIP3    H265273   1.197   4.335  15.061  0.6158  0.0451  2.4013
14620TIP3   OH265274   5.097   3.754  10.844 -0.6357 -0.4136 -0.3014
14620TIP3    H165275   5.162   3.732  10.777 -1.0471 -0.3088 -0.7365
14620TIP3    H265276   5.074   3.670  10.884 -0.9649 -0.5765 -0.8219
14621TIP3   OH265277   3.763   1.075   0.720 -0.4702  0.2046  0.1914
14621TIP3    H165278   3.675   1.094   0.751 -0.8180  1.8483 -1.5884
14621TIP3    H265279   3.807   1.160   0.719  0.6799 -0.3784 -0.2344
14622TIP3   OH265280   0.093   4.556  11.538  0.4636  0.1364  0.5361
14622TIP3    H165281   0.144   4.475  11.534 -0.5195 -0.5137  0.8685
14622TIP3    H265282   0.088   4.586  11.448 -2.1127 -2.0691 -0.1800
14623TIP3   OH265283   5.093   6.650  12.314 -0.3276 -0.1674  0.7744
14623TIP3    H165284   5.070   6.675  12.403  0.8869  2.0424  0.5410
14623TIP3    H265285   5.013   6.666  12.263 -0.0228  2.0427  0.8982
14624TIP3   OH265286   3.072   6.532   3.231 -0.1581 -0.0566  0.2842
14624TIP3    H165287   2.991   6.496   3.195 -0.5074 -0.0047  0.9980
14624TIP3    H265288   3.044   6.609   3.280  0.3397  0.0217  0.4535
14625TIP3   OH265289   6.196   5.170  16.262  0.0942  0.2262 -0.1073
14625TIP3    H165290   6.186   5.076  16.249  0.4354  0.4808 -2.5682
14625TIP3    H265291   6.245   5.177  16.344  3.0193 -1.9222 -1.4887
14626TIP3   OH265292   3.560   2.760  16.815  0.1043 -0.4949  0.7203
14626TIP3    H165293   3.594   2.700  16.881 -1.8495 -1.0143  1.3221
14626TIP3    H265294   3.475   2.787  16.849  0.4438  1.8147 -0.0495
14627TIP3   OH265295   0.389   2.246  14.070  0.2923  0.9363  0.5325
14627TIP3    H165296   0.376   2.251  13.975  0.5795  0.8302  0.4864
14627TIP3    H265297   0.333   2.314  14.106 -2.1905 -0.9539  0.5116
14628TIP3   OH265298   1.225   0.870  11.690  0.1147 -0.2996 -0.1559
14628TIP3    H165299   1.284   0.932  11.646  1.1592 -1.2591 -0.1704
14628TIP3    H265300   1.190   0.816  11.619 -1.7188  0.9714 -0.2870
14629TIP3   OH265301   6.579   2.132  15.978 -0.5818  0.2801 -0.0911
14629TIP3    H165302   6.511   2.090  16.031 -1.2168  0.2475 -0.8982
14629TIP3    H265303   6.653   2.142  16.037 -1.7142  1.5066  1.2053
14630TIP3   OH265304   6.373   3.967  13.294 -0.2358  0.0769  0.2724
14630TIP3    H165305   6.376   4.052  13.251 -0.0061 -0.1827 -0.2263
14630TIP3    H265306   6.460   3.957  13.334  0.2097 -0.4864 -0.7796
14631TIP3   OH265307   0.278   5.566   2.986 -0.3500  0.3047  0.3426
14631TIP3    H165308   0.225   5.554   3.064 -1.4540  0.2484 -0.3949
14631TIP3    H265309   0.256   5.654   2.955 -3.5166 -1.2340 -2.4466
14632TIP3   OH265310   3.245   1.815  14.454 -0.2283 -0.0964 -0.2896
14632TIP3    H165311   3.284   1.797  14.539 -2.5985  1.1487  1.1865
14632TIP3    H265312   3.258   1.909  14.442 -2.0454  0.2241 -0.0564
14633TIP3   OH265313   5.533   6.300  12.873  0.2291  0.1447 -0.1874
14633TIP3    H165314   5.619   6.291  12.831  0.0618  0.4480 -0.6100
14633TIP3    H265315   5.553   6.335  12.960  0.4908  0.9496 -0.5600
14634TIP3   OH265316   2.375   0.901   1.010  0.2161  0.4076  0.0459
14634TIP3    H165317   2.358   0.837   1.078 -2.2670 -0.0548 -0.9184
14634TIP3    H265318   2.301   0.962   1.015  1.1890  1.7128 -0.7324
14635TIP3   OH265319   2.152   4.356  15.130  0.2361  0.4034  0.1317
14635TIP3    H165320   2.104   4.274  15.142 -0.0900  0.7057  0.9610
14635TIP3    H265321   2.116   4.415  15.196 -1.3389  2.0535 -2.0491
14636TIP3   OH265322   1.090   3.389   0.056 -0.4576 -0.4742  0.1946
14636TIP3    H165323   1.002   3.355   0.040 -1.5139  0.6896  2.8177
14636TIP3    H265324   1.137   3.315   0.095 -1.7488 -0.0069  2.8987
14637TIP3   OH265325   0.084   1.463   2.930  0.0707  0.6936  0.2202
14637TIP3    H165326   0.090   1.551   2.893 -2.4704  0.3175 -1.3269
14637TIP3    H265327  -0.010   1.444   2.931  0.4293 -1.3759  2.1076
14638TIP3   OH265328   6.154   1.835  14.446  0.8016 -0.1777  0.3464
14638TIP3    H165329   6.245   1.848  14.472  0.7818  1.8338 -0.4259
14638TIP3    H265330   6.112   1.919  14.461 -1.2847 -1.3945  1.8870
14639TIP3   OH265331   3.270   4.563  14.390 -0.0968 -0.4502  0.5969
14639TIP3    H165332   3.179   4.540  14.372 -0.0358  0.2589 -0.7359
14639TIP3    H265333   3.321   4.490  14.355 -0.0587  0.2255 -0.8299
14640TIP3   OH265334   6.008   6.050   2.856  0.6575 -0.3932 -0.4382
14640TIP3    H165335   6.003   6.027   2.763  0.3682  0.0079 -0.5259
14640TIP3    H265336   5.925   6.019   2.892  0.2672  0.4903 -0.5564
14641TIP3   OH265337   2.734   0.061   0.617 -0.8360  0.2069 -0.2339
14641TIP3    H165338   2.704   0.000   0.685 -0.2719  1.1021  0.8587
14641TIP3    H265339   2.829   0.065   0.629 -0.7132  0.3156 -1.1456
14642TIP3   OH265340   6.253   5.676  11.688 -0.3973 -0.1469  0.0349
14642TIP3    H165341   6.210   5.606  11.638 -0.7664  0.6354 -0.7683
14642TIP3    H265342   6.326   5.704  11.633 -1.4914  1.5129 -0.6345
14643TIP3   OH265343   0.937   1.695   2.710  0.2227 -0.4670  0.2961
14643TIP3    H165344   0.845   1.701   2.737  0.2673 -0.2904  0.4093
14643TIP3    H265345   0.977   1.635   2.773 -0.0151 -1.2644 -0.2870
14644TIP3   OH265346   0.696   5.138   3.610 -0.4148  0.1427  0.1613
14644TIP3    H165347   0.679   5.145   3.516  0.2413 -1.8561 -0.1741
14644TIP3    H265348   0.705   5.044   3.625 -1.2106  0.3628  2.3795
14645TIP3   OH265349   4.036   1.322  11.152 -0.3968  0.2503  0.1342
14645TIP3    H165350   3.980   1.260  11.105 -0.6201  1.2751 -0.9986
14645TIP3    H265351   4.088   1.364  11.084 -0.0649  1.1322  0.9067
14646TIP3   OH265352   5.444   1.883   3.963  0.0411  0.5461 -0.3071
14646TIP3    H165353   5.433   1.801   4.012  2.4033  0.4574  0.1704
14646TIP3    H265354   5.524   1.870   3.913 -1.1138  1.4996 -2.5517
14647TIP3   OH265355   5.213   1.405   4.789 -0.4075  0.1296 -0.3667
14647TIP3    H165356   5.200   1.411   4.695  1.0051  2.8514 -0.4972
14647TIP3    H265357   5.172   1.322   4.814 -0.2817 -0.9834 -3.4269
14648TIP3   OH265358   0.023   0.934   5.214 -0.5332 -0.0377 -0.2824
14648TIP3    H165359   0.057   0.934   5.125 -1.5247  1.4058 -0.6987
14648TIP3    H265360   0.026   1.026   5.241  2.3371 -0.7255  2.2478
14649TIP3   OH265361   3.965   3.409   5.650  0.0070 -0.4984 -0.4663
14649TIP3    H165362   3.903   3.358   5.702 -0.6146  1.3736  0.7304
14649TIP3    H265363   3.911   3.460   5.590  0.6875 -2.0960 -2.5647
14650TIP3   OH265364   5.612   0.584  13.610  0.2799 -0.1513  0.2022
14650TIP3    H165365   5.676   0.647  13.577 -0.8317  0.8386 -0.0970
14650TIP3    H265366   5.531   0.604  13.562 -1.1934  0.8380  2.8953
14651TIP3   OH265367   3.328   4.565  16.574 -0.7122 -0.0844 -0.0613
14651TIP3    H165368   3.301   4.566  16.666 -1.8584  2.2099 -0.3457
14651TIP3    H265369   3.246   4.575  16.525  0.0197  0.1180 -1.2831
14652TIP3   OH265370   3.384   4.254  14.130 -0.4431  0.0362 -0.6928
14652TIP3    H165371   3.473   4.279  14.105  0.0959 -0.2322  0.8850
14652TIP3    H265372   3.369   4.170  14.087  1.3126 -1.5411  1.5415
14653TIP3   OH265373   1.485   6.524  16.559  0.3773  0.8883  0.3277
14653TIP3    H165374   1.570   6.493  16.592 -0.7326 -3.3545 -0.2507
14653TIP3    H265375   1.505   6.557  16.471  1.4658  0.1124  0.2595
14654TIP3   OH265376   2.948   4.966   0.549  0.2272  0.2226  0.0085
14654TIP3    H165377   2.975   4.923   0.630 -1.9185  0.9193  1.2064
14654TIP3    H265378   2.881   4.909   0.512 -0.1922  0.8336 -0.2078
14655TIP3   OH265379   6.444   1.983   3.789  0.1044 -0.5280 -0.0466
14655TIP3    H165380   6.539   1.973   3.795  0.0764 -0.5103  0.4065
14655TIP3    H265381   6.411   1.893   3.783  0.2832 -0.5206 -2.4645
14656TIP3   OH265382   3.274   3.631   5.282  0.0707 -0.4983  0.2241
14656TIP3    H165383   3.225   3.622   5.200  2.7767  2.7662 -2.0544
14656TIP3    H265384   3.243   3.714   5.319  1.2227 -0.2167  0.6243
14657TIP3   OH265385   0.794   4.845  13.301  0.2644 -0.5668 -0.4425
14657TIP3    H165386   0.790   4.757  13.338  1.5531  0.0087  1.1390
14657TIP3    H265387   0.875   4.883  13.334 -0.5737  1.4693 -0.5256
14658TIP3   OH265388   6.783   5.964   0.329 -0.0479  0.5882 -0.0790
14658TIP3    H165389   6.742   6.000   0.408 -0.7333 -0.1922 -0.0552
14658TIP3    H265390   6.758   6.024   0.260  1.3155  1.7808  0.4269
14659TIP3   OH265391   2.888   0.749  15.483 -0.0290  0.0384  0.1883
14659TIP3    H165392   2.916   0.833  15.520 -1.8351  1.3348 -1.1798
14659TIP3    H265393   2.935   0.743  15.400  0.1433 -0.3474  0.3118
14660TIP3   OH265394   5.570   2.182   6.240  0.1752  0.2116 -0.0787
14660TIP3    H165395   5.502   2.177   6.173  0.4946 -0.9314 -0.3393
14660TIP3    H265396   5.548   2.112   6.302 -0.0990  1.2298  1.0227
14661TIP3   OH265397   3.134   4.031  12.417  0.2548 -0.1111  0.1755
14661TIP3    H165398   3.131   4.079  12.334 -0.0284 -0.6666 -0.1342
14661TIP3    H265399   3.049   3.989  12.424  1.3161 -2.5655 -0.7485
14662TIP3   OH265400   1.304   6.359  13.705  0.0111  0.0308 -0.1524
14662TIP3    H165401   1.239   6.316  13.650 -1.9648 -0.3806  2.3158
14662TIP3    H265402   1.269   6.447  13.718  0.0372 -0.1253  1.0277
14663TIP3   OH265403   1.326   0.216   4.789 -0.5396 -0.0115  0.0148
14663TIP3    H165404   1.324   0.272   4.866  0.6206  0.4171 -0.2454
14663TIP3    H265405   1.236   0.219   4.755 -0.4287  2.0490 -0.2352
14664TIP3   OH265406   3.336   2.790  17.028  0.3276 -0.0578 -0.1655
14664TIP3    H165407   3.298   2.769  17.113 -0.7731 -2.5929 -1.1829
14664TIP3    H265408   3.267   2.839  16.982  1.0431  1.6049  0.4426
14665TIP3   OH265409   6.779   4.637   2.732 -0.0861  0.7583 -0.2836
14665TIP3    H165410   6.698   4.626   2.781 -0.6163 -2.6997 -1.6170
14665TIP3    H265411   6.845   4.594   2.786 -0.0390 -0.1988 -1.0774
14666TIP3   OH265412   1.350   3.073  13.916 -0.7596 -0.7680  0.7963
14666TIP3    H165413   1.424   3.102  13.969 -2.0242  2.7031  0.9221
14666TIP3    H265414   1.367   3.108  13.829 -1.0704 -2.1752  0.1419
14667TIP3   OH265415   4.579   3.964   2.754  0.1383 -0.0703  0.1066
14667TIP3    H165416   4.509   3.955   2.819 -1.2740 -1.8150 -1.5158
14667TIP3    H265417   4.653   3.918   2.792  0.4770  1.7804  1.8504
14668TIP3   OH265418   4.506   2.153   3.412  0.0680  0.3276 -0.0998
14668TIP3    H165419   4.537   2.062   3.413  0.8812  0.5992  0.4419
14668TIP3    H265420   4.576   2.201   3.369  0.4408  0.9607  1.1636
14669TIP3   OH265421   6.531   1.617  16.230 -0.0549  0.4453 -0.3379
14669TIP3    H165422   6.473   1.582  16.162  0.8863 -1.3333 -0.2713
14669TIP3    H265423   6.472   1.641  16.302 -0.6798 -4.6415  1.2358
14670TIP3   OH265424   2.083   2.415  12.161 -0.5483  0.0893  0.1691
14670TIP3    H165425   2.087   2.504  12.198  0.1619 -0.5117  1.6235
14670TIP3    H265426   2.143   2.364  12.215 -1.6982 -1.5108  0.0094
14671TIP3   OH265427   3.261   3.865   0.193 -0.2959 -0.3247  0.2576
14671TIP3    H165428   3.216   3.949   0.198 -1.4191 -0.8997  0.2605
14671TIP3    H265429   3.340   3.876   0.246 -0.5563  0.6416  0.4577
14672TIP3   OH265430   5.786   0.685  11.850 -0.6537 -0.3923  0.0344
14672TIP3    H165431   5.696   0.664  11.822 -1.6475  2.1579  1.0679
14672TIP3    H265432   5.789   0.657  11.941 -0.0168 -1.3627 -0.2604
14673TIP3   OH265433   4.145   5.033   4.647  0.0810 -0.1413 -0.1898
14673TIP3    H165434   4.090   5.090   4.593 -1.3736 -0.0530  1.3071
14673TIP3    H265435   4.180   5.091   4.714  0.3071 -0.6168  0.1040
14674TIP3   OH265436   1.595   6.694   0.039  0.6766 -0.0202  0.2937
14674TIP3    H165437   1.587   6.785   0.064  1.3140  0.0081  0.4269
14674TIP3    H265438   1.547   6.686  -0.043 -0.2073  0.2111  0.7851
14675TIP3   OH265439   4.512   6.233   4.857 -0.0899 -0.0704  0.0403
14675TIP3    H165440   4.505   6.329   4.855  0.0809 -0.0192  1.0943
14675TIP3    H265441   4.454   6.207   4.929  1.5271 -0.5742  1.2115
14676TIP3   OH265442   0.203   3.319  12.194  0.6979  0.1493 -0.8121
14676TIP3    H165443   0.177   3.341  12.283 -1.0858 -0.1690 -1.2047
14676TIP3    H265444   0.298   3.331  12.192  0.7562  0.2519  1.0906
14677TIP3   OH265445   1.910   2.638  17.250 -0.1704 -0.1639  0.7098
14677TIP3    H165446   1.875   2.555  17.216  1.1436 -0.1361 -0.8387
14677TIP3    H265447   1.849   2.704  17.217 -0.3708 -0.3879  0.6246
14678TIP3   OH265448   3.435   3.032  12.617  0.4671  0.2053 -0.8307
14678TIP3    H165449   3.443   3.125  12.637  0.5860 -0.0850  0.5635
14678TIP3    H265450   3.473   2.987  12.693 -3.1743 -1.0429  0.4647
14679TIP3   OH265451   6.279   2.827   0.410 -0.3052  0.2257 -0.4090
14679TIP3    H165452   6.256   2.794   0.323 -0.6769 -0.0976 -0.1922
14679TIP3    H265453   6.320   2.912   0.394 -0.1585  0.0600 -0.9136
14680TIP3   OH265454   6.263   3.347  14.796 -0.6811 -0.0411 -0.0716
14680TIP3    H165455   6.323   3.305  14.858  0.8844 -0.4733 -1.7950
14680TIP3    H265456   6.188   3.287  14.792  0.2948 -1.2930 -0.4033
14681TIP3   OH265457   1.692   0.834  13.372  0.3519 -0.0469 -0.2932
14681TIP3    H165458   1.598   0.827  13.354  0.6823 -1.9007 -1.6167
14681TIP3    H265459   1.721   0.905  13.314  0.0829 -0.8484 -1.4552
14682TIP3   OH265460   2.602   5.606   0.069 -0.0536 -0.4291  0.7482
14682TIP3    H165461   2.687   5.564   0.055 -0.4735 -1.4442  1.1195
14682TIP3    H265462   2.559   5.551   0.135 -0.6019  0.6472  1.3121
14683TIP3   OH265463   1.206   3.792  16.817 -0.3025 -0.9190  1.1982
14683TIP3    H165464   1.195   3.735  16.740 -0.4226 -0.5779  0.9633
14683TIP3    H265465   1.251   3.869  16.783 -1.6382 -0.1253  1.1837
14684TIP3   OH265466   2.220   1.618  15.404  0.0728  0.1819  0.5124
14684TIP3    H165467   2.138   1.576  15.377 -0.3095 -0.5123  2.6100
14684TIP3    H265468   2.273   1.618  15.324 -1.6042 -0.1806 -0.6768
14685TIP3   OH265469   4.441   2.209   2.170  0.5534 -0.3392  0.4391
14685TIP3    H165470   4.391   2.229   2.249  0.9477  1.6662  0.2134
14685TIP3    H265471   4.510   2.150   2.200 -0.7637 -1.6389  1.0864
14686TIP3   OH265472   0.997   2.476  13.025  0.3697 -0.5770 -0.4154
14686TIP3    H165473   0.964   2.421  13.097 -0.5083  0.3191 -0.1105
14686TIP3    H265474   1.033   2.553  13.068  0.0074 -0.1195 -0.9266
14687TIP3   OH265475   0.503   4.575   6.169  0.3157 -0.3943 -0.3731
14687TIP3    H165476   0.526   4.487   6.197  0.4728  0.3313  2.0052
14687TIP3    H265477   0.407   4.577   6.172  0.3459  0.0311  1.5100
14688TIP3   OH265478   3.551   6.401  15.986  0.0342  0.0320  0.3200
14688TIP3    H165479   3.582   6.377  16.074 -1.2762 -1.0486  0.5048
14688TIP3    H265480   3.500   6.481  16.000  0.3847  0.2412  0.4289
14689TIP3   OH265481   6.258   3.095  13.854 -0.0287 -0.6710  0.0359
14689TIP3    H165482   6.334   3.059  13.808  0.5775 -0.6772  1.0043
14689TIP3    H265483   6.270   3.190  13.848  0.9242 -0.6545  1.4978
14690TIP3   OH265484   2.379   5.767  11.363 -0.1280 -0.0375  0.6607
14690TIP3    H165485   2.338   5.852  11.381  0.8939  0.8851 -1.0563
14690TIP3    H265486   2.339   5.738  11.281 -0.3069 -1.1273  1.1247
14691TIP3   OH265487   1.945   2.952  11.656 -0.4405 -0.2144  0.4364
14691TIP3    H165488   2.010   2.954  11.586  0.2601 -1.3402  1.0459
14691TIP3    H265489   1.988   2.995  11.730 -0.3952 -0.9050  0.8198
14692TIP3   OH265490   1.096   4.392  13.907 -0.4910  0.3480  0.8086
14692TIP3    H165491   1.106   4.422  13.997 -1.6092 -1.8942  1.7565
14692TIP3    H265492   1.179   4.348  13.887 -0.4359  0.3922  0.9397
14693TIP3   OH265493   6.020   1.299   1.244  0.3881  0.0893 -0.5124
14693TIP3    H165494   5.971   1.218   1.228  1.2802 -0.5004 -0.3744
14693TIP3    H265495   6.097   1.270   1.293 -0.3525  1.3278  1.4953
14694TIP3   OH265496   3.854   6.662  13.319 -0.3673 -0.7769 -0.1714
14694TIP3    H165497   3.918   6.617  13.264  1.8542 -0.1408  1.7452
14694TIP3    H265498   3.852   6.751  13.285 -0.3017 -0.8097 -0.2632
14695TIP3   OH265499   1.158   3.250   3.165 -0.0935 -0.2423 -0.4775
14695TIP3    H165500   1.161   3.293   3.079 -0.8407 -0.5595 -0.6737
14695TIP3    H265501   1.101   3.306   3.217 -0.8706 -0.8394 -0.6593
14696TIP3   OH265502   3.603   3.294  11.223  0.0382 -0.7453 -0.0569
14696TIP3    H165503   3.560   3.336  11.297 -3.7221 -3.7719 -0.2285
14696TIP3    H265504   3.684   3.258  11.259  0.0112  0.7805  1.6496
14697TIP3   OH265505   2.859   4.560  15.819  0.0787  0.0054  0.5489
14697TIP3    H165506   2.863   4.655  15.806 -0.1288  0.1492  1.4890
14697TIP3    H265507   2.867   4.548  15.913  0.9084 -0.9712  0.3663
14698TIP3   OH265508   2.634   4.477   5.059  0.6046  0.2505  0.0662
14698TIP3    H165509   2.565   4.433   5.010 -0.8548  1.0048  1.3455
14698TIP3    H265510   2.714   4.456   5.012 -0.0947 -3.0132  0.0676
14699TIP3   OH265511   3.331   3.823  11.777 -0.4171 -0.1765  0.0696
14699TIP3    H165512   3.296   3.903  11.817  1.4579  0.7035  0.0208
14699TIP3    H265513   3.297   3.752  11.832 -2.0917  0.6103  0.1252
14700TIP3   OH265514   1.542   5.982   5.484 -0.6258  0.2231 -0.3884
14700TIP3    H165515   1.583   5.925   5.549 -0.9743 -0.2737 -0.5982
14700TIP3    H265516   1.602   6.056   5.477 -1.7261  1.4854  2.2284
14701TIP3   OH265517   5.777   1.480   0.966 -0.3348 -0.2247  0.5073
14701TIP3    H165518   5.772   1.386   0.980 -1.3883 -0.2342  0.1659
14701TIP3    H265519   5.870   1.501   0.970  0.1072 -1.5948 -1.5262
14702TIP3   OH265520   2.051   4.526  14.901  0.1350  0.6364 -0.0876
14702TIP3    H165521   2.127   4.491  14.947  0.9320  0.4014 -1.5298
14702TIP3    H265522   1.979   4.469  14.928  1.2069 -1.5827 -1.6300
14703TIP3   OH265523   3.461   1.190  13.909  0.2057 -0.4516 -0.6519
14703TIP3    H165524   3.544   1.173  13.953  0.3455  1.6654 -0.0032
14703TIP3    H265525   3.464   1.282  13.885 -1.5935 -0.5466 -1.4384
14704TIP3   OH265526   2.199   3.819  13.862  0.1583  0.1308 -0.8335
14704TIP3    H165527   2.224   3.786  13.776  0.1025  0.8799 -1.1498
14704TIP3    H265528   2.158   3.904  13.844 -2.1035 -0.7708 -0.2932
14705TIP3   OH265529   0.891   0.887  11.583  0.4874  0.3805 -0.3108
14705TIP3    H165530   0.929   0.966  11.621  1.1478 -0.7343  1.4543
14705TIP3    H265531   0.860   0.836  11.658  1.3951 -1.7099 -1.2643
14706TIP3   OH265532   6.098   5.359  14.010  0.3491 -0.0228 -1.2090
14706TIP3    H165533   6.046   5.404  14.076  0.2975 -0.7822 -0.7264
14706TIP3    H265534   6.185   5.398  14.018 -0.0894  1.1620 -1.9382
14707TIP3   OH265535   2.475   1.394   3.579 -0.7127  0.1569  0.6043
14707TIP3    H165536   2.489   1.483   3.546 -0.9428 -0.2771 -0.7434
14707TIP3    H265537   2.563   1.355   3.578 -0.5700  0.4335  1.4449
14708TIP3   OH265538   1.375   3.697  16.449 -0.0736  0.4307 -0.3523
14708TIP3    H165539   1.371   3.684  16.354  1.7564  0.9296 -0.5452
14708TIP3    H265540   1.294   3.658  16.483 -1.3140  1.2818 -2.2099
14709TIP3   OH265541   4.851   2.195  17.172 -0.2831 -0.2543 -0.1434
14709TIP3    H165542   4.773   2.196  17.117 -0.9131 -2.0569  0.6480
14709TIP3    H265543   4.921   2.225  17.114 -0.6629 -3.2356 -2.4064
14710TIP3   OH265544   5.546   3.350   6.794 -0.0964 -0.2375 -0.3631
14710TIP3    H165545   5.474   3.307   6.839  0.1125  1.0801  1.3344
14710TIP3    H265546   5.539   3.442   6.821  1.1586  0.2479 -1.5934
14711TIP3   OH265547   1.384   2.373  15.648  0.1631  0.0473  0.2826
14711TIP3    H165548   1.363   2.281  15.634 -0.7491  0.3474 -0.4119
14711TIP3    H265549   1.471   2.384  15.610  1.5000 -1.1060  2.7515
14712TIP3   OH265550   6.422   6.276  12.307 -0.0388  0.0477  0.3775
14712TIP3    H165551   6.477   6.330  12.365  0.4030  1.0977 -0.9524
14712TIP3    H265552   6.342   6.260  12.357  1.4767 -1.6609  2.4497
14713TIP3   OH265553   5.610   5.212  15.977 -0.0049 -1.0697 -0.3535
14713TIP3    H165554   5.676   5.155  15.939  3.3636  0.1580  2.9979
14713TIP3    H265555   5.595   5.177  16.065 -2.1342  0.0398 -0.1939
14714TIP3   OH265556   0.448   5.980   4.390  0.1677 -0.0760 -0.6961
14714TIP3    H165557   0.366   6.022   4.418 -0.0402 -0.3848 -0.8396
14714TIP3    H265558   0.428   5.886   4.390  0.7586 -0.2013  0.0238
14715TIP3   OH265559   3.994   4.480  11.827  0.0603 -0.7692 -0.5466
14715TIP3    H165560   3.934   4.498  11.755  0.3223 -2.2813 -1.1858
14715TIP3    H265561   4.079   4.507  11.795 -0.1281  0.5773  0.0374
14716TIP3   OH265562   4.809   2.791   2.806 -0.3187  0.1873  0.4401
14716TIP3    H165563   4.875   2.765   2.742 -1.0831  1.6460 -1.0261
14716TIP3    H265564   4.755   2.714   2.820  0.7500 -0.5671  0.4831
14717TIP3   OH265565   4.515   1.661  11.789  0.2405  0.2539 -0.2539
14717TIP3    H165566   4.605   1.647  11.816 -0.5169  0.0337  2.5196
14717TIP3    H265567   4.518   1.732  11.726  2.2479  0.8989  0.5263
14718TIP3   OH265568   6.736   3.208   2.073 -0.0041 -0.6119  0.1695
14718TIP3    H165569   6.830   3.204   2.057  0.1809 -0.3136  1.1288
14718TIP3    H265570   6.723   3.291   2.118 -1.1288  0.7037 -2.4136
14719TIP3   OH265571   3.171   0.921   3.055 -0.0851 -0.3308  0.5368
14719TIP3    H165572   3.096   0.912   2.997  0.0617 -1.2944  0.4735
14719TIP3    H265573   3.186   1.015   3.061 -0.8926 -0.1612  0.0380
14720TIP3   OH265574   5.735   0.808   1.762  0.6897 -0.4069  0.4002
14720TIP3    H165575   5.817   0.849   1.788  0.2483  2.5904 -2.3241
14720TIP3    H265576   5.672   0.881   1.760 -1.0997 -1.8974 -1.1606
14721TIP3   OH265577   6.159   1.585  15.868 -0.0756  0.5804 -0.2183
14721TIP3    H165578   6.169   1.508  15.813 -0.8320  0.9344 -0.8627
14721TIP3    H265579   6.160   1.659  15.806 -0.8711  0.9846  0.2409
14722TIP3   OH265580   3.976   5.442   0.955 -0.4847  0.1539 -0.2581
14722TIP3    H165581   4.050   5.424   1.013 -0.9925 -0.5191  0.2078
14722TIP3    H265582   4.002   5.519   0.905  0.3967  0.1137  0.1222
14723TIP3   OH265583   4.383   0.719   3.377 -0.3087  0.6016 -0.1007
14723TIP3    H165584   4.388   0.723   3.472 -0.1827  1.2418 -0.1306
14723TIP3    H265585   4.439   0.645   3.352  0.1062  0.7867  0.2818
14724TIP3   OH265586   4.993   3.301   5.524  0.1380  0.5030 -0.4881
14724TIP3    H165587   5.082   3.283   5.495  0.2124  0.8455 -0.4849
14724TIP3    H265588   4.989   3.268   5.613  0.0421 -0.1610 -0.7314
14725TIP3   OH265589   2.735   5.316  11.049 -0.8050  0.5171 -0.3279
14725TIP3    H165590   2.786   5.394  11.024  1.1536 -0.0989  1.4418
14725TIP3    H265591   2.799   5.245  11.048 -2.3005 -0.8676 -0.7052
14726TIP3   OH265592   4.878   3.020  12.640 -0.1789  0.1679  0.0565
14726TIP3    H165593   4.839   3.094  12.686 -0.9894 -1.2232  1.6996
14726TIP3    H265594   4.812   2.951  12.646  1.2371 -1.2194  0.0140
14727TIP3   OH265595   6.147   4.347   3.948 -0.1531  0.6716  0.0893
14727TIP3    H165596   6.084   4.284   3.981  0.1448  0.4244  0.1948
14727TIP3    H265597   6.227   4.296   3.934 -0.8160  0.2917 -2.9934
14728TIP3   OH265598   4.400   4.722   3.584 -0.4143 -0.1688  0.2823
14728TIP3    H165599   4.456   4.652   3.549  1.7135  1.0052  1.1337
14728TIP3    H265600   4.393   4.702   3.678  0.0617  0.6079  0.4985
14729TIP3   OH265601   1.614   4.462  15.915 -0.0934  0.4140  0.3509
14729TIP3    H165602   1.625   4.546  15.961 -1.9001  0.9128 -0.0688
14729TIP3    H265603   1.663   4.473  15.833 -2.3396  2.0423 -0.8565
14730TIP3   OH265604   3.937   3.245  13.431 -1.1504  0.4921  0.0560
14730TIP3    H165605   3.958   3.293  13.511  1.0713 -0.3732  0.0655
14730TIP3    H265606   3.920   3.314  13.366  1.2951  1.3780  0.2437
14731TIP3   OH265607   1.868   2.728   2.634 -0.7649 -0.3385  0.0275
14731TIP3    H165608   1.906   2.757   2.551  0.0824  0.3055  0.6313
14731TIP3    H265609   1.820   2.648   2.611  2.2453 -2.1692 -0.5256
14732TIP3   OH265610   4.187   3.709  15.296  0.1670  0.0465  0.0085
14732TIP3    H165611   4.213   3.774  15.362  1.0718  0.4426 -0.7059
14732TIP3    H265612   4.098   3.684  15.320  0.7064 -0.3084  1.7594
14733TIP3   OH265613   0.056   3.036   1.513  0.1030 -0.3778  0.4965
14733TIP3    H165614   0.010   3.028   1.597 -0.3969 -0.8491  0.1784
14733TIP3    H265615  -0.002   2.994   1.450  0.3773  0.1760 -0.1268
14734TIP3   OH265616   2.914   4.077   0.482  0.4145 -0.5404 -0.6670
14734TIP3    H165617   2.834   4.123   0.508 -0.0716 -1.4942 -0.4153
14734TIP3    H265618   2.891   4.034   0.399  0.9221 -0.1848 -0.9997
14735TIP3   OH265619   6.643   1.970  15.198 -0.3779 -0.3149  0.2095
14735TIP3    H165620   6.548   1.976  15.209 -0.3941  2.0671 -0.6297
14735TIP3    H265621   6.663   2.029  15.125  1.7969 -0.4092  0.6463
14736TIP3   OH265622   3.894   2.198   5.586 -0.2856  0.4315  0.2808
14736TIP3    H165623   3.935   2.272   5.542 -0.6426 -0.0605 -0.9276
14736TIP3    H265624   3.909   2.124   5.527 -2.0980  0.0633  0.2209
14737TIP3   OH265625   3.581   1.119   1.448  0.3518 -0.5666 -0.0052
14737TIP3    H165626   3.651   1.060   1.422  0.1969 -0.4417 -0.7288
14737TIP3    H265627   3.595   1.198   1.396  1.5973  0.7661  2.1789
14738TIP3   OH265628   5.760   4.832  15.424  0.0925 -0.3476 -0.0016
14738TIP3    H165629   5.850   4.865  15.432  0.9131 -1.5424 -3.0349
14738TIP3    H265630   5.769   4.737  15.428 -1.0303 -0.4746 -0.2742
14739TIP3   OH265631   2.811   0.388  15.431 -0.2135  0.0775  0.2281
14739TIP3    H165632   2.840   0.431  15.512  2.4711 -0.3888 -0.3750
14739TIP3    H265633   2.861   0.432  15.362 -1.2690 -0.5879 -0.9906
14740TIP3   OH265634   2.108   3.558  13.430  0.7953 -0.0147 -0.5224
14740TIP3    H165635   2.140   3.579  13.342  2.6941 -0.5683 -0.0165
14740TIP3    H265636   2.125   3.638  13.481 -0.0119  0.1980 -0.5812
14741TIP3   OH265637   4.510   2.622  16.786  0.6237  0.1862 -0.0310
14741TIP3    H165638   4.458   2.555  16.743 -1.3754  1.0590  0.9050
14741TIP3    H265639   4.578   2.645  16.722  0.8730 -2.0920 -0.6700
14742TIP3   OH265640   4.188   1.997   2.043 -0.6122  0.2135  0.0679
14742TIP3    H165641   4.250   1.934   2.080 -2.1965 -0.9515  0.8548
14742TIP3    H265642   4.171   1.964   1.955 -0.0659  0.5855 -0.1822
14743TIP3   OH265643   3.303   5.291   0.003  0.1208 -0.5336  0.2212
14743TIP3    H165644   3.217   5.279   0.042 -0.5893 -0.3193 -1.2281
14743TIP3    H265645   3.358   5.225   0.046 -1.2479 -2.0640 -0.2701
14744TIP3   OH265646   4.340   6.774   6.301 -0.1341  0.3513  0.1281
14744TIP3    H165647   4.297   6.854   6.268 -1.9023 -0.0777  1.2248
14744TIP3    H265648   4.283   6.745   6.373  0.5762 -1.8073 -0.1283
14745TIP3   OH265649   2.514   5.998  17.028 -0.1581  0.3017  0.6808
14745TIP3    H165650   2.493   6.059  17.099  0.9680  1.3161  0.1764
14745TIP3    H265651   2.584   6.041  16.979 -1.0074 -0.2894 -1.1624
14746TIP3   OH265652   4.633   4.850   0.003 -0.0257 -0.4083  0.3562
14746TIP3    H165653   4.605   4.937   0.031 -0.1200 -0.2902 -0.1003
14746TIP3    H265654   4.709   4.831   0.058  1.0698  0.6961 -0.7070
14747TIP3   OH265655   3.315   5.259   6.177  0.1728 -0.3694 -0.1799
14747TIP3    H165656   3.281   5.222   6.096 -2.2666  1.0229  0.0976
14747TIP3    H265657   3.252   5.233   6.244  1.1108  0.0720  0.9185
14748TIP3   OH265658   3.239   2.537  13.244  1.3028  0.0314  0.7177
14748TIP3    H165659   3.175   2.592  13.198  2.6526  0.2647 -0.9870
14748TIP3    H265660   3.218   2.549  13.337 -1.2153 -0.0604  0.2252
14749TIP3   OH265661   2.821   6.702  14.031 -0.2574  0.2635 -0.3841
14749TIP3    H165662   2.876   6.753  14.091  1.1766 -0.4473 -1.0353
14749TIP3    H265663   2.732   6.713  14.065  0.2555  1.5634  0.6398
14750TIP3   OH265664   2.866   1.690   1.026 -0.2965 -0.6133  0.2931
14750TIP3    H165665   2.904   1.605   1.002 -3.2274 -2.1151  0.5391
14750TIP3    H265666   2.822   1.720   0.946  2.1531  1.6974 -0.3648
14751TIP3   OH265667   1.509   3.007   4.022  0.9936  0.4053  0.0906
14751TIP3    H165668   1.493   2.968   4.109 -1.5660  0.3414 -0.3244
14751TIP3    H265669   1.492   2.936   3.961  1.2075  0.8666 -0.5071
14752TIP3   OH265670   6.374   5.931   4.147 -0.4110  0.0963  0.3145
14752TIP3    H165671   6.358   5.937   4.052  0.0949  0.5809  0.2563
14752TIP3    H265672   6.345   5.843   4.170  2.3996 -1.2706 -0.8725
14753TIP3   OH265673   5.633   2.842   3.261 -0.6844 -0.3050  0.6803
14753TIP3    H165674   5.662   2.758   3.297  1.4895  0.4635  0.8039
14753TIP3    H265675   5.677   2.908   3.314  0.2886  0.8839 -1.5179
14754TIP3   OH265676   3.670   6.618  13.508  0.1790 -0.5468  0.3530
14754TIP3    H165677   3.607   6.606  13.437  0.9680  2.1815 -0.9709
14754TIP3    H265678   3.755   6.624  13.464  0.7117  0.9820  1.4873
14755TIP3   OH265679   5.033   4.557   2.742 -0.2890 -0.6945  0.2415
14755TIP3    H165680   5.051   4.464   2.756  2.0748 -0.1445  1.4229
14755TIP3    H265681   5.073   4.578   2.658 -1.1756 -0.7917 -0.2214
14756TIP3   OH265682   1.483   6.014  10.776 -0.1442 -0.7715  0.1447
14756TIP3    H165683   1.469   6.109  10.783 -4.6430 -1.2524  1.1043
14756TIP3    H265684   1.526   5.991  10.858 -1.0370  0.2353  0.9365
14757TIP3   OH265685   1.367   3.684  12.480  0.3639 -0.2982  0.0458
14757TIP3    H165686   1.340   3.604  12.435  0.6383  0.0198 -0.7132
14757TIP3    H265687   1.287   3.714  12.525 -0.2853  0.0223 -1.2479
14758TIP3   OH265688   5.632   5.474   3.630 -0.3342 -0.3777 -0.1709
14758TIP3    H165689   5.715   5.426   3.625  0.4006  0.8124  0.2563
14758TIP3    H265690   5.621   5.512   3.543  0.9440  1.6364  0.4853
14759TIP3   OH265691   4.283   4.292   4.407 -0.0889 -0.0311  0.4939
14759TIP3    H165692   4.223   4.353   4.363 -0.6735 -0.4682  0.6657
14759TIP3    H265693   4.344   4.265   4.339 -0.5815 -0.1925  0.1054
14760TIP3   OH265694   5.685   1.804   2.863 -0.1891 -0.0602  0.0542
14760TIP3    H165695   5.712   1.719   2.897  0.3520 -0.7542 -1.9499
14760TIP3    H265696   5.768   1.848   2.841 -0.4030  1.4698  2.0233
14761TIP3   OH265697   3.362   5.759   0.229 -0.3546 -0.2542 -0.2226
14761TIP3    H165698   3.346   5.757   0.135  1.4506  0.0717 -0.5775
14761TIP3    H265699   3.338   5.671   0.259 -2.1978  0.0391 -0.7193
14762TIP3   OH265700   2.530   4.682  11.391  0.2835  0.1381  0.3751
14762TIP3    H165701   2.509   4.592  11.369 -0.1773  0.4781 -0.6502
14762TIP3    H265702   2.596   4.708  11.326 -1.1854  1.1998 -0.7606
14763TIP3   OH265703   6.418   4.892   0.195  1.0286  0.1461 -0.2391
14763TIP3    H165704   6.506   4.879   0.230  1.2899  0.7578 -0.6407
14763TIP3    H265705   6.407   4.987   0.194  0.7961  0.1236 -1.2218
14764TIP3   OH265706   2.603   5.860   0.715  0.3462 -0.4382 -0.3221
14764TIP3    H165707   2.599   5.952   0.742  1.2868 -1.2739  3.0707
14764TIP3    H265708   2.693   5.849   0.685  0.4491 -0.4064 -0.0305
14765TIP3   OH265709   4.241   0.451  12.678  0.5291  0.0413 -0.3714
14765TIP3    H165710   4.325   0.489  12.652  1.7056 -1.2728  1.2941
14765TIP3    H265711   4.251   0.357  12.662 -0.5377 -0.1690  0.0976
14766TIP3   OH265712   1.750   5.262  15.156  0.8446 -0.2197 -0.0871
14766TIP3    H165713   1.740   5.357  15.166  0.9266 -0.2213  0.0038
14766TIP3    H265714   1.759   5.249  15.062  0.2739 -0.1864 -0.1499
14767TIP3   OH265715   3.387   1.135   5.947  0.0916 -0.7599  0.4650
14767TIP3    H165716   3.373   1.101   6.035  1.4886  1.4322  1.6399
14767TIP3    H265717   3.466   1.091   5.916  0.1457 -0.8344  0.7094
14768TIP3   OH265718   1.228   2.601  12.260  0.5907  0.3702  0.3488
14768TIP3    H165719   1.162   2.670  12.256 -0.9961 -1.0245  1.2275
14768TIP3    H265720   1.191   2.529  12.209  0.9862 -0.7740  1.6113
14769TIP3   OH265721   5.176   5.828   4.049 -0.6711 -0.0374 -0.2433
14769TIP3    H165722   5.102   5.768   4.040  1.1092 -2.2553 -0.9812
14769TIP3    H265723   5.244   5.792   3.991  0.7441  2.3316 -0.1877
14770TIP3   OH265724   2.859   3.107  15.486  0.1511 -0.2507  0.0245
14770TIP3    H165725   2.882   3.186  15.535 -0.7920  0.0224  0.0489
14770TIP3    H265726   2.936   3.090  15.431  0.0190  1.2191 -0.6735
14771TIP3   OH265727   3.941   4.579   4.702 -0.7607 -0.0534 -0.0233
14771TIP3    H165728   3.848   4.563   4.691 -0.6794 -2.4096  1.8183
14771TIP3    H265729   3.983   4.495   4.684  0.8369  0.5216  0.7294
14772TIP3   OH265730   5.879   1.409   2.571 -0.2957  0.0678  0.0022
14772TIP3    H165731   5.824   1.464   2.515 -1.8511 -1.3451  0.0736
14772TIP3    H265732   5.855   1.433   2.660  1.1945  1.3399  0.1080
14773TIP3   OH265733   0.435   0.684  11.220  0.4440 -0.0361  0.0008
14773TIP3    H165734   0.509   0.661  11.165  0.4181  1.6224 -0.7785
14773TIP3    H265735   0.375   0.610  11.212  1.7139 -1.1139  0.1421
14774TIP3   OH265736   6.780   6.368   2.103  0.8437 -0.3976 -0.1240
14774TIP3    H165737   6.855   6.311   2.085 -0.0683 -1.0016 -2.3227
14774TIP3    H265738   6.740   6.331   2.181  3.4690  0.6875  1.9227
14775TIP3   OH265739   6.412   0.664   1.831 -0.1027 -0.7275 -0.1802
14775TIP3    H165740   6.463   0.589   1.801  0.9879  0.3248 -1.0354
14775TIP3    H265741   6.451   0.688   1.915  1.6699  0.7805 -1.3484
14776TIP3   OH265742   6.009   1.720  14.220  0.5048 -0.6204  0.1340
14776TIP3    H165743   6.003   1.815  14.211 -0.5324 -0.4945  1.7437
14776TIP3    H265744   6.048   1.706  14.306 -1.0820 -1.6250  0.7512
14777TIP3   OH265745   0.973   2.341   4.351  0.2812 -0.0869  0.3024
14777TIP3    H165746   1.044   2.293   4.307 -0.3269 -1.1281  0.4271
14777TIP3    H265747   0.947   2.284   4.423 -0.4493  0.4475  0.4672
14778TIP3   OH265748   2.291   3.921   3.701 -0.0285 -0.1911  0.6869
14778TIP3    H165749   2.261   4.006   3.733 -1.6397 -0.3418 -0.3097
14778TIP3    H265750   2.282   3.926   3.606  1.8134 -0.7888  0.4343
14779TIP3   OH265751   1.996   1.420  16.736  0.3317  0.2824 -0.3981
14779TIP3    H165752   2.090   1.416  16.718  0.2838 -1.1495 -0.4613
14779TIP3    H265753   1.959   1.347  16.686 -0.4700 -0.7240  1.5623
14780TIP3   OH265754   1.688   3.160  12.144 -0.5333 -0.1582 -0.5649
14780TIP3    H165755   1.610   3.216  12.140 -1.2359 -0.2816  4.6109
14780TIP3    H265756   1.660   3.079  12.101 -2.4661  0.5701 -0.8156
14781TIP3   OH265757   3.694   3.236   2.827  0.2356 -0.4998  0.2654
14781TIP3    H165758   3.643   3.290   2.887 -0.0118 -1.9688  1.4434
14781TIP3    H265759   3.785   3.249   2.855  0.3261  0.5041 -0.4753
14782TIP3   OH265760   1.223   6.043  13.403  0.3025 -0.0254 -0.4064
14782TIP3    H165761   1.256   6.031  13.314  0.4417  1.1179 -0.5201
14782TIP3    H265762   1.295   6.014  13.459  0.6819  0.4126 -0.6645
14783TIP3   OH265763   3.074   0.275  11.564 -0.1182 -0.0391  0.2176
14783TIP3    H165764   3.085   0.362  11.525  1.9887  0.4346  1.7274
14783TIP3    H265765   3.029   0.291  11.647  0.2154 -0.3971  0.4688
14784TIP3   OH265766   3.797   1.585  15.706  0.4689 -0.1740  0.0390
14784TIP3    H165767   3.749   1.513  15.667  1.4581  0.3781 -2.3841
14784TIP3    H265768   3.866   1.606  15.642  0.2788  2.8475  0.6542
14785TIP3   OH265769   4.027   2.683  12.791  0.2055  0.1945 -0.3590
14785TIP3    H165770   4.006   2.662  12.882  2.7446 -0.8666  0.0590
14785TIP3    H265771   3.973   2.623  12.740 -0.5023  0.1004  0.4728
14786TIP3   OH265772   5.286   5.155  11.640  0.6224  0.1790  0.7993
14786TIP3    H165773   5.238   5.078  11.672  0.6961 -1.2834 -2.2178
14786TIP3    H265774   5.362   5.118  11.595  2.4554  2.2655  1.9910
14787TIP3   OH265775   6.673   4.122  15.970  0.1598  0.5580 -0.2960
14787TIP3    H165776   6.709   4.117  15.882  0.0963 -0.1654 -0.2891
14787TIP3    H265777   6.731   4.066  16.023 -0.3604  0.2131 -0.0795
14788TIP3   OH265778   1.360   1.401   4.056  0.5527 -0.2058  0.2251
14788TIP3    H165779   1.330   1.438   4.139  0.2343 -1.0691  0.5065
14788TIP3    H265780   1.382   1.477   4.002  0.2887  0.3751  0.9222
14789TIP3   OH265781   0.967   4.100  16.235  0.2487  0.2268  0.9183
14789TIP3    H165782   0.960   4.114  16.140  0.7638 -0.6327  0.7354
14789TIP3    H265783   1.014   4.177  16.267  0.4711  0.3135  0.4003
14790TIP3   OH265784   0.507   0.698  13.174  0.1926  0.3893 -0.5028
14790TIP3    H165785   0.570   0.631  13.147  1.4972  1.5017 -0.3135
14790TIP3    H265786   0.524   0.772  13.116 -0.3668  1.0105  0.1093
14791TIP3   OH265787   4.737   6.639  12.459  0.4399  0.7043  0.5704
14791TIP3    H165788   4.660   6.583  12.449 -0.2462  1.6902  0.2077
14791TIP3    H265789   4.766   6.656  12.369  0.2969  1.3873  0.6465
14792TIP3   OH265790   4.025   4.231   5.075 -0.5747  0.0490 -0.7946
14792TIP3    H165791   3.981   4.171   5.135  0.9561  0.5239  0.9088
14792TIP3    H265792   4.027   4.315   5.122  2.4756 -0.0638 -0.5346
14793TIP3   OH265793   6.563   0.336  11.826  1.2088 -0.3288  0.5685
14793TIP3    H165794   6.572   0.312  11.734  1.8622  2.0067 -0.0423
14793TIP3    H265795   6.645   0.382  11.846  0.7090 -0.0576  2.0794
14794TIP3   OH265796   4.364   5.280  14.693 -0.4399  0.5286 -0.1637
14794TIP3    H165797   4.312   5.354  14.723 -0.3310  0.4842  0.1424
14794TIP3    H265798   4.358   5.283  14.598  0.0407  1.2707 -0.1778
14795TIP3   OH265799   6.467   5.041  16.945 -0.3776  0.2861  0.0512
14795TIP3    H165800   6.438   5.128  16.919 -0.0990  0.8426  1.4800
14795TIP3    H265801   6.426   5.027  17.031  0.9320 -0.2651  0.6192
14796TIP3   OH265802   0.197   5.424  14.073  0.1558 -0.2696  0.0965
14796TIP3    H165803   0.145   5.353  14.038 -2.1881  1.3812  0.0148
14796TIP3    H265804   0.201   5.407  14.167 -1.0839 -0.1261  0.1896
14797TIP3   OH265805   4.202   6.523  16.797  0.1285 -0.3493 -0.1011
14797TIP3    H165806   4.240   6.602  16.758  0.0300 -0.2195  0.0705
14797TIP3    H265807   4.133   6.498  16.735 -0.6325  0.3661  0.4385
14798TIP3   OH265808   3.633   4.980  13.657 -0.3411 -0.6219 -0.1900
14798TIP3    H165809   3.634   4.951  13.748 -2.3850  0.1536  0.1376
14798TIP3    H265810   3.639   5.076  13.663 -1.2502 -0.5124 -0.8048
14799TIP3   OH265811   0.559   4.093  14.367  0.7445  0.4479  1.1005
14799TIP3    H165812   0.576   4.004  14.398  0.0229 -0.5509 -1.1661
14799TIP3    H265813   0.540   4.143  14.447  0.3449 -1.5967  2.3675
14800TIP3   OH265814   1.148   0.419  12.488  0.5338 -0.9545 -0.3714
14800TIP3    H165815   1.147   0.454  12.399 -0.5181 -0.3505 -0.1376
14800TIP3    H265816   1.092   0.342  12.484 -1.9517  0.7210  0.3721
14801TIP3   OH265817   5.131   0.771  13.479  0.7816 -0.1713 -0.4966
14801TIP3    H165818   5.150   0.865  13.483  1.8316 -0.2413 -2.4685
14801TIP3    H265819   5.130   0.750  13.385 -3.0411 -1.4912 -0.3391
14802TIP3   OH265820   1.531   4.197  12.647  0.3661 -0.5150 -0.0866
14802TIP3    H165821   1.501   4.288  12.653 -0.3568 -0.8500  2.6063
14802TIP3    H265822   1.454   4.145  12.668  1.6831 -1.5570  2.5438
14803TIP3   OH265823   5.714   6.373   6.227  0.1786 -0.2640 -0.0907
14803TIP3    H165824   5.739   6.294   6.180  2.0310  0.0149  0.3529
14803TIP3    H265825   5.698   6.438   6.158 -0.2439 -0.6956 -0.4103
14804TIP3   OH265826   1.480   1.533  13.673 -0.5622 -0.1163  0.2949
14804TIP3    H165827   1.497   1.450  13.719 -1.3633  0.0196  0.8552
14804TIP3    H265828   1.480   1.509  13.581 -0.0242 -0.5964  0.4068
14805TIP3   OH265829   0.178   6.650   1.241 -0.1119 -0.2387  0.0594
14805TIP3    H165830   0.229   6.715   1.290 -0.4989 -0.7204  1.1506
14805TIP3    H265831   0.156   6.584   1.306 -2.1153 -0.0675 -0.3652
14806TIP3   OH265832   1.172   0.227  12.688 -0.0508  0.2424  0.0754
14806TIP3    H165833   1.151   0.312  12.651  0.8390  0.1521 -0.6544
14806TIP3    H265834   1.232   0.246  12.760  0.0914  0.2339 -0.0417
14807TIP3   OH265835   3.590   1.044  12.692  0.2999  0.2545 -0.2256
14807TIP3    H165836   3.602   0.991  12.613  0.7002 -0.3024  0.2118
14807TIP3    H265837   3.570   1.132  12.658 -0.8914 -0.2694 -0.9588
14808TIP3   OH265838   5.065   3.518  13.398  0.3622  0.1610  0.7866
14808TIP3    H165839   5.097   3.429  13.383 -0.4618 -0.2937  1.5627
14808TIP3    H265840   5.139   3.565  13.437  0.6825 -0.2992  0.7346
14809TIP3   OH265841   3.593   3.583  15.496  0.4968 -0.4202  0.0246
14809TIP3    H165842   3.513   3.579  15.549  1.4604  0.5362  1.6604
14809TIP3    H265843   3.664   3.568  15.559  1.9039  3.5586 -0.3231
14810TIP3   OH265844   0.935   5.492  10.810 -0.3990 -0.0783  0.0872
14810TIP3    H165845   1.010   5.531  10.855 -0.7562 -0.6660  1.2237
14810TIP3    H265846   0.888   5.567  10.774  0.2577  0.3590  0.1222
14811TIP3   OH265847   1.061   3.964  13.022 -0.3710  0.3315 -0.4716
14811TIP3    H165848   1.097   4.045  12.986 -1.5252 -0.3100 -3.3597
14811TIP3    H265849   0.994   3.938  12.959 -2.3956 -1.1339  2.0961
14812TIP3   OH265850   5.387   4.477  11.818 -0.2362 -0.4128 -0.6227
14812TIP3    H165851   5.343   4.402  11.858 -0.8240  0.6071  0.7279
14812TIP3    H265852   5.443   4.512  11.887 -0.0571  0.4566 -1.1880
14813TIP3   OH265853   5.883   1.432   4.017  0.3514 -0.0017  0.0961
14813TIP3    H165854   5.900   1.500   4.082 -1.1052 -1.2146  1.8458
14813TIP3    H265855   5.912   1.470   3.934  1.3520  1.9860  1.2884
14814TIP3   OH265856   0.881   3.122   1.017 -0.4232  0.4610 -0.6186
14814TIP3    H165857   0.933   3.077   1.083  0.7294  2.9965  0.3530
14814TIP3    H265858   0.793   3.085   1.027  0.5589 -1.9881 -0.4188
14815TIP3   OH265859   4.092   2.317   5.250  0.1545  0.4481  0.2959
14815TIP3    H165860   4.048   2.402   5.244 -1.4093 -0.4007 -1.1912
14815TIP3    H265861   4.043   2.261   5.191  1.6658 -1.2947  0.6157
14816TIP3   OH265862   5.141   2.250  12.913  0.1719 -0.1209 -0.3601
14816TIP3    H165863   5.127   2.256  12.818  0.4677  1.9971 -0.3073
14816TIP3    H265864   5.151   2.156  12.929  1.9360 -0.4247 -2.6882
14817TIP3   OH265865   0.902   0.361  10.775 -0.2087 -0.1130  0.1474
14817TIP3    H165866   0.949   0.333  10.696 -1.0157 -0.0733 -0.3565
14817TIP3    H265867   0.960   0.426  10.815  0.2321 -0.1622 -0.3915
14818TIP3   OH265868   5.719   4.381  15.991 -0.1083 -0.0017  0.1123
14818TIP3    H165869   5.681   4.463  15.961  0.2985  0.2604  0.2996
14818TIP3    H265870   5.787   4.361  15.927 -0.6330 -0.5268 -0.2863
14819TIP3   OH265871   4.627   4.226  12.239  1.2671  1.0083  0.1917
14819TIP3    H165872   4.600   4.143  12.199  0.4190  1.9211 -1.2519
14819TIP3    H265873   4.692   4.202  12.305 -0.1898 -0.9591  1.0156
14820TIP3   OH265874   6.361   0.759   2.458 -0.3171 -0.0804 -0.6237
14820TIP3    H165875   6.389   0.759   2.367  0.5057 -3.0163 -0.4668
14820TIP3    H265876   6.402   0.837   2.495  3.7835 -1.4781 -1.6222
14821TIP3   OH265877   3.031   0.920   2.119  0.0826 -0.6953 -0.1362
14821TIP3    H165878   2.973   0.995   2.102  0.1935 -0.8933 -1.5339
14821TIP3    H265879   3.031   0.911   2.214 -1.1679  0.1131 -0.0288
14822TIP3   OH265880   4.670   4.010  14.203 -0.2871 -0.2975 -0.3885
14822TIP3    H165881   4.682   4.078  14.137  1.4715 -0.8606 -0.6872
14822TIP3    H265882   4.734   3.943  14.180 -0.2638 -0.9092  1.3714
14823TIP3   OH265883   3.363   0.787   0.122  0.3087  0.0671 -0.7166
14823TIP3    H165884   3.423   0.800   0.195  1.0175  0.7002 -1.3996
14823TIP3    H265885   3.390   0.704   0.083  1.0106  0.5403 -1.2604
14824TIP3   OH265886   1.159   3.435  12.399 -0.4302 -0.2561  0.0941
14824TIP3    H165887   1.110   3.478  12.469 -0.0718  1.6152 -0.7297
14824TIP3    H265888   1.100   3.438  12.323  0.6479  1.4683 -0.7425
14825TIP3   OH265889   4.734   2.793   3.805 -0.3524 -0.0570 -0.7869
14825TIP3    H165890   4.671   2.722   3.791 -1.3595  0.5590  0.4308
14825TIP3    H265891   4.807   2.753   3.852 -1.3498 -0.1099  0.7609
14826TIP3   OH265892   6.574   0.177  12.249 -0.4772  0.2297  0.3933
14826TIP3    H165893   6.647   0.239  12.254  0.5824 -1.0412  1.6557
14826TIP3    H265894   6.534   0.179  12.336 -1.4167  0.2835 -0.0307
14827TIP3   OH265895   2.173   3.376   3.097 -0.4108 -0.0450  0.2813
14827TIP3    H165896   2.154   3.284   3.114  0.2935  0.0194  1.4591
14827TIP3    H265897   2.256   3.375   3.049 -0.9978 -0.0686 -0.7722
14828TIP3   OH265898   0.633   1.457   3.533  0.1122 -0.3559  0.1282
14828TIP3    H165899   0.567   1.395   3.503 -0.1390 -0.7394  1.4241
14828TIP3    H265900   0.628   1.529   3.470 -1.7355 -0.2443  0.3529
14829TIP3   OH265901   6.628   0.668  13.227 -0.1460 -0.2489  0.2357
14829TIP3    H165902   6.616   0.646  13.135 -0.8854 -1.2412  0.5560
14829TIP3    H265903   6.559   0.731  13.246  1.2548  1.5389 -0.3830
14830TIP3   OH265904   0.653   5.686   5.457  0.2410 -0.8582 -0.2705
14830TIP3    H165905   0.699   5.653   5.380  1.3038  0.2472 -0.1270
14830TIP3    H265906   0.722   5.714   5.517 -0.5778 -1.1609  0.8619
14831TIP3   OH265907   0.893   1.156   0.954 -0.2859  0.2859  0.6626
14831TIP3    H165908   0.971   1.118   0.914 -0.2301 -1.6229  2.4360
14831TIP3    H265909   0.820   1.122   0.903 -0.0726  0.2806  0.3608
14832TIP3   OH265910   6.385   6.412   1.584 -0.6090  0.3722  0.3667
14832TIP3    H165911   6.294   6.400   1.558 -0.2518 -2.0598 -0.0603
14832TIP3    H265912   6.394   6.506   1.599 -2.3646  1.1188 -2.5462
14833TIP3   OH265913   3.361   6.078  13.980 -0.4846 -0.0486 -0.4162
14833TIP3    H165914   3.371   5.983  13.970 -0.9271 -0.1921  0.4645
14833TIP3    H265915   3.423   6.115  13.916 -0.7028 -0.9191 -1.1529
14834TIP3   OH265916   2.687   1.647  11.486  0.0886  0.1746  0.1543
14834TIP3    H165917   2.694   1.731  11.442  1.0875 -0.6063 -1.2856
14834TIP3    H265918   2.622   1.598  11.435 -3.5562  1.2773  3.2208
14835TIP3   OH265919   0.956   5.314   0.364  0.0863  0.0999  0.0362
14835TIP3    H165920   0.981   5.288   0.276 -1.1719 -1.4104  0.0827
14835TIP3    H265921   1.006   5.256   0.421  0.9778  1.1402  0.3575
14836TIP3   OH265922   3.168   2.064   2.068  0.2606  0.0872 -0.1356
14836TIP3    H165923   3.101   2.100   2.010  0.7920 -0.7681 -1.3247
14836TIP3    H265924   3.208   1.993   2.017  0.6695 -0.7718  1.3312
14837TIP3   OH265925   6.177   0.855  16.784 -0.0158  0.2043  0.3921
14837TIP3    H165926   6.126   0.929  16.817  0.7008  1.5281 -1.3619
14837TIP3    H265927   6.172   0.862  16.689  2.5971 -0.2066  0.1663
14838TIP3   OH265928   3.734   6.546  11.465 -0.0567 -0.0955 -0.9367
14838TIP3    H165929   3.654   6.562  11.414 -1.0904 -0.8229  0.4130
14838TIP3    H265930   3.726   6.604  11.541  1.0879  0.3887 -1.1598
14839TIP3   OH265931   4.379   6.361  11.057  1.1908 -0.5727 -0.5612
14839TIP3    H165932   4.472   6.362  11.037  1.1863  1.3366 -0.6319
14839TIP3    H265933   4.340   6.423  10.995 -0.2072 -1.6303 -0.8082
14840TIP3   OH265934   2.150   1.634   5.506 -0.0219 -0.0788 -0.2723
14840TIP3    H165935   2.160   1.719   5.463 -0.7415 -0.3103 -0.8996
14840TIP3    H265936   2.227   1.628   5.563  0.6483  0.4861 -1.0853
14841TIP3   OH265937   3.497   4.623   1.230  0.2399 -0.3461  0.1207
14841TIP3    H165938   3.527   4.711   1.208 -2.9123  0.4844 -1.3968
14841TIP3    H265939   3.434   4.635   1.300 -2.7388 -0.7938 -2.2480
14842TIP3   OH265940   2.281   5.509   4.649  0.6605  0.1539  0.3216
14842TIP3    H165941   2.283   5.525   4.554 -0.1834 -1.8773 -0.1193
14842TIP3    H265942   2.187   5.510   4.670  0.8155  0.0241  1.0167
14843TIP3   OH265943   3.505   2.397   3.572  0.1808  0.2095 -0.1547
14843TIP3    H165944   3.509   2.335   3.499 -0.1577 -0.3287  0.2685
14843TIP3    H265945   3.416   2.432   3.568  0.2171  0.3058 -0.1026
14844TIP3   OH265946   1.571   1.228  12.228  0.7133 -0.3032  0.2137
14844TIP3    H165947   1.544   1.253  12.316  1.6109  0.3513  0.3150
14844TIP3    H265948   1.604   1.309  12.189  2.0089 -0.9572 -0.0873
14845TIP3   OH265949   3.981   6.018  12.559  0.2373 -0.0463  0.2973
14845TIP3    H165950   4.030   5.973  12.626  0.1062 -1.5264 -0.5664
14845TIP3    H265951   4.007   5.976  12.477 -0.5930  0.8159 -0.4374
14846TIP3   OH265952   3.467   4.473  16.145 -0.2979 -0.3106 -0.2888
14846TIP3    H165953   3.483   4.380  16.158  0.1953 -0.0066  1.4290
14846TIP3    H265954   3.511   4.517  16.217  0.7783  1.3966 -1.8697
14847TIP3   OH265955   5.342   2.969  16.746  0.1993 -0.0876  0.2348
14847TIP3    H165956   5.299   2.897  16.699  1.9693 -0.5744 -0.7583
14847TIP3    H265957   5.398   2.926  16.811 -0.6935  0.5198  1.4402
14848TIP3   OH265958   1.684   0.420   5.454 -0.2952  0.1205 -0.2229
14848TIP3    H165959   1.605   0.368   5.437  0.4322 -0.3445 -2.6316
14848TIP3    H265960   1.675   0.496   5.397  1.3951 -0.4381 -1.3204
14849TIP3   OH265961   1.582   0.816  16.783  0.4538 -0.6006  0.6102
14849TIP3    H165962   1.611   0.744  16.838  1.6383 -1.7172 -1.3351
14849TIP3    H265963   1.628   0.893  16.817  2.5924 -1.5957  0.1535
14850TIP3   OH265964   4.433   0.998   0.619 -1.0133  0.3940 -0.2179
14850TIP3    H165965   4.468   0.997   0.530  0.1919  1.3952  0.2190
14850TIP3    H265966   4.358   0.939   0.616 -1.6580  1.2643 -2.1567
14851TIP3   OH265967   3.737   3.167   0.529  0.2220 -0.0187 -0.5691
14851TIP3    H165968   3.763   3.253   0.496 -0.0493  0.4724  0.4361
14851TIP3    H265969   3.808   3.142   0.588  0.6724 -0.8538 -1.4378
14852TIP3   OH265970   4.675   6.030  17.084 -0.3214 -0.3121  0.6276
14852TIP3    H165971   4.727   6.101  17.045 -1.1320  0.0305  0.1506
14852TIP3    H265972   4.692   6.037  17.178  1.5633 -1.0659  0.3816
14853TIP3   OH265973   6.691   3.263   4.355  0.3750  0.1938 -0.1189
14853TIP3    H165974   6.679   3.267   4.450 -1.7102 -1.9931 -0.1942
14853TIP3    H265975   6.785   3.271   4.342  1.1233 -2.6833  2.4306
14854TIP3   OH265976   0.396   2.801  16.814 -0.1668  0.9508 -0.2378
14854TIP3    H165977   0.308   2.799  16.853 -0.6058  3.7250 -0.8392
14854TIP3    H265978   0.382   2.779  16.722  0.4293 -2.4860  0.3640
14855TIP3   OH265979   2.275   4.846   5.139  0.2526 -0.5177  0.1110
14855TIP3    H165980   2.348   4.905   5.122 -0.0846  0.1502  0.9019
14855TIP3    H265981   2.200   4.888   5.096  0.1297 -0.6568  0.1889
14856TIP3   OH265982   4.389   3.779   1.868 -0.1121  0.1187  0.0002
14856TIP3    H165983   4.419   3.717   1.935 -0.3837  0.7388  0.7170
14856TIP3    H265984   4.395   3.864   1.911  0.4824  0.6272 -1.0515
14857TIP3   OH265985   0.297   6.381  12.472 -0.1383  0.7145 -0.1994
14857TIP3    H165986   0.266   6.297  12.438  0.3781  0.9912 -1.4085
14857TIP3    H265987   0.218   6.427  12.500 -0.3780 -0.3715  0.9846
14858TIP3   OH265988   2.810   6.380   2.252 -0.3801 -0.2953  0.5458
14858TIP3    H165989   2.731   6.421   2.216 -0.7171 -1.5173 -0.1362
14858TIP3    H265990   2.861   6.454   2.286  0.0440  0.9798 -2.5783
14859TIP3   OH265991   1.990   3.085   4.494 -0.2194  0.0155 -0.1831
14859TIP3    H165992   1.947   3.060   4.576 -0.1498 -1.4983 -0.5723
14859TIP3    H265993   1.932   3.150   4.455 -1.2007 -0.5967  0.2095
14860TIP3   OH265994   4.358   0.780   0.178  0.0513 -0.2860 -0.1495
14860TIP3    H165995   4.391   0.722   0.246 -0.2970  0.4972  0.7169
14860TIP3    H265996   4.292   0.834   0.223  0.6767  1.0722 -0.7909
14861TIP3   OH265997   0.563   0.936   2.929  0.3576  0.4514 -0.0207
14861TIP3    H165998   0.589   0.910   2.841 -0.8397 -2.9351  0.4780
14861TIP3    H265999   0.476   0.974   2.919  0.3184  0.2823 -0.3333
14862TIP3   OH266000   1.976   4.334   3.143 -0.7206 -0.1424 -0.5324
14862TIP3    H166001   1.904   4.271   3.138  0.4112 -1.6684  1.0521
14862TIP3    H266002   2.041   4.300   3.082 -0.4929  0.0063 -0.3727
14863TIP3   OH266003   0.591   1.107  15.865 -0.2890  0.0822 -0.4850
14863TIP3    H166004   0.530   1.155  15.921  1.4591  0.5835  1.1186
14863TIP3    H266005   0.637   1.176  15.816 -0.0928 -0.1860 -0.6818
14864TIP3   OH266006   5.800   3.300   1.381 -0.2815  0.3311  0.3601
14864TIP3    H166007   5.767   3.388   1.401 -1.1809  0.3216 -0.9124
14864TIP3    H266008   5.769   3.246   1.454  0.4172  1.0764  1.2372
14865TIP3   OH266009   5.699   2.709  12.819  0.0819 -0.9247  0.2711
14865TIP3    H166010   5.676   2.694  12.727  0.0528 -2.5282  0.5085
14865TIP3    H266011   5.651   2.788  12.843 -1.8365 -1.7795 -0.4564
14866TIP3   OH266012   1.521   4.229  12.280 -0.3387 -0.0389  0.0313
14866TIP3    H166013   1.513   4.164  12.210 -0.1611  0.4166 -0.4138
14866TIP3    H266014   1.540   4.177  12.358 -2.1267 -0.6926  0.0724
14867TIP3   OH266015   2.881   5.333   3.304 -0.3595  0.1970  0.4914
14867TIP3    H166016   2.885   5.414   3.355  0.2651  1.1701 -1.0341
14867TIP3    H266017   2.811   5.282   3.345 -3.2038  2.9485 -0.5424
14868TIP3   OH266018   5.446   2.816  15.200 -0.1917  0.1508 -0.1259
14868TIP3    H166019   5.467   2.895  15.248  0.5717  0.0241 -0.2365
14868TIP3    H266020   5.529   2.788  15.161 -0.8580  0.5504 -1.9715
14869TIP3   OH266021   4.057   1.124   3.625  0.3658 -0.4377 -0.2599
14869TIP3    H166022   3.979   1.097   3.577 -0.9449  0.3949  1.2803
14869TIP3    H266023   4.083   1.207   3.586 -0.0307 -0.3066 -0.2473
14870TIP3   OH266024   0.552   6.731   2.519  0.4113 -0.1300  0.0173
14870TIP3    H166025   0.536   6.640   2.544 -0.0417 -0.3630 -1.0497
14870TIP3    H266026   0.646   6.744   2.534  0.2802 -0.4386  1.1723
14871TIP3   OH266027   4.759   5.173  16.546 -0.2658  0.0991 -0.5750
14871TIP3    H166028   4.691   5.199  16.609  0.5943 -1.5356  1.1539
14871TIP3    H266029   4.712   5.123  16.480 -0.9141 -0.1397  0.0438
14872TIP3   OH266030   2.337   1.680   0.828  0.0470  0.1731  0.6871
14872TIP3    H166031   2.350   1.767   0.865  1.2678  0.4846 -0.3985
14872TIP3    H266032   2.379   1.684   0.742 -0.7010 -1.2085  0.2343
14873TIP3   OH266033   5.617   4.304   0.851  0.1874 -0.0196 -0.8225
14873TIP3    H166034   5.615   4.281   0.944  0.9757 -2.3760 -1.3377
14873TIP3    H266035   5.536   4.268   0.816  1.0841 -1.4477 -1.5029
14874TIP3   OH266036   5.986   4.188   2.089 -0.0293  0.2161 -0.3196
14874TIP3    H166037   5.931   4.219   2.016 -0.4638  0.6552  0.1913
14874TIP3    H266038   6.032   4.112   2.052 -0.7628  0.0079 -0.8484
14875TIP3   OH266039   1.119   0.955  12.239  0.3016 -0.4253  0.5318
14875TIP3    H166040   1.112   0.943  12.144 -0.3952  0.2799  0.4810
14875TIP3    H266041   1.029   0.948  12.271  0.3262  0.7533  0.9500
14876TIP3   OH266042   6.617   0.898   6.076 -0.9142 -0.6494  0.0525
14876TIP3    H166043   6.626   0.967   6.010  0.8338 -1.1972 -0.3206
14876TIP3    H266044   6.524   0.874   6.073 -1.3689  1.0416 -0.4399
14877TIP3   OH266045   0.418   0.314   3.026  0.2380  0.6163  0.3700
14877TIP3    H166046   0.447   0.251   2.960 -0.5259  0.2211  0.3913
14877TIP3    H266047   0.452   0.398   2.996  3.6649 -0.1285  1.7857
14878TIP3   OH266048   0.436   2.401  16.665 -0.1191  0.0554 -0.2385
14878TIP3    H166049   0.511   2.448  16.701 -0.4187  1.1554 -0.9737
14878TIP3    H266050   0.450   2.401  16.571  0.9201 -3.2454 -0.2057
14879TIP3   OH266051   6.077   3.365  11.714 -0.4099 -0.0415  0.4168
14879TIP3    H166052   6.001   3.339  11.767 -1.2669  0.7034 -0.4107
14879TIP3    H266053   6.058   3.330  11.627 -0.5703  1.4815 -0.1824
14880TIP3   OH266054   3.467   5.697   6.492 -0.0071  0.4250 -0.2985
14880TIP3    H166055   3.450   5.777   6.442  0.3440  0.5654 -0.1970
14880TIP3    H266056   3.412   5.705   6.569 -0.9872 -0.0601 -0.9330
14881TIP3   OH266057   5.173   5.523   0.537  0.3652 -1.0075 -0.2517
14881TIP3    H166058   5.116   5.584   0.490  0.5063 -0.0818  0.7491
14881TIP3    H266059   5.257   5.529   0.491  0.1748 -0.9917 -0.5994
14882TIP3   OH266060   1.922   3.248  13.600 -0.5871  0.3759  0.0777
14882TIP3    H166061   2.013   3.273  13.617 -0.7527  0.6463  0.5972
14882TIP3    H266062   1.881   3.327  13.568 -1.1781  0.8975  1.9817
14883TIP3   OH266063   0.035   0.186  14.254 -0.7561 -0.2678  0.0950
14883TIP3    H166064   0.047   0.174  14.348 -2.1913  0.1065  0.3506
14883TIP3    H266065  -0.043   0.135  14.232 -0.7220  0.0384 -0.7962
14884TIP3   OH266066   0.861   1.497   5.718 -0.8619  0.0968 -0.0946
14884TIP3    H166067   0.949   1.514   5.685 -1.3564 -1.8141 -2.6279
14884TIP3    H266068   0.854   1.554   5.795  2.9195 -0.4055  0.8543
14885TIP3   OH266069   3.967   2.524  14.003 -0.1154 -0.3555 -0.6001
14885TIP3    H166070   3.964   2.444  13.951 -1.3850 -0.5917 -0.1954
14885TIP3    H266071   3.915   2.504  14.081  1.4155  0.1071  0.6098
14886TIP3   OH266072   3.791   5.197  14.111 -0.0779  1.1202 -0.2065
14886TIP3    H166073   3.700   5.228  14.112 -0.1850  1.0692 -2.7910
14886TIP3    H266074   3.809   5.177  14.019  2.3052  0.3426  0.3609
14887TIP3   OH266075   4.428   3.820   3.816  0.6053 -0.0456  0.5133
14887TIP3    H166076   4.428   3.800   3.910  2.2447  0.6560  0.6899
14887TIP3    H266077   4.485   3.896   3.808 -0.5001  0.6799 -0.9142
14888TIP3   OH266078   4.076   1.582  14.514  0.1269 -0.3916 -0.6715
14888TIP3    H166079   4.129   1.559  14.591 -0.8252 -0.8422 -0.1225
14888TIP3    H266080   4.139   1.586  14.442  0.6210 -3.4736 -0.5575
14889TIP3   OH266081   0.366   0.653  13.398 -0.5958  0.4267 -0.3482
14889TIP3    H166082   0.406   0.689  13.319  3.4141  0.7922  1.5936
14889TIP3    H266083   0.408   0.568  13.410  2.0755  1.9973  3.2844
14890TIP3   OH266084   2.650   1.047   4.325  0.0755 -0.1237  0.4431
14890TIP3    H166085   2.602   0.972   4.290 -0.0299 -0.0679  0.4661
14890TIP3    H266086   2.686   1.090   4.247  0.7930 -0.6351  0.4850
14891TIP3   OH266087   5.843   2.225  13.984  0.6632  0.4485 -0.0718
14891TIP3    H166088   5.880   2.217  13.896 -1.1747 -0.7675 -0.7920
14891TIP3    H266089   5.850   2.137  14.021  2.6870  1.2299  1.6054
14892TIP3   OH266090   3.727   5.449  14.533 -0.1805 -0.1536 -0.3675
14892TIP3    H166091   3.660   5.515  14.516 -0.3788  0.3808  2.1565
14892TIP3    H266092   3.693   5.369  14.494 -1.9184  0.3006  0.1410
14893TIP3   OH266093   1.399   1.319  12.989  0.4046  0.4591  0.6621
14893TIP3    H166094   1.366   1.401  12.951  1.9793  0.8549  0.0603
14893TIP3    H266095   1.363   1.251  12.932  0.1387  0.8269  0.3800
14894TIP3   OH266096   4.714   3.713  11.523  0.6213  0.1249  0.4502
14894TIP3    H166097   4.623   3.725  11.495  0.4382 -1.5103  0.2488
14894TIP3    H266098   4.727   3.781  11.589 -0.7836  0.3312  0.5604
14895TIP3   OH266099   2.219   0.593   1.349 -0.6992 -0.2892 -0.0671
14895TIP3    H166100   2.187   0.530   1.284 -0.3315  0.6682 -1.2228
14895TIP3    H266101   2.311   0.569   1.362 -0.8304 -0.6128  0.2552
14896TIP3   OH266102   4.553   1.836  13.684  0.7421 -0.4779  0.2161
14896TIP3    H166103   4.480   1.815  13.626  0.0403 -1.4116  1.3822
14896TIP3    H266104   4.603   1.902  13.637 -0.4636 -0.3310 -0.9201
14897TIP3   OH266105   6.270   4.555   4.942 -0.5920 -0.4848  0.3365
14897TIP3    H166106   6.362   4.582   4.933 -0.7899  0.1665  0.1896
14897TIP3    H266107   6.268   4.505   5.024 -0.3102  0.4496  0.9427
14898TIP3   OH266108   5.573   2.312  16.692 -0.2246 -0.2611 -0.0646
14898TIP3    H166109   5.591   2.382  16.756 -0.0307  1.1118 -1.5635
14898TIP3    H266110   5.650   2.255  16.696 -0.1031 -0.0516  0.7297
14899TIP3   OH266111   2.085   6.645  11.276 -0.2104 -0.0960  0.0893
14899TIP3    H166112   2.005   6.633  11.224 -0.2509  1.1579 -0.1656
14899TIP3    H266113   2.138   6.706  11.225  0.2651  0.2326  0.9541
14900TIP3   OH266114   5.615   4.084   0.562 -0.3761 -0.3887  0.5488
14900TIP3    H166115   5.541   4.140   0.584 -1.5118 -1.8326  0.5048
14900TIP3    H266116   5.622   4.024   0.636 -0.4914 -1.5049 -0.3304
14901TIP3   OH266117   0.541   6.699  17.187  0.2739  0.1343  0.4801
14901TIP3    H166118   0.607   6.745  17.135  0.0378 -2.6912 -2.6969
14901TIP3    H266119   0.533   6.613  17.145 -3.7054 -0.5620  2.1757
14902TIP3   OH266120   1.566   5.832  13.093 -0.3814  0.1201 -0.0739
14902TIP3    H166121   1.584   5.812  13.001  1.3297  0.4382  0.1546
14902TIP3    H266122   1.573   5.747  13.137 -2.2889 -0.2275 -0.3420
14903TIP3   OH266123   0.762   2.628   3.663  0.1654 -0.0792  0.0158
14903TIP3    H166124   0.671   2.658   3.673 -0.2320 -1.6910  1.7094
14903TIP3    H266125   0.772   2.614   3.569 -2.1849 -2.2136 -0.0152
14904TIP3   OH266126   5.146   4.509  14.582  0.3627 -0.0237  0.4690
14904TIP3    H166127   5.120   4.459  14.505  0.3745  0.5841  0.0674
14904TIP3    H266128   5.094   4.589  14.578  0.9967  0.4000  0.6257
14905TIP3   OH266129   2.469   6.137  12.996  0.3809 -0.0423  0.1219
14905TIP3    H166130   2.545   6.089  12.966  1.1356  0.5655  1.0082
14905TIP3    H266131   2.425   6.167  12.916  1.0063 -0.4941 -0.3899
14906TIP3   OH266132   4.509   4.980   3.380  0.2011 -0.7076  0.4050
14906TIP3    H166133   4.421   4.949   3.399 -0.0726  0.5263  1.2344
14906TIP3    H266134   4.534   4.933   3.300 -2.9836  2.1169 -2.5871
14907TIP3   OH266135   3.947   5.352  16.298  0.0192  0.3709  0.4427
14907TIP3    H166136   4.038   5.344  16.325 -0.0175  1.5778  0.9893
14907TIP3    H266137   3.940   5.440  16.261 -0.7431  0.0025 -0.3207
14908TIP3   OH266138   4.680   6.186   0.456 -0.5261 -0.7515 -0.2865
14908TIP3    H166139   4.644   6.270   0.429  0.6516  0.1260  0.7297
14908TIP3    H266140   4.643   6.171   0.543 -0.0726 -0.8592 -0.1100
14909TIP3   OH266141   2.618   3.003   3.784  0.3919  0.2930 -0.4345
14909TIP3    H166142   2.542   3.039   3.830  0.0119 -0.8983 -0.0822
14909TIP3    H266143   2.668   3.079   3.756 -0.1080  1.0772  0.7255
14910TIP3   OH266144   6.251   0.612  13.090  0.5810 -0.4401 -0.8060
14910TIP3    H166145   6.236   0.556  13.166 -0.4792 -1.3953 -1.6885
14910TIP3    H266146   6.168   0.658  13.078  0.2896 -1.2600 -2.1274
14911TIP3   OH266147   0.530   0.673   1.432  0.5023 -0.8890 -0.2081
14911TIP3    H166148   0.564   0.630   1.511  0.7732 -0.3396 -0.0243
14911TIP3    H266149   0.437   0.684   1.450  0.3986 -1.5223 -0.3158
14912TIP3   OH266150   2.162   3.619  14.621 -0.3113  0.6428 -0.1427
14912TIP3    H166151   2.176   3.596  14.529 -1.6128  2.4830 -0.8527
14912TIP3    H266152   2.248   3.608  14.662 -0.0886 -1.9780 -1.1172
14913TIP3   OH266153   2.302   1.348  12.953  0.2835 -0.8712  0.4179
14913TIP3    H166154   2.354   1.368  13.031 -1.1956 -2.3067  1.8252
14913TIP3    H266155   2.316   1.255  12.938  0.0739 -0.7358 -0.7182
14914TIP3   OH266156   2.415   4.648   0.413  0.2152 -0.0242 -0.4667
14914TIP3    H166157   2.484   4.583   0.429 -0.8486 -1.5805 -1.9100
14914TIP3    H266158   2.429   4.676   0.323 -2.1242 -1.8787 -1.5279
14915TIP3   OH266159   6.383   0.672  12.364  0.4038  0.4777  0.1705
14915TIP3    H166160   6.460   0.678  12.307 -0.1422 -0.5718 -0.7040
14915TIP3    H266161   6.419   0.672  12.453  1.4547 -0.5288 -0.2335
14916TIP3   OH266162   3.286   5.775  13.912 -0.1207  0.3918 -0.7088
14916TIP3    H166163   3.289   5.758  13.818 -1.4932  1.3826 -0.9669
14916TIP3    H266164   3.197   5.807  13.928  0.4425  1.3615  0.7217
14917TIP3   OH266165   6.730   2.901   0.832 -0.2014  0.4852 -0.4257
14917TIP3    H166166   6.780   2.982   0.832  0.5649  0.0180 -1.2226
14917TIP3    H266167   6.639   2.929   0.847  0.1655  1.4035  0.1521
14918TIP3   OH266168   1.839   2.509  16.167 -0.2073  0.3159 -0.0861
14918TIP3    H166169   1.841   2.604  16.151 -1.0872  0.1554 -1.1836
14918TIP3    H266170   1.759   2.495  16.217  0.2928  0.2307  0.7115
14919TIP3   OH266171   2.998   1.094  13.130 -0.0634  0.1284 -0.0795
14919TIP3    H166172   3.058   1.166  13.152 -0.2588  0.7724 -1.5554
14919TIP3    H266173   3.053   1.030  13.085 -0.4541  0.7232 -1.4411
14920TIP3   OH266174   2.572   4.568  12.336  0.1114 -0.1588  0.1643
14920TIP3    H166175   2.656   4.614  12.343  1.3304 -2.3212  0.8901
14920TIP3    H266176   2.588   4.500  12.270 -0.7724 -1.1749  0.9655
14921TIP3   OH266177   5.341   0.792   4.436 -0.1618 -0.1112 -0.2873
14921TIP3    H166178   5.275   0.766   4.372 -0.8285  2.0874 -0.5876
14921TIP3    H266179   5.414   0.822   4.383 -0.7301  1.7512 -0.0743
14922TIP3   OH266180   5.544   0.404   1.383 -0.0599  0.0587  0.1248
14922TIP3    H166181   5.516   0.483   1.337  2.7380  1.9598  1.4354
14922TIP3    H266182   5.625   0.377   1.339 -0.5777 -1.7333  0.1639
14923TIP3   OH266183   3.577   0.913  14.882  0.7433 -0.3048 -0.2075
14923TIP3    H166184   3.661   0.868  14.890 -0.3413 -2.5114 -0.4892
14923TIP3    H266185   3.600   1.006  14.878  3.0974 -0.7929  0.4660
14924TIP3   OH266186   5.881   2.166   5.321  0.8147 -0.5303  0.0926
14924TIP3    H166187   5.919   2.112   5.390  0.3197 -0.7673  0.1861
14924TIP3    H266188   5.821   2.107   5.275  2.2126 -0.8067 -1.4928
14925TIP3   OH266189   1.440   4.406  15.669  0.0218  0.1494  0.2648
14925TIP3    H166190   1.484   4.491  15.665 -0.6185  0.4467 -2.3617
14925TIP3    H266191   1.505   4.344  15.637 -0.2223 -0.0058  0.0719
14926TIP3   OH266192   4.442   2.899  14.225 -0.3531 -0.1673 -0.4020
14926TIP3    H166193   4.413   2.989  14.240 -0.5867 -0.0831 -1.2957
14926TIP3    H266194   4.501   2.905  14.150  1.0600 -0.5135  0.6405
14927TIP3   OH266195   6.200   5.361  11.835 -0.1393  0.0659  0.0788
14927TIP3    H166196   6.252   5.281  11.825  0.8444  0.8317 -1.3254
14927TIP3    H266197   6.173   5.382  11.746 -1.1106  0.8302  0.5444
14928TIP3   OH266198   0.621   4.774   2.040 -0.6050 -0.0385  0.2166
14928TIP3    H166199   0.558   4.836   2.077 -0.8662 -1.0203  1.4818
14928TIP3    H266200   0.651   4.723   2.115  0.9933 -0.2274 -0.5166
14929TIP3   OH266201   2.361   6.281   4.212 -0.1685  0.0771 -0.9287
14929TIP3    H166202   2.354   6.210   4.148  0.0378 -1.1929  0.4219
14929TIP3    H266203   2.307   6.253   4.286  0.2854  1.1213 -0.1746
14930TIP3   OH266204   2.065   1.904  12.487 -0.2725  0.5736  0.2483
14930TIP3    H166205   2.030   1.815  12.489  0.5260  0.1569 -1.9977
14930TIP3    H266206   1.990   1.958  12.463 -0.5126  0.3581  0.5081
14931TIP3   OH266207   3.393   1.993  14.076  0.2024 -0.3762 -0.0177
14931TIP3    H166208   3.483   1.964  14.061  0.1385  0.0571 -1.3615
14931TIP3    H266209   3.402   2.078  14.117  0.4194 -0.1964 -0.4285
14932TIP3   OH266210   4.045   4.862  13.447  0.1369  0.2998 -0.3020
14932TIP3    H166211   4.015   4.952  13.456 -2.0743 -0.3142 -0.9230
14932TIP3    H266212   4.035   4.824  13.535  1.0396  0.6224 -0.0478
14933TIP3   OH266213   4.124   4.979  11.756 -0.0526 -0.0861 -0.5647
14933TIP3    H166214   4.203   4.950  11.802 -1.1275 -2.0412  0.1808
14933TIP3    H266215   4.056   4.980  11.824 -1.0312 -0.1050 -1.5153
14934TIP3   OH266216   3.718   5.020  11.277  0.0539 -0.0981 -0.8204
14934TIP3    H166217   3.652   4.951  11.281 -0.8347  0.7905  0.2094
14934TIP3    H266218   3.780   4.990  11.210 -0.9450 -1.3310 -1.2206
14935TIP3   OH266219   4.912   6.588   0.869 -0.0564 -0.3578  0.0153
14935TIP3    H166220   4.892   6.626   0.954 -0.3293 -0.4529 -0.0065
14935TIP3    H266221   4.949   6.661   0.818 -0.6859 -0.0872 -0.0676
14936TIP3   OH266222   0.289   0.860   4.585 -0.1224 -0.0504  0.0585
14936TIP3    H166223   0.349   0.934   4.595  0.0874 -0.2171  0.0524
14936TIP3    H266224   0.269   0.833   4.675  1.9650 -1.7100  0.1358
14937TIP3   OH266225   3.066   1.227  14.112 -0.7002 -0.6833  0.0509
14937TIP3    H166226   2.978   1.237  14.148 -0.1203  0.7749  1.1860
14937TIP3    H266227   3.106   1.314  14.123  0.4224 -0.9348 -1.7040
14938TIP3   OH266228   5.439   6.345   4.303  0.0954 -0.0988  0.4362
14938TIP3    H166229   5.512   6.384   4.351  1.1494 -2.6897  1.0811
14938TIP3    H266230   5.422   6.262   4.347 -0.6810 -1.3510 -2.0408
14939TIP3   OH266231   2.762   0.088   2.344  1.0921  0.4898  0.6198
14939TIP3    H166232   2.681   0.050   2.309  1.9855 -0.8171 -0.1446
14939TIP3    H266233   2.770   0.053   2.432  0.7111  0.7969  0.7748
14940TIP3   OH266234   1.685   0.347   2.869 -0.4920  0.2056 -0.4378
14940TIP3    H166235   1.767   0.300   2.888 -1.6152 -1.9725 -0.5836
14940TIP3    H266236   1.645   0.360   2.955 -0.7537 -0.2746 -0.4801
14941TIP3   OH266237   5.374   4.068  16.622 -0.4393 -0.2837  0.5286
14941TIP3    H166238   5.448   4.052  16.680 -0.0289  2.0908  0.7489
14941TIP3    H266239   5.357   3.983  16.581  3.1178 -0.7444 -0.3555
14942TIP3   OH266240   1.410   0.126  14.274 -0.0518  0.0178 -0.1405
14942TIP3    H166241   1.469   0.197  14.249 -0.2129  0.1168 -0.2383
14942TIP3    H266242   1.406   0.132  14.370 -1.2261  1.0758 -0.2413
14943TIP3   OH266243   4.956   4.921  16.083 -0.3415 -0.3137  0.3997
14943TIP3    H166244   5.029   4.886  16.032 -0.8169 -0.7009 -0.0259
14943TIP3    H266245   4.981   4.906  16.174  0.2513 -0.1493  0.2690
14944TIP3   OH266246   1.350   4.024  16.769  0.7310  0.0325  0.0860
14944TIP3    H166247   1.430   3.972  16.766  2.3023  2.0864  2.4119
14944TIP3    H266248   1.373   4.107  16.727 -0.5985  0.1985 -0.3605
14945TIP3   OH266249   3.959   4.401   3.292  0.8413  0.0829  0.1843
14945TIP3    H166250   3.999   4.395   3.379  0.8352  0.8824  0.2532
14945TIP3    H266251   3.985   4.320   3.248  1.3669 -0.0453  0.7130
14946TIP3   OH266252   5.434   0.289   3.621 -0.5903  0.0755  0.2595
14946TIP3    H166253   5.496   0.329   3.560 -1.2199  0.5526 -0.0811
14946TIP3    H266254   5.354   0.342   3.612 -1.5983 -1.5274 -0.5375
14947TIP3   OH266255   3.063   5.911   6.025 -0.1968 -0.2515  0.2429
14947TIP3    H166256   3.091   5.827   5.989  2.2153  0.5958 -0.0482
14947TIP3    H266257   2.975   5.895   6.058 -0.6246 -2.3283 -1.6882
14948TIP3   OH266258   0.413   1.250  16.014  0.4447 -0.0807  0.0325
14948TIP3    H166259   0.365   1.298  16.082 -0.0167 -1.1872  0.5192
14948TIP3    H266260   0.393   1.158  16.031  3.7894 -0.7491  1.0806
14949TIP3   OH266261   6.601   1.377  12.992  0.4348  0.3183  0.3247
14949TIP3    H166262   6.684   1.381  13.040  0.3002  1.6069  0.4908
14949TIP3    H266263   6.562   1.463  13.005 -1.9429 -0.8908  2.0303
14950TIP3   OH266264   4.599   3.354  11.226  0.1033  0.1477 -0.7699
14950TIP3    H166265   4.621   3.316  11.311 -1.3778  0.3501 -0.2699
14950TIP3    H266266   4.625   3.446  11.234 -0.2204  0.2130 -0.4651
14951TIP3   OH266267   6.187   3.800   2.877  0.1074  0.5562  0.2627
14951TIP3    H166268   6.229   3.809   2.962  1.3756  0.7346 -0.3643
14951TIP3    H266269   6.104   3.847   2.886  0.0005  0.1576  1.5375
14952TIP3   OH266270   6.466   1.762  15.571  0.2166  0.1435 -0.3638
14952TIP3    H166271   6.538   1.783  15.631 -1.2170 -0.3250  1.6067
14952TIP3    H266272   6.468   1.667  15.564 -1.0471 -0.0112  0.8816
14953TIP3   OH266273   3.779   0.039   1.267  0.3244 -0.1290 -0.5048
14953TIP3    H166274   3.706   0.073   1.216  0.4253  0.5337 -0.2198
14953TIP3    H266275   3.759   0.065   1.357  0.7925 -0.1485 -0.3927
14954TIP3   OH266276   3.025   1.331   1.966  0.0385 -0.2108  0.4517
14954TIP3    H166277   2.949   1.360   1.916  0.2618  0.0232  0.2420
14954TIP3    H266278   2.997   1.251   2.009 -0.4419  0.0767  0.6718
14955TIP3   OH266279   4.271   2.805   0.916 -0.0232 -0.3370 -0.0384
14955TIP3    H166280   4.249   2.822   0.824  1.0400 -2.2555 -0.6896
14955TIP3    H266281   4.211   2.862   0.965 -0.7922  0.5471 -1.8906
14956TIP3   OH266282   5.339   1.889   1.126  0.2279 -0.3381 -0.2035
14956TIP3    H166283   5.416   1.922   1.080  0.0999 -0.3994 -0.4635
14956TIP3    H266284   5.361   1.898   1.219  0.7975 -0.9408 -0.2718
14957TIP3   OH266285   4.087   4.283  15.798  0.5657  0.0826 -0.0362
14957TIP3    H166286   4.066   4.195  15.768  0.4210  0.5520 -1.3489
14957TIP3    H266287   4.082   4.277  15.894  1.0236 -1.4382 -0.0850
14958TIP3   OH266288   2.098   2.517   3.455  0.0635  0.2986 -0.4770
14958TIP3    H166289   2.144   2.500   3.373 -0.4675 -1.9499 -0.3574
14958TIP3    H266290   2.136   2.455   3.517  0.0302  1.5471  0.8550
14959TIP3   OH266291   5.167   0.311   3.264 -0.1597 -0.1692 -0.0690
14959TIP3    H166292   5.245   0.258   3.249 -0.4876 -0.9892  0.9977
14959TIP3    H266293   5.144   0.345   3.177  1.3724  0.1099 -0.3925
14960TIP3   OH266294   6.097   1.908  15.144  0.1419  0.2066  0.5088
14960TIP3    H166295   6.087   1.849  15.069  0.4460 -1.4403  1.7063
14960TIP3    H266296   6.016   1.959  15.145  0.6901  1.2447 -1.6986
14961TIP3   OH266297   5.522   0.829   5.628  0.3388  0.2935 -0.4055
14961TIP3    H166298   5.617   0.829   5.614  0.3342 -0.8141 -0.5471
14961TIP3    H266299   5.511   0.841   5.722  0.8460 -4.1445  0.4304
14962TIP3   OH266300   4.490   4.792   2.409  0.5550  0.0788  0.1187
14962TIP3    H166301   4.434   4.859   2.369 -0.5260  0.1477  1.6780
14962TIP3    H266302   4.576   4.807   2.369  0.6741  3.2219  1.2312
14963TIP3   OH266303   3.674   1.418  14.851 -0.7471  0.3715  0.1282
14963TIP3    H166304   3.696   1.452  14.764 -0.6213 -0.3774 -0.1367
14963TIP3    H266305   3.629   1.491  14.894 -1.8679  0.3869 -0.9837
14964TIP3   OH266306   0.762   2.912   5.310  0.2416 -0.2791  0.7424
14964TIP3    H166307   0.807   2.838   5.269  0.5488  0.9951 -1.4159
14964TIP3    H266308   0.822   2.944   5.377  1.4122 -0.2234 -0.2974
14965TIP3   OH266309   5.165   1.148  11.426 -0.0856  0.1289  0.6308
14965TIP3    H166310   5.154   1.144  11.331  0.2829  0.1498  0.5860
14965TIP3    H266311   5.076   1.156  11.460 -0.3340 -1.2458  0.3666
14966TIP3   OH266312   5.175   0.622   5.133 -0.1678  0.4879 -0.1962
14966TIP3    H166313   5.121   0.700   5.117 -2.1878 -0.6503  0.5973
14966TIP3    H266314   5.222   0.641   5.214  1.2373  1.7848 -1.2741
14967TIP3   OH266315   4.600   5.691   1.441 -0.8492 -0.4354 -0.0553
14967TIP3    H166316   4.613   5.602   1.408  0.8165 -0.0912 -0.4411
14967TIP3    H266317   4.677   5.707   1.495 -1.6665  0.4058  0.9037
14968TIP3   OH266318   6.426   4.059   3.748 -0.1530 -0.3803 -0.1721
14968TIP3    H166319   6.458   4.145   3.774 -0.9367  0.0219 -0.4949
14968TIP3    H266320   6.439   4.056   3.653  0.9488 -1.0896 -0.0140
14969TIP3   OH266321   0.927   0.384   6.771 -0.1734 -0.2670  0.1519
14969TIP3    H166322   0.896   0.458   6.823  0.8047  0.7609 -0.6818
14969TIP3    H266323   0.853   0.359   6.717 -0.4191  0.2988  0.2240
14970TIP3   OH266324   1.265   2.243   6.123 -0.2907  0.2587  0.4745
14970TIP3    H166325   1.301   2.203   6.044 -2.3561  0.1166 -0.4691
14970TIP3    H266326   1.271   2.337   6.108 -2.4922  0.2679 -0.8466
14971TIP3   OH266327   6.462   0.879  10.590 -0.0432 -0.1788  0.1617
14971TIP3    H166328   6.378   0.883  10.544 -0.5158 -0.0541  1.0197
14971TIP3    H266329   6.450   0.934  10.668  0.9450  0.1157  0.1306
14972TIP3   OH266330   6.782   4.221  13.578 -0.2140  0.6367  0.0408
14972TIP3    H166331   6.845   4.226  13.651  1.0921 -1.2576 -0.8631
14972TIP3    H266332   6.738   4.137  13.591 -0.3388  0.5245 -1.0395
14973TIP3   OH266333   3.548   2.778  12.706 -0.2795 -0.4518  0.0143
14973TIP3    H166334   3.518   2.723  12.778  0.7628 -1.0859 -0.0192
14973TIP3    H266335   3.506   2.740  12.629 -0.1126 -0.7858  0.0832
14974TIP3   OH266336   3.818   6.458  14.933 -0.3983  0.2040  0.4020
14974TIP3    H166337   3.885   6.519  14.963 -0.9066  0.0568  1.9570
14974TIP3    H266338   3.750   6.464  15.000 -1.3040 -0.6846 -0.4119
14975TIP3   OH266339   4.617   3.221   1.579 -0.4458  0.5435 -0.1528
14975TIP3    H166340   4.675   3.170   1.523  0.3958 -0.0031  1.1612
14975TIP3    H266341   4.550   3.159   1.608  0.7576  0.0131  1.6992
14976TIP3   OH266342   6.582   2.493  11.868  0.0738 -0.1528 -0.1577
14976TIP3    H166343   6.668   2.531  11.886  0.2165 -0.4720 -0.1457
14976TIP3    H266344   6.599   2.426  11.802  0.0743 -1.2194  0.8768
14977TIP3   OH266345   3.571   0.075  13.688 -0.2238  0.0809 -0.0044
14977TIP3    H166346   3.549   0.007  13.624  1.4233 -0.4334 -0.0799
14977TIP3    H266347   3.606   0.026  13.763  2.4932  0.8122 -0.6666
14978TIP3   OH266348   6.197   3.774   3.942 -0.2258  0.0762 -0.1088
14978TIP3    H166349   6.280   3.728   3.953  0.2301  0.9106  0.0053
14978TIP3    H266350   6.137   3.728   4.001 -0.4101 -1.8128 -1.6509
14979TIP3   OH266351   6.640   3.566  15.246 -0.0456  0.3801  0.0226
14979TIP3    H166352   6.608   3.560  15.156 -0.1499  0.6556  0.0394
14979TIP3    H266353   6.607   3.487  15.288 -1.3888  1.0300  0.2457
14980TIP3   OH266354   5.020   2.423  15.422 -0.2476  0.3547 -0.6943
14980TIP3    H166355   4.997   2.331  15.434 -1.2851  0.5177 -1.3674
14980TIP3    H266356   5.059   2.427  15.335  1.4181  0.2764  0.0008
14981TIP3   OH266357   6.592   6.405   0.204  0.0716  0.1541 -0.6297
14981TIP3    H166358   6.535   6.478   0.230  0.4266  0.9558 -2.0088
14981TIP3    H266359   6.658   6.402   0.273  0.3061  1.4500 -0.7635
14982TIP3   OH266360   5.242   0.829   2.927 -0.6218  0.8058 -0.1671
14982TIP3    H166361   5.279   0.749   2.965  0.9647  0.5715 -2.0372
14982TIP3    H266362   5.167   0.849   2.983  0.9277 -0.0451  2.4435
14983TIP3   OH266363   1.629   6.562   6.454 -0.3738  0.3231 -0.4867
14983TIP3    H166364   1.631   6.469   6.475  0.6467  0.5589  0.5149
14983TIP3    H266365   1.568   6.600   6.517  1.0592  0.6907  0.7364
14984TIP3   OH266366   1.526   0.133  12.587  0.3935  0.0604  0.3147
14984TIP3    H166367   1.433   0.154  12.581 -0.3625 -1.4651  4.0191
14984TIP3    H266368   1.565   0.209  12.630  0.7424  0.3014 -0.3987
14985TIP3   OH266369   1.724   1.207  12.916 -0.5600 -0.1839 -0.0253
14985TIP3    H166370   1.642   1.234  12.875 -0.5426  0.0848  0.1118
14985TIP3    H266371   1.718   1.242  13.005 -0.4577 -0.4819  0.0984
14986TIP3   OH266372   0.258   0.973  14.080  0.3534 -0.6287 -0.0896
14986TIP3    H166373   0.301   1.051  14.116 -1.1098  1.7651 -3.0158
14986TIP3    H266374   0.329   0.926  14.035  0.8674  0.4498 -0.4615
14987TIP3   OH266375   2.726   0.714   5.452  0.3119  0.4928  0.0978
14987TIP3    H166376   2.691   0.630   5.421  3.9153 -0.9836 -0.5557
14987TIP3    H266377   2.690   0.779   5.392  0.8651 -1.2436 -2.2364
14988TIP3   OH266378   3.082   4.224   5.519  0.1877  0.7238  0.1400
14988TIP3    H166379   3.045   4.178   5.445  1.5376 -0.4924  0.1853
14988TIP3    H266380   3.153   4.276   5.482  0.5770  0.4625  0.5119
14989TIP3   OH266381   0.879   2.963  15.503 -0.1573  0.3579  0.6719
14989TIP3    H166382   0.941   2.914  15.450 -0.0570 -2.3307  3.0127
14989TIP3    H266383   0.795   2.956  15.457  0.0611 -1.2933  0.4779
14990TIP3   OH266384   3.882   5.635  12.240  0.6924 -0.3326  0.5552
14990TIP3    H166385   3.807   5.647  12.182 -0.5589 -1.2115  1.8978
14990TIP3    H266386   3.959   5.644  12.184 -0.4262  0.2885 -0.9263
14991TIP3   OH266387   6.139   0.067  11.263 -0.0764  0.0080 -0.1604
14991TIP3    H166388   6.214   0.083  11.206  0.3385 -0.5944  0.2075
14991TIP3    H266389   6.105  -0.018  11.232  0.3084 -0.4493  0.6552
14992TIP3   OH266390   4.167   5.843  12.846 -0.2617 -0.0367  0.5140
14992TIP3    H166391   4.233   5.775  12.860  1.0355  0.8553 -0.8586
14992TIP3    H266392   4.093   5.798  12.807  0.0944 -0.8717  0.7923
14993TIP3   OH266393   2.260   4.870   0.520  0.1321  0.0709 -0.0681
14993TIP3    H166394   2.321   4.904   0.586  0.3327  0.1157 -0.2771
14993TIP3    H266395   2.305   4.795   0.481  0.7822  1.1283 -1.4164
14994TIP3   OH266396   1.535   3.367  13.204  0.1395 -0.2813  0.2253
14994TIP3    H166397   1.500   3.313  13.133  0.3433 -0.2473  0.0984
14994TIP3    H266398   1.509   3.456  13.182  0.8241 -0.1781 -0.1887
14995TIP3   OH266399   4.796   1.353  14.051  0.0009 -0.5420 -0.0049
14995TIP3    H166400   4.803   1.425  14.113  0.4358  0.1426 -0.8111
14995TIP3    H266401   4.748   1.284  14.097  1.2070 -0.4552  1.4274
14996TIP3   OH266402   0.470   4.801   4.848 -0.4894 -0.3041  0.6412
14996TIP3    H166403   0.518   4.802   4.931  1.2659 -0.5831 -0.3100
14996TIP3    H266404   0.518   4.862   4.792 -2.1780  0.5723  0.0853
14997TIP3   OH266405   3.820   2.311  15.519 -0.9097  0.2284 -0.3333
14997TIP3    H166406   3.866   2.227  15.524 -0.0061  0.3556 -3.8931
14997TIP3    H266407   3.729   2.287  15.500 -0.4590 -0.0294 -2.3793
14998TIP3   OH266408   2.780   1.348   5.899  0.0422 -0.5041  0.0945
14998TIP3    H166409   2.871   1.327   5.876  0.6904 -1.1603  2.7893
14998TIP3    H266410   2.788   1.403   5.977 -1.8205 -2.7250  1.9901
14999TIP3   OH266411   1.692   0.394   0.131 -0.0420 -0.0437  0.4393
14999TIP3    H166412   1.686   0.490   0.132 -0.2598 -0.0582  0.9139
14999TIP3    H266413   1.710   0.370   0.221 -0.0087 -0.4559  0.3259
15000TIP3   OH266414   2.929   4.413  17.093  0.3339 -0.7840 -0.2018
15000TIP3    H166415   2.959   4.495  17.054 -0.3940 -0.3718  0.0765
15000TIP3    H266416   2.937   4.428  17.187  0.2510 -1.0536 -0.1537
15001TIP3   OH266417   4.879   0.326  12.365 -0.6341  0.4689 -0.1252
15001TIP3    H166418   4.937   0.359  12.434 -0.5411  0.9015 -0.4072
15001TIP3    H266419   4.829   0.403  12.338 -1.5095  0.0526  0.2726
15002TIP3   OH266420   1.608   3.160  17.077 -0.3491 -0.0285  0.5893
15002TIP3    H166421   1.535   3.125  17.026 -0.2673 -1.9123  1.6483
15002TIP3    H266422   1.568   3.192  17.157 -0.1449  0.0568  0.6566
15003TIP3   OH266423   5.433   6.445  15.675 -0.2157  0.8364  0.3346
15003TIP3    H166424   5.504   6.454  15.612  0.3826 -0.9572  0.6950
15003TIP3    H266425   5.473   6.403  15.751 -1.6910 -0.4580  0.4475
15004TIP3   OH266426   2.175   3.885   4.460 -0.0781 -0.3655 -0.3214
15004TIP3    H166427   2.093   3.915   4.499  0.4862  0.5401  0.1956
15004TIP3    H266428   2.211   3.963   4.417  2.1044  0.1410  2.2040
15005TIP3   OH266429   1.961   4.020  17.153  0.6561  0.3479  0.3048
15005TIP3    H166430   2.029   4.071  17.108  1.0572  0.2124  0.7503
15005TIP3    H266431   2.002   3.936  17.172  0.5108  0.4178  0.9594
15006TIP3   OH266432   3.731   2.597  11.705  0.7616 -0.3354  0.7712
15006TIP3    H166433   3.643   2.600  11.743  1.1313  1.3246  1.5704
15006TIP3    H266434   3.737   2.677  11.652  1.7191 -0.5458  0.5557
15007TIP3   OH266435   1.448   0.252   1.940 -0.5870 -0.1887 -0.1346
15007TIP3    H166436   1.444   0.283   1.849  0.7092 -1.5470 -0.6968
15007TIP3    H266437   1.531   0.286   1.973 -1.5000  1.1590  0.9339
15008TIP3   OH266438   2.215   4.270   1.003 -0.3384  0.5531 -0.5657
15008TIP3    H166439   2.217   4.221   1.086 -0.4372 -1.0806 -1.4807
15008TIP3    H266440   2.294   4.242   0.957  1.3257  3.6891  0.1338
15009TIP3   OH266441   4.855   5.039   2.178 -0.0427  0.5785  0.1314
15009TIP3    H166442   4.784   5.090   2.140  0.5721  1.6773  0.4324
15009TIP3    H266443   4.914   5.021   2.104 -0.2936  0.2211  0.0123
15010TIP3   OH266444   0.262   3.532  16.258  0.0143  0.2593 -0.3546
15010TIP3    H166445   0.244   3.439  16.253  2.9721 -0.4011 -0.7618
15010TIP3    H266446   0.317   3.541  16.336  3.8933  0.7176 -2.8741
15011TIP3   OH266447   4.225   2.063   4.117 -0.0846 -0.0929  0.2127
15011TIP3    H166448   4.141   2.017   4.123 -0.3331  0.4139  0.7527
15011TIP3    H266449   4.282   2.002   4.071 -0.7684 -0.4142 -0.2287
15012TIP3   OH266450   2.626   2.457   1.208  0.0395  0.0417  0.2525
15012TIP3    H166451   2.570   2.382   1.190 -0.3824  0.6546 -1.1169
15012TIP3    H266452   2.685   2.427   1.277 -1.2085 -0.9932  0.9222
15013TIP3   OH266453   5.734   6.115  14.032 -0.1310 -0.4816  0.0474
15013TIP3    H166454   5.797   6.161  13.977 -0.0673 -2.0434 -1.2617
15013TIP3    H266455   5.655   6.110  13.979 -0.0793 -1.9938  0.0602
15014TIP3   OH266456   6.022   0.780  13.125 -0.3827  0.5088  0.4222
15014TIP3    H166457   5.973   0.752  13.047  3.0365 -0.5758 -1.5544
15014TIP3    H266458   6.050   0.869  13.104 -0.6398  0.7444  1.0718
15015TIP3   OH266459   3.338   5.782  15.908 -0.0510  0.6813 -0.3553
15015TIP3    H166460   3.264   5.819  15.861 -0.8019  0.1417  0.3823
15015TIP3    H266461   3.300   5.741  15.986  1.2339  2.3763  1.2511
15016TIP3   OH266462   1.989   0.102  16.400  0.5295 -0.3393 -0.5462
15016TIP3    H166463   2.069   0.053  16.419  0.5214  0.3422  1.3582
15016TIP3    H266464   2.019   0.181  16.355  0.9444 -0.0638  0.2023
15017TIP3   OH266465   1.219   0.430  14.445 -0.0444  0.1835  0.3496
15017TIP3    H166466   1.244   0.350  14.493  0.2446 -0.7150 -1.2142
15017TIP3    H266467   1.282   0.496  14.475 -0.0001 -0.2868  1.3427
15018TIP3   OH266468   3.767   5.872  15.715  0.3693 -0.7568 -0.4596
15018TIP3    H166469   3.703   5.890  15.784  0.4471 -1.9812 -0.0467
15018TIP3    H266470   3.830   5.944  15.721  1.0006 -1.4032  1.5136
15019TIP3   OH266471   2.211   6.534   5.725 -0.5642 -0.4196 -0.3688
15019TIP3    H166472   2.197   6.623   5.755  2.3464  0.0848 -0.1455
15019TIP3    H266473   2.125   6.493   5.729 -1.4228  1.3422  2.8815
15020TIP3   OH266474   5.127   5.059  12.350 -0.4758  0.6169 -0.0232
15020TIP3    H166475   5.219   5.057  12.376 -0.4558 -1.6627 -0.1054
15020TIP3    H266476   5.081   5.091  12.428  0.3613  1.7377  0.0282
15021TIP3   OH266477   4.274   2.632  16.111  0.6881  0.0031  0.2822
15021TIP3    H166478   4.292   2.617  16.018 -0.3274 -0.1762  0.1067
15021TIP3    H266479   4.289   2.726  16.123  2.3209 -0.2312  0.2967
15022TIP3   OH266480   0.896   2.802  16.950 -0.0781  0.6265  0.3682
15022TIP3    H166481   0.874   2.894  16.961 -0.5853  0.9036 -2.2383
15022TIP3    H266482   0.991   2.801  16.935 -0.3016  0.9741 -1.2659
15023TIP3   OH266483   4.048   3.610  14.368  0.2270  0.0493  0.5970
15023TIP3    H166484   4.117   3.555  14.333  0.3684  1.6176 -1.8224
15023TIP3    H266485   4.092   3.691  14.395 -0.1833 -0.3516  2.6238
15024TIP3   OH266486   0.590   3.202  14.955  0.5492 -0.5899  0.0773
15024TIP3    H166487   0.658   3.268  14.954  0.0728 -0.0887  0.6519
15024TIP3    H266488   0.570   3.187  14.862  0.3738  0.3650 -0.0423
15025TIP3   OH266489   4.336   4.371  11.620  0.2071 -0.3485 -0.0600
15025TIP3    H166490   4.421   4.383  11.662  0.2917 -1.0160 -0.0201
15025TIP3    H266491   4.281   4.442  11.653  0.3355 -0.7431  1.0201
15026TIP3   OH266492   1.633   5.286   2.098 -0.5738  0.0377  0.0523
15026TIP3    H166493   1.592   5.372   2.095 -0.7714 -0.0517  0.1624
15026TIP3    H266494   1.626   5.253   2.008  0.9836  0.8145 -0.4009
15027TIP3   OH266495   1.741   1.253  14.478 -0.0780 -0.7394  0.3711
15027TIP3    H166496   1.835   1.237  14.487  0.3601  0.9297 -0.8308
15027TIP3    H266497   1.706   1.232  14.565  1.7568  0.7464  1.5773
15028TIP3   OH266498   6.728   5.369  12.114  0.4863  0.3369  0.1732
15028TIP3    H166499   6.699   5.436  12.053 -0.0053  1.0090  1.1303
15028TIP3    H266500   6.684   5.289  12.085  0.3790  0.6082 -0.4299
15029TIP3   OH266501   4.814   6.153  15.844 -0.9830  0.1658 -0.3624
15029TIP3    H166502   4.891   6.204  15.819  0.2179 -0.4450  1.7631
15029TIP3    H266503   4.809   6.163  15.939 -1.0557 -3.0482  0.1036
15030TIP3   OH266504   2.978   0.088  14.201  0.1454  0.3642 -0.6327
15030TIP3    H166505   3.069   0.117  14.191 -0.1321  1.2555 -0.6457
15030TIP3    H266506   2.931   0.166  14.230 -0.1330 -0.7042  2.1589
15031TIP3   OH266507   6.427   1.186   4.896 -0.2317 -0.4207  0.0227
15031TIP3    H166508   6.400   1.212   4.984 -1.1958 -0.2004 -0.3175
15031TIP3    H266509   6.468   1.101   4.907 -1.4605 -0.9751  0.5463
15032TIP3   OH266510   4.140   1.708   4.041  0.4495  0.2284 -0.5806
15032TIP3    H166511   4.221   1.758   4.046 -0.0631  0.9834  0.6934
15032TIP3    H266512   4.074   1.771   4.014  0.1345 -0.2015 -0.8271
15033TIP3   OH266513   0.449   2.992  15.736 -0.1668  0.2344  0.2865
15033TIP3    H166514   0.481   3.038  15.659 -0.7968 -0.3758 -0.3471
15033TIP3    H266515   0.509   2.918  15.747 -0.1126  0.2880  0.3649
15034TIP3   OH266516   0.779   5.772  11.608  0.6991 -0.5152  0.5436
15034TIP3    H166517   0.806   5.860  11.583  1.1568 -0.5664  0.8520
15034TIP3    H266518   0.766   5.726  11.525  1.2433 -0.3933  0.3844
15035TIP3   OH266519   3.083   1.381  14.690 -0.1048 -0.0389  0.6698
15035TIP3    H166520   2.990   1.364  14.672  0.1047 -0.4371 -0.0919
15035TIP3    H266521   3.113   1.301  14.734  0.3447 -0.7759 -0.9007
15036TIP3   OH266522   0.830   6.438  14.911 -0.4276  0.1348 -0.7051
15036TIP3    H166523   0.908   6.492  14.896 -0.7772  0.3735 -1.7456
15036TIP3    H266524   0.813   6.445  15.005  1.7151 -1.1841 -0.1347
15037TIP3   OH266525   0.537   2.961  15.078 -0.0810 -0.7493 -0.3584
15037TIP3    H166526   0.505   2.941  14.990 -0.3081 -0.0964 -0.4258
15037TIP3    H266527   0.561   3.053  15.075 -1.0186 -0.4616  0.5334
15038TIP3   OH266528   0.317   1.265  14.503 -0.2557  0.4722 -0.1209
15038TIP3    H166529   0.297   1.200  14.570 -0.8376  0.3829 -0.3762
15038TIP3    H266530   0.366   1.333  14.550 -1.0292  0.6195  0.5006
15039TIP3   OH266531   1.905   3.160  17.118  0.0141 -0.5208 -0.7769
15039TIP3    H166532   1.932   3.110  17.195  0.7495  0.3761 -0.4386
15039TIP3    H266533   1.813   3.137  17.106 -0.4557  0.2078  1.0797
15040TIP3   OH266534   0.840   4.729  15.857 -0.7787 -0.9791  0.0836
15040TIP3    H166535   0.881   4.789  15.919  0.2984 -1.1521 -0.4388
15040TIP3    H266536   0.789   4.785  15.799  0.7653 -0.4586 -0.8279
15041TIP3   OH266537   5.187   1.559   1.372 -0.0762 -0.0091  0.1050
15041TIP3    H166538   5.259   1.517   1.325  0.7814  2.8678 -1.3837
15041TIP3    H266539   5.111   1.546   1.317  0.4373  1.3002 -0.9755
15042TIP3   OH266540   6.220   4.948  11.600 -0.0940 -0.1942  0.0379
15042TIP3    H166541   6.226   5.037  11.566 -1.7924  0.3316  1.0051
15042TIP3    H266542   6.279   4.947  11.675  0.3078 -0.0537 -0.2706
15043TIP3   OH266543   0.896   6.782  13.940 -0.2161 -0.9721  0.0257
15043TIP3    H166544   0.840   6.735  13.878 -1.5774  0.6239 -0.0446
15043TIP3    H266545   0.891   6.732  14.021 -0.6657 -1.5929 -0.3810
15044TIP3   OH266546   5.816   1.422   6.373 -0.5973 -0.8603  0.0406
15044TIP3    H166547   5.895   1.427   6.427 -1.2088 -2.3931  1.1757
15044TIP3    H266548   5.750   1.471   6.423 -0.2484  0.8828 -1.1717
15045TIP3   OH266549   3.919   4.739   2.388 -0.3836 -0.1088 -0.3500
15045TIP3    H166550   3.975   4.701   2.320  2.1319  1.5213  0.6448
15045TIP3    H266551   3.861   4.799   2.340 -0.0569 -0.5020 -1.2630
15046TIP3   OH266552   5.180   5.292  10.530  0.4270  0.5171  0.1443
15046TIP3    H166553   5.210   5.382  10.547 -1.2440  1.0882  0.2685
15046TIP3    H266554   5.257   5.238  10.542  1.5382  1.9718 -0.1930
15047TIP3   OH266555   3.329   1.530   0.374  0.0660 -0.1500 -0.1379
15047TIP3    H166556   3.308   1.479   0.296  0.7709 -0.7535  0.0503
15047TIP3    H266557   3.402   1.586   0.347 -0.5411  0.6047 -0.2714
15048TIP3   OH266558   1.929   4.820   4.658  0.2081 -0.2740  0.1784
15048TIP3    H166559   1.881   4.809   4.577 -1.3033 -4.4839  1.3792
15048TIP3    H266560   1.877   4.883   4.709 -0.4227  0.1509 -0.9578
15049TIP3   OH266561   2.890   2.812   2.310 -0.0438 -0.5700  0.4100
15049TIP3    H166562   2.929   2.726   2.295 -0.5635 -0.6255 -0.7031
15049TIP3    H266563   2.915   2.834   2.400 -0.0622 -1.9599  0.7756
15050TIP3   OH266564   4.972   0.869   3.024  0.3452 -0.6215 -0.3054
15050TIP3    H166565   4.993   0.851   3.116  0.8690  0.4031 -0.2093
15050TIP3    H266566   4.938   0.786   2.991 -3.8771 -0.0342  1.9034
15051TIP3   OH266567   3.419   1.822  12.263  0.1147 -0.1198  0.0362
15051TIP3    H166568   3.401   1.778  12.346 -0.8087  0.7837  0.3271
15051TIP3    H266569   3.399   1.914  12.280 -0.7259 -0.0216 -1.3781
15052TIP3   OH266570   0.568   0.088  16.179  0.2948 -0.5077 -0.0891
15052TIP3    H166571   0.482   0.102  16.140 -0.0183 -0.4939  0.6046
15052TIP3    H266572   0.566   0.137  16.261  0.5964 -1.3174  0.4186
15053TIP3   OH266573   2.640   6.029  15.735 -0.4917  0.2916 -0.0853
15053TIP3    H166574   2.713   6.072  15.690 -0.6951  1.9948  1.1007
15053TIP3    H266575   2.576   6.098  15.749 -2.2123 -1.0898 -0.7615
15054TIP3   OH266576   0.002   5.357   2.221  0.8453  0.2971 -0.2766
15054TIP3    H166577   0.007   5.262   2.210 -0.0681  0.1050  0.8103
15054TIP3    H266578   0.079   5.391   2.174  0.5383 -0.8705 -1.6736
15055TIP3   OH266579   3.908   1.098   2.626 -0.0880  0.8984  0.1776
15055TIP3    H166580   3.825   1.111   2.672 -0.9471 -0.9529 -0.7394
15055TIP3    H266581   3.903   1.009   2.591  1.6209  1.3083 -1.2851
15056TIP3   OH266582   1.160   4.815   3.667  0.0342  0.1892  0.1435
15056TIP3    H166583   1.096   4.810   3.738  0.4116  1.3373  0.5859
15056TIP3    H266584   1.135   4.892   3.617 -0.0079 -0.4023 -0.7616
15057TIP3   OH266585   1.062   2.724  15.837  0.3774  0.2533 -0.1073
15057TIP3    H166586   1.040   2.639  15.800  1.0692 -0.3001  0.7196
15057TIP3    H266587   1.105   2.771  15.765  1.0825 -0.5435 -0.2112
15058TIP3   OH266588   4.498   4.632  17.260 -0.4077 -0.2793  0.1354
15058TIP3    H166589   4.550   4.684  17.321 -0.6340  0.8973 -0.6499
15058TIP3    H266590   4.463   4.561  17.314  1.4644 -0.7490  0.8231
15059TIP3   OH266591   2.995   4.642   0.393 -0.4443  0.2898 -0.3295
15059TIP3    H166592   2.934   4.625   0.465  0.0640  1.5193  0.4306
15059TIP3    H266593   3.006   4.557   0.350  0.7377 -0.9761  2.2347
15060TIP3   OH266594   3.735   4.067  12.313  0.1339 -0.4355 -0.1197
15060TIP3    H166595   3.802   4.083  12.246  1.1637  0.1417  0.9983
15060TIP3    H266596   3.660   4.034  12.265  1.4736 -1.8363 -1.3502
15061TIP3   OH266597   3.851   2.291  12.397 -0.5228 -0.1207  0.6791
15061TIP3    H166598   3.925   2.337  12.358 -1.6299  2.8929  1.8110
15061TIP3    H266599   3.889   2.242  12.470  0.4491  0.9273  0.9117
15062TIP3   OH266600   0.934   5.316  15.414 -0.0142 -0.1148  0.3422
15062TIP3    H166601   0.938   5.412  15.414 -1.4164 -0.0306 -0.8230
15062TIP3    H266602   0.904   5.294  15.502 -1.7730  0.6711 -0.0095
15063TIP3   OH266603   0.238   5.944   1.171 -0.1124  0.1432  0.2416
15063TIP3    H166604   0.254   6.013   1.106  3.6093 -2.7911 -2.4181
15063TIP3    H266605   0.152   5.909   1.149  0.1839  0.6015 -1.8061
15064TIP3   OH266606   1.626   0.040  16.440  0.0584  0.3020 -0.2768
15064TIP3    H166607   1.605  -0.009  16.360 -0.6353 -0.4399  0.3459
15064TIP3    H266608   1.708   0.001  16.471  0.5699  0.8950 -0.8586
15065TIP3   OH266609   6.350   5.354  13.107  0.0109 -0.4594  0.0799
15065TIP3    H166610   6.314   5.406  13.035  0.3025  0.1520  0.3642
15065TIP3    H266611   6.399   5.284  13.064 -0.9784 -0.9335 -0.3091
15066TIP3   OH266612   4.533   2.545   0.248 -0.5926  0.6595  0.0533
15066TIP3    H166613   4.564   2.577   0.332 -0.9937  1.6136 -0.1449
15066TIP3    H266614   4.519   2.451   0.261 -1.9096  1.0139  1.4352
15067TIP3   OH266615   3.068   3.311  11.259  0.1997  0.3272 -0.0637
15067TIP3    H166616   3.141   3.255  11.232 -0.1034  0.0055 -0.2187
15067TIP3    H266617   2.992   3.255  11.255 -0.1092  0.7490 -0.2055
15068TIP3   OH266618   1.911   1.093   1.284 -0.2540  0.1312 -0.5103
15068TIP3    H166619   1.919   1.021   1.347 -0.3288  1.8358  1.5489
15068TIP3    H266620   1.867   1.162   1.332 -0.5715  1.4295 -2.5672
15069TIP3   OH266621   4.026   0.220   1.211  0.8037 -0.2017  0.7206
15069TIP3    H166622   3.974   0.266   1.145  1.4172 -1.9590 -1.0661
15069TIP3    H266623   3.968   0.152   1.244  0.1349  1.2807  2.8694
15070TIP3   OH266624   5.573   4.396   1.422  0.1478 -0.0110 -1.2102
15070TIP3    H166625   5.518   4.440   1.358  1.2498  0.8329 -1.6151
15070TIP3    H266626   5.611   4.322   1.374  0.1491 -0.0049 -1.2184
15071TIP3   OH266627   6.142   1.709  12.078  0.1028  0.0400 -0.3752
15071TIP3    H166628   6.115   1.800  12.065  0.4712  0.3471  0.8918
15071TIP3    H266629   6.061   1.658  12.066  0.1357  0.3690 -2.3842
15072TIP3   OH266630   6.137   5.343   0.032 -0.0789  0.2559  0.2645
15072TIP3    H166631   6.188   5.418   0.062  1.5354 -0.6563 -0.1153
15072TIP3    H266632   6.097   5.372  -0.050  1.2408  0.4362 -0.3320
15073TIP3   OH266633   4.287   4.410   1.609  0.0306  0.6511 -0.2823
15073TIP3    H166634   4.266   4.319   1.592 -1.2761  0.8453  0.1718
15073TIP3    H266635   4.365   4.427   1.555 -0.7159 -0.2510 -1.7195
15074TIP3   OH266636   2.425   2.606  12.901  0.2950 -0.0424  0.6295
15074TIP3    H166637   2.370   2.537  12.865 -0.3295  0.1459  1.2167
15074TIP3    H266638   2.442   2.664  12.828  0.7874 -0.7848  0.1379
15075TIP3   OH266639   6.497   0.964  12.262 -0.0090 -0.5878  0.1728
15075TIP3    H166640   6.480   1.056  12.281 -1.4953 -1.1112  1.5234
15075TIP3    H266641   6.501   0.959  12.166 -3.0895  0.3809 -0.0866
15076TIP3   OH266642   3.184   4.294   5.817  0.5959 -0.9758 -0.1797
15076TIP3    H166643   3.152   4.235   5.749  0.1824  0.4850 -1.2819
15076TIP3    H266644   3.111   4.353   5.835  0.8423 -1.0491  1.2389
15077TIP3   OH266645   5.456   5.088  12.870 -0.0820 -0.7238  0.4576
15077TIP3    H166646   5.380   5.146  12.876  1.9625  2.2806 -0.6239
15077TIP3    H266647   5.522   5.128  12.927  2.4628 -0.0367 -2.6791
15078TIP3   OH266648   1.746   4.423  16.749 -0.0283 -0.0133 -0.2759
15078TIP3    H166649   1.709   4.497  16.702  0.1999 -1.6769 -3.3337
15078TIP3    H266650   1.673   4.387  16.799 -1.3591 -0.3608 -2.3704
15079TIP3   OH266651   0.605   6.779   0.118 -0.2176 -0.1873 -0.1343
15079TIP3    H166652   0.575   6.747   0.034  1.0044 -3.0673  0.3990
15079TIP3    H266653   0.695   6.810   0.102 -0.5948  0.9433 -0.1853
15080TIP3   OH266654   2.774   0.926  14.973  0.2134  0.3585 -0.2464
15080TIP3    H166655   2.815   1.012  14.971  1.7738 -0.3465 -0.4737
15080TIP3    H266656   2.844   0.866  14.946 -0.8984 -0.9491 -0.3146
15081TIP3   OH266657   3.996   1.956   5.467  0.0689  0.3270 -0.1549
15081TIP3    H166658   3.981   1.901   5.390  0.1173 -0.7327  0.5735
15081TIP3    H266659   4.090   1.974   5.465  0.2694 -0.6172  0.2387
15082TIP3   OH266660   4.045   1.157  15.451 -0.1319  0.1220 -0.2044
15082TIP3    H166661   3.978   1.133  15.387  0.6777 -1.2529 -0.5786
15082TIP3    H266662   4.101   1.219  15.404  0.1220 -0.4306 -0.6431
15083TIP3   OH266663   4.647   2.832  15.365 -0.2998 -0.1478  0.1844
15083TIP3    H166664   4.589   2.782  15.423 -2.4362  1.4815 -0.4289
15083TIP3    H266665   4.679   2.768  15.302  1.1765 -1.7338  2.3850
15084TIP3   OH266666   1.113   5.319  13.186  0.3074 -0.2112  0.1195
15084TIP3    H166667   1.113   5.265  13.266  0.3530 -0.7481 -0.2339
15084TIP3    H266668   1.021   5.338  13.170  0.3335  0.3540  0.5933
15085TIP3   OH266669   2.310   4.090   0.422 -0.0624  0.1097 -0.0352
15085TIP3    H166670   2.388   4.048   0.458 -0.3161  0.3927  0.8844
15085TIP3    H266671   2.237   4.040   0.460 -0.3360  0.3332 -0.2613
15086TIP3   OH266672   4.463   0.815  11.906 -0.1526  0.1037  0.1872
15086TIP3    H166673   4.518   0.823  11.984  1.4126  2.9222 -1.0613
15086TIP3    H266674   4.483   0.728  11.872  3.3115  0.8012  0.0742
15087TIP3   OH266675   1.213   3.639  16.127  0.3794  0.1079  0.3531
15087TIP3    H166676   1.185   3.564  16.179 -2.4246  0.4606 -0.4958
15087TIP3    H266677   1.255   3.601  16.050 -0.8091 -0.6130  0.0422
15088TIP3   OH266678   6.309   2.139  17.269  0.0316 -0.0605 -0.2620
15088TIP3    H166679   6.292   2.133  17.363  0.3612 -1.8867 -0.2958
15088TIP3    H266680   6.399   2.171  17.262 -0.8913  2.9334 -0.0411
15089TIP3   OH266681   0.478   6.471  14.542 -0.2097  0.1811 -0.3096
15089TIP3    H166682   0.437   6.552  14.511 -2.7259 -0.4279  1.0983
15089TIP3    H266683   0.488   6.484  14.636  0.0299 -0.8660 -0.1797
15090TIP3   OH266684   1.241   2.844  15.640  0.0030  0.1467 -0.7239
15090TIP3    H166685   1.269   2.923  15.595  0.9096  0.0105 -0.4286
15090TIP3    H266686   1.288   2.773  15.595 -1.5624 -0.3526 -1.6407
15091TIP3   OH266687   3.726   1.196  12.490  0.0038  0.0902 -0.6321
15091TIP3    H166688   3.659   1.161  12.431  0.2375  0.3895 -1.0797
15091TIP3    H266689   3.740   1.286  12.461 -0.7535  0.6617  0.6507
15092TIP3   OH266690   0.501   4.590  16.426 -0.1637 -0.2134  0.4558
15092TIP3    H166691   0.466   4.679  16.423  2.0459  0.7115  0.0091
15092TIP3    H266692   0.496   4.559  16.336  0.9292  0.2772  0.2070
15093TIP3   OH266693   1.797   2.230  13.801  0.2661 -0.5875  0.2854
15093TIP3    H166694   1.839   2.156  13.757  1.8442  0.9537 -0.9036
15093TIP3    H266695   1.708   2.199  13.818  0.7725 -2.6380 -0.4685
15094TIP3   OH266696   6.214   1.228   1.434  0.3210 -0.2813 -0.2650
15094TIP3    H166697   6.209   1.202   1.526 -1.3538 -0.4914 -0.3967
15094TIP3    H266698   6.302   1.201   1.407  2.1607  2.7463  2.1011
15095TIP3   OH266699   3.733   4.497  13.326  0.3197  0.4598 -0.0604
15095TIP3    H166700   3.784   4.504  13.406 -0.0370  0.2198  0.1890
15095TIP3    H266701   3.787   4.441  13.268  0.3228  0.1733  0.2156
15096TIP3   OH266702   5.956   0.406   5.939  0.3842  0.1112 -0.5997
15096TIP3    H166703   5.993   0.327   5.979 -0.5901 -0.3895 -0.6649
15096TIP3    H266704   5.945   0.466   6.013  1.0901  0.1873 -0.5425
15097TIP3   OH266705   1.704   1.240  13.663 -0.4445 -0.7698  0.1637
15097TIP3    H166706   1.690   1.315  13.720 -0.9665 -2.0855  1.8617
15097TIP3    H266707   1.617   1.214  13.634 -0.1869 -0.1231 -1.2883
15098TIP3   OH266708   3.546   1.975  12.573 -0.2798 -0.3930  0.2184
15098TIP3    H166709   3.468   2.004  12.525 -1.3223 -2.0111  0.8275
15098TIP3    H266710   3.585   1.908  12.516  0.2645 -0.0962  0.2366
15099TIP3   OH266711   2.430   0.011   5.611 -0.7089 -0.2197  0.1157
15099TIP3    H166712   2.369   0.005   5.684 -0.4806  1.6681  0.4939
15099TIP3    H266713   2.487   0.084   5.633 -1.0907  0.8899 -2.2865
15100TIP3   OH266714   3.105   0.975  13.348  0.3617 -0.2000  0.1874
15100TIP3    H166715   3.078   1.033  13.276  0.5118 -0.1911  0.1372
15100TIP3    H266716   3.195   0.951  13.326  0.3139 -0.4185  0.2324
15101TIP3   OH266717   2.227   6.350   1.403 -0.5956 -0.2857 -0.0702
15101TIP3    H166718   2.190   6.434   1.430 -2.4869 -1.1928  0.3454
15101TIP3    H266719   2.177   6.285   1.452 -0.2408 -1.7352 -1.5329
15102TIP3   OH266720   0.014   2.482  12.144  0.5522 -0.0555  0.4834
15102TIP3    H166721   0.007   2.511  12.053 -0.2213 -2.5878 -0.3350
15102TIP3    H266722  -0.031   2.549  12.194 -0.3539  0.6315 -1.1707
15103TIP3   OH266723   2.187   0.007  11.068 -0.4751  0.0335 -0.1661
15103TIP3    H166724   2.189  -0.047  10.989 -0.3660 -0.7562  0.3598
15103TIP3    H266725   2.246   0.079  11.049 -0.1266 -0.3710 -0.6494
15104TIP3   OH266726   4.323   3.485  15.156 -0.5166  0.5016 -0.5154
15104TIP3    H166727   4.271   3.546  15.208 -1.3610 -0.4266 -0.2427
15104TIP3    H266728   4.406   3.531  15.141 -0.4294  0.9867  1.2308
15105TIP3   OH266729   6.203   4.650   1.333 -0.4281 -0.1432  0.0795
15105TIP3    H166730   6.135   4.679   1.271 -1.0438 -0.6816  0.4876
15105TIP3    H266731   6.252   4.584   1.285 -0.0773  0.3765 -0.2807
15106TIP3   OH266732   2.830   4.917  12.223 -0.1258 -0.0013 -0.0089
15106TIP3    H166733   2.911   4.960  12.250  0.0827 -0.1628 -0.3756
15106TIP3    H266734   2.806   4.862  12.297 -0.6300  1.0619  0.6541
15107TIP3   OH266735   6.408   1.738  16.701  0.1942  0.3911 -0.8812
15107TIP3    H166736   6.434   1.743  16.609 -0.8046 -0.0559 -1.2108
15107TIP3    H266737   6.312   1.732  16.697  0.2562 -2.0889  0.0722
15108TIP3   OH266738   2.425   5.578   0.895  1.0494  0.4572 -0.6057
15108TIP3    H166739   2.505   5.526   0.883  2.4867  2.4320  0.0243
15108TIP3    H266740   2.425   5.602   0.988  0.0044  0.9553 -0.7151
15109TIP3   OH266741   5.481   4.326  10.790 -0.4243 -0.2938 -0.5618
15109TIP3    H166742   5.543   4.370  10.848 -2.3078  0.3862  1.0301
15109TIP3    H266743   5.521   4.334  10.703  1.4529  0.5479  0.3141
15110TIP3   OH266744   0.327   1.352   0.184  0.0355  0.6807 -0.5445
15110TIP3    H166745   0.250   1.369   0.237 -0.3774  0.5809 -1.1046
15110TIP3    H266746   0.308   1.270   0.139 -0.3048  1.5469 -2.0633
15111TIP3   OH266747   6.282   5.496  14.709 -0.4555  0.1343  0.4334
15111TIP3    H166748   6.359   5.498  14.652  1.1375 -0.5252  2.4423
15111TIP3    H266749   6.269   5.588  14.734 -0.2580  0.2349  0.1796
15112TIP3   OH266750   5.368   2.530   4.395  0.0076 -0.1362 -0.2023
15112TIP3    H166751   5.285   2.493   4.425  0.6117 -2.1584 -0.8209
15112TIP3    H266752   5.347   2.578   4.316 -0.7752  0.6315  0.4574
15113TIP3   OH266753   0.763   1.222   6.187  0.3769 -0.2574 -0.1688
15113TIP3    H166754   0.704   1.211   6.113  0.8815  1.8063 -0.9331
15113TIP3    H266755   0.706   1.244   6.261  0.0048 -0.8304 -0.2781
15114TIP3   OH266756   0.479   0.656   3.885 -0.1662  0.2805 -0.6816
15114TIP3    H166757   0.406   0.597   3.908  1.1986 -0.7033  1.4601
15114TIP3    H266758   0.521   0.614   3.810 -0.9625  0.1047 -1.0408
15115TIP3   OH266759   3.695   4.895  13.043 -0.1760 -0.6246 -0.6594
15115TIP3    H166760   3.749   4.828  13.086  1.6390  1.9666  1.4676
15115TIP3    H266761   3.676   4.859  12.957  0.4748 -3.9314  0.4274
15116TIP3   OH266762   1.465   3.164   1.399 -0.0099 -0.1411  0.8386
15116TIP3    H166763   1.516   3.085   1.381  3.3503  1.6909  1.4779
15116TIP3    H266764   1.396   3.135   1.459  0.1001 -2.8096 -0.1902
15117TIP3   OH266765   2.317   1.835   0.601 -0.3938 -0.4881  0.1062
15117TIP3    H166766   2.226   1.862   0.615  0.6760  3.6941  0.3335
15117TIP3    H266767   2.326   1.829   0.506 -0.1833  2.7501 -0.1869
15118TIP3   OH266768   2.695   4.801   5.298 -0.3280  0.0850  0.0096
15118TIP3    H166769   2.651   4.729   5.344  0.0673  0.8588  1.6676
15118TIP3    H266770   2.624   4.856   5.266 -0.6188  0.7577  1.7338
15119TIP3   OH266771   0.843   5.687  12.429 -0.1756  0.1669 -0.0008
15119TIP3    H166772   0.839   5.595  12.403 -0.1069 -0.0181  0.6243
15119TIP3    H266773   0.852   5.684  12.525 -1.3786  0.8387  0.1443
15120TIP3   OH266774   0.751   6.146  16.632 -0.8739 -0.5549  0.3604
15120TIP3    H166775   0.757   6.131  16.726 -1.2803 -0.0634  0.4729
15120TIP3    H266776   0.657   6.160  16.616 -0.5924  1.5728  0.2562
15121TIP3   OH266777   5.417   6.112   1.292 -0.1757 -0.0869  0.0874
15121TIP3    H166778   5.407   6.032   1.344  0.0841  0.1513  0.5110
15121TIP3    H266779   5.504   6.145   1.316 -1.4874  2.0045  2.3074
15122TIP3   OH266780   3.840   3.609  10.539 -0.1300  0.2159  0.5417
15122TIP3    H166781   3.781   3.619  10.614  0.2578  1.8542  0.6755
15122TIP3    H266782   3.787   3.636  10.464 -0.0731 -0.0003  0.4233
15123TIP3   OH266783   1.345   4.625  12.214  0.4355  0.3019  0.0257
15123TIP3    H166784   1.416   4.677  12.251  0.6536  0.2790 -0.3603
15123TIP3    H266785   1.324   4.668  12.132  0.4986 -0.1189 -0.2143
15124TIP3   OH266786   3.821   0.528  14.293  0.0303  0.1961 -0.1845
15124TIP3    H166787   3.837   0.587  14.367 -0.7910 -0.5487  0.6220
15124TIP3    H266788   3.866   0.447  14.317  0.3154  0.1641 -0.8168
15125TIP3   OH266789   5.433   5.524  13.084 -0.5412 -0.2252 -0.0274
15125TIP3    H166790   5.454   5.592  13.149 -1.5954  1.2948 -1.2007
15125TIP3    H266791   5.350   5.489  13.114 -0.3909 -0.4433  0.1402
15126TIP3   OH266792   0.906   0.786   2.509  0.3634 -0.0194  0.4565
15126TIP3    H166793   0.880   0.735   2.586  0.9298 -0.0855  0.6144
15126TIP3    H266794   0.901   0.724   2.436 -1.3404  0.3576  0.2243
15127TIP3   OH266795   1.956   2.451   2.810 -0.1969  0.5762 -0.0899
15127TIP3    H166796   2.038   2.484   2.848  0.5990 -0.1223 -1.1391
15127TIP3    H266797   1.889   2.475   2.873  0.8104  1.2484  0.7554
15128TIP3   OH266798   5.294   3.415  12.102 -0.6834  0.1475  0.0898
15128TIP3    H166799   5.294   3.326  12.138  1.7117  0.3013  0.6456
15128TIP3    H266800   5.327   3.405  12.013 -0.2977  0.4951  0.1924
15129TIP3   OH266801   0.813   4.052  15.019 -0.1781  0.4090  0.5120
15129TIP3    H166802   0.827   4.143  15.045  0.3743  0.8743 -1.2384
15129TIP3    H266803   0.823   4.053  14.924  0.3388 -1.5829  0.5017
15130TIP3   OH266804   6.668   0.629   4.383  0.1655  0.1716  0.3210
15130TIP3    H166805   6.647   0.580   4.462  0.1444  0.3875  0.4514
15130TIP3    H266806   6.592   0.618   4.326  0.8714 -1.3883 -0.3718
15131TIP3   OH266807   2.181   0.755  17.059  0.5263 -0.1932  0.2733
15131TIP3    H166808   2.121   0.685  17.034 -0.5610  1.2297 -1.3691
15131TIP3    H266809   2.150   0.783  17.146 -0.3190 -0.4108  0.0540
15132TIP3   OH266810   6.195   4.722   4.401 -0.4030 -0.0042  0.4263
15132TIP3    H166811   6.101   4.714   4.417 -0.4025  1.0245  0.9966
15132TIP3    H266812   6.232   4.743   4.486  0.3476 -0.3576  0.1930
15133TIP3   OH266813   5.070   0.960   0.148  0.3821 -0.5247  0.4537
15133TIP3    H166814   5.148   0.957   0.204  0.4483  1.6735  0.5632
15133TIP3    H266815   5.094   1.020   0.078 -1.4355  0.7145  0.8430
15134TIP3   OH266816   6.404   3.276  12.769 -0.1678 -0.0450 -0.0596
15134TIP3    H166817   6.311   3.285  12.747 -0.0058 -0.6139 -1.0080
15134TIP3    H266818   6.404   3.231  12.853 -0.8218  2.7503  1.5910
15135TIP3   OH266819   3.340   3.916  11.528  0.3800  0.0302 -0.0202
15135TIP3    H166820   3.350   3.884  11.618  0.8090  0.9557  0.2757
15135TIP3    H266821   3.304   3.841  11.480 -2.1038  0.1819  1.3964
15136TIP3   OH266822   5.331   4.987   5.940 -0.1401 -0.7053 -0.0387
15136TIP3    H166823   5.348   5.027   5.855 -0.4414  1.8220  0.9789
15136TIP3    H266824   5.325   5.062   6.001  0.9530 -2.4349  2.3708
15137TIP3   OH266825   5.739   1.603   3.832  0.3467  0.4452  0.0596
15137TIP3    H166826   5.772   1.626   3.919  1.6975  0.4542 -0.4290
15137TIP3    H266827   5.654   1.563   3.848  0.6580  0.2776  1.4070
15138TIP3   OH266828   5.366   5.192   6.118  0.0872  0.2411  0.1431
15138TIP3    H166829   5.420   5.245   6.061 -0.3231  2.6487  1.8414
15138TIP3    H266830   5.428   5.145   6.174  0.4477  0.4215 -0.1079
15139TIP3   OH266831   6.638   1.297   4.074 -0.5110  0.3094  0.2538
15139TIP3    H166832   6.640   1.286   3.979  0.6343  0.3087  0.2640
15139TIP3    H266833   6.632   1.208   4.108  0.2485  0.2306  0.1948
15140TIP3   OH266834   3.879   1.751  14.545  0.3018 -0.6995 -0.3808
15140TIP3    H166835   3.953   1.697  14.517  0.5667  0.4404 -2.0172
15140TIP3    H266836   3.899   1.839  14.511 -0.5705  0.2422  1.3730
15141TIP3   OH266837   4.586   2.755   5.280  0.0120  0.8228 -0.4470
15141TIP3    H166838   4.522   2.793   5.219 -0.9770  1.3561  0.8646
15141TIP3    H266839   4.607   2.669   5.243  0.6105  1.7308 -2.3156
15142TIP3   OH266840   4.501   0.904  15.139  0.0784 -0.0283  0.0709
15142TIP3    H166841   4.514   0.810  15.125 -0.0517  0.0406 -0.5558
15142TIP3    H266842   4.537   0.945  15.060  0.4967  0.4779  0.5114
15143TIP3   OH266843   4.281   0.899   1.106 -0.1046 -0.1392 -0.4036
15143TIP3    H166844   4.287   0.986   1.068  0.6760  0.0293  0.0666
15143TIP3    H266845   4.370   0.880   1.137 -0.5500 -0.5386  0.7121
15144TIP3   OH266846   2.826   5.132   3.115  0.5191  0.1110  0.5647
15144TIP3    H166847   2.874   5.138   3.033 -0.8795 -0.5129 -0.3344
15144TIP3    H266848   2.789   5.220   3.127 -1.1377 -0.3549 -0.7000
15145TIP3   OH266849   3.216   0.789  13.992 -0.5098  0.6810 -0.3757
15145TIP3    H166850   3.276   0.859  14.019 -0.2662  0.0551  0.8001
15145TIP3    H266851   3.253   0.710  14.033 -0.6276 -0.1907 -1.8800
15146TIP3   OH266852   4.414   1.267  14.785 -0.4116  0.1062 -0.2692
15146TIP3    H166853   4.326   1.271  14.822  0.1974 -0.6982  1.3342
15146TIP3    H266854   4.430   1.174  14.771 -0.5415  0.3480 -2.5028
15147TIP3   OH266855   5.251   5.858  12.838  0.7489  0.8965 -0.2174
15147TIP3    H166856   5.211   5.920  12.777  1.3210  1.7129  0.2094
15147TIP3    H266857   5.332   5.901  12.865 -0.1145  1.2076  2.1468
15148TIP3   OH266858   4.458   1.953  16.735  0.0156 -0.1580 -0.1424
15148TIP3    H166859   4.426   2.029  16.686 -0.5522  0.3459  0.9678
15148TIP3    H266860   4.552   1.971  16.747 -0.1969  0.5862  0.4701
15149TIP3   OH266861   6.548   4.838   5.444 -0.1970  0.3007  0.3979
15149TIP3    H166862   6.506   4.875   5.522  0.2328  2.2749 -0.2503
15149TIP3    H266863   6.475   4.825   5.383 -0.4069 -0.3420  0.7753
15150TIP3   OH266864   2.872   5.243  13.916  0.1619  0.3492  0.2375
15150TIP3    H166865   2.905   5.276  14.000  0.8537 -0.2812  0.2276
15150TIP3    H266866   2.806   5.306  13.889  1.7227  1.9692  0.0157
15151TIP3   OH266867   0.454   4.283  11.674  0.1736  0.1508  0.1005
15151TIP3    H166868   0.436   4.371  11.705 -0.7310  0.3389 -0.9287
15151TIP3    H266869   0.496   4.295  11.589 -0.1687 -0.4113 -0.1548
15152TIP3   OH266870   1.898   2.939  13.464 -0.3911  0.8544 -0.3370
15152TIP3    H166871   1.875   2.976  13.549  1.0197  0.7132  0.1342
15152TIP3    H266872   1.875   3.008  13.401 -2.2481  0.6239  0.0406
15153TIP3   OH266873   3.990   6.622  15.085 -0.1727 -0.0256  0.2692
15153TIP3    H166874   4.072   6.581  15.110  0.1758  0.5354  0.0651
15153TIP3    H266875   3.982   6.697  15.143 -0.0474  0.4866 -0.3600
15154TIP3   OH266876   0.978   1.742  15.192  0.3611 -0.1303 -0.0215
15154TIP3    H166877   0.915   1.813  15.200 -0.9644 -1.4608  2.3950
15154TIP3    H266878   1.057   1.774  15.236  0.2893  0.3819 -0.2600
15155TIP3   OH266879   2.884   6.330   4.725 -0.0962 -0.2664  0.4991
15155TIP3    H166880   2.965   6.309   4.679 -0.3498 -1.7629  0.6716
15155TIP3    H266881   2.912   6.377   4.804  0.7284 -1.7109  1.1061
15156TIP3   OH266882   5.800   0.455  15.936 -0.1310  0.5752  0.8786
15156TIP3    H166883   5.716   0.412  15.916  0.1237  1.3964 -2.8042
15156TIP3    H266884   5.863   0.384  15.940 -0.0818  0.2120 -2.8706
15157TIP3   OH266885   0.509   3.995   4.937 -0.5087  0.1408  0.4407
15157TIP3    H166886   0.571   3.937   4.981 -0.5788  1.4311  2.3769
15157TIP3    H266887   0.482   3.947   4.858  2.5830 -0.6391 -0.2598
15158TIP3   OH266888   1.586   5.571  16.734  0.2751  0.2112  0.6366
15158TIP3    H166889   1.606   5.589  16.642  0.0847  1.9454  0.9104
15158TIP3    H266890   1.516   5.506  16.730 -0.8032  1.3957 -0.4866
15159TIP3   OH266891   6.259   3.147  12.972  0.8738 -0.3575 -0.1259
15159TIP3    H166892   6.193   3.214  12.954  0.8247  0.0602  1.4316
15159TIP3    H266893   6.278   3.156  13.066  2.4230 -1.1262 -0.3217
15160TIP3   OH266894   3.162   5.881  16.180 -0.2140 -0.0664 -0.2388
15160TIP3    H166895   3.211   5.927  16.112  0.5459 -0.3573  0.0894
15160TIP3    H266896   3.179   5.789  16.164  1.9042 -0.1121  1.6509
15161TIP3   OH266897   0.207   4.451   3.131  0.5347 -0.1236 -0.3488
15161TIP3    H166898   0.265   4.412   3.196  0.4343  1.0464  0.4959
15161TIP3    H266899   0.196   4.542   3.161  0.2369  0.3651 -1.8398
15162TIP3   OH266900   2.881   4.233  15.998  0.4572  0.1975 -0.0933
15162TIP3    H166901   2.948   4.164  15.991 -0.2144 -0.3027 -2.0502
15162TIP3    H266902   2.930   4.315  15.993  0.9658 -0.1644 -1.2578
15163TIP3   OH266903   6.715   0.843  11.380  0.3233 -0.2421 -0.0089
15163TIP3    H166904   6.628   0.804  11.380 -0.7918  2.0635  0.0183
15163TIP3    H266905   6.774   0.770  11.363 -1.6818 -1.6838 -1.2380
15164TIP3   OH266906   0.038   6.288  12.802 -0.1210  0.1962 -0.0261
15164TIP3    H166907  -0.007   6.351  12.859 -0.9077  0.4638 -0.9106
15164TIP3    H266908  -0.010   6.207  12.814 -0.2922  0.2548 -0.3069
15165TIP3   OH266909   6.781   3.187  10.948 -1.1795  0.2258 -0.1217
15165TIP3    H166910   6.868   3.220  10.971 -1.2165  0.0720  0.2426
15165TIP3    H266911   6.728   3.266  10.936 -1.2983  0.2978  0.8603
15166TIP3   OH266912   5.472   4.012  13.479  0.0021 -0.2073  0.5459
15166TIP3    H166913   5.514   3.947  13.422 -1.7178 -2.0094  1.2321
15166TIP3    H266914   5.392   3.969  13.510 -1.6361  2.5043  0.4530
15167TIP3   OH266915   0.310   2.902  14.470 -0.3122  0.1972 -0.3128
15167TIP3    H166916   0.337   2.834  14.409  1.4355  1.1121 -0.6362
15167TIP3    H266917   0.344   2.873  14.555 -1.2037 -0.2166 -0.0850
15168TIP3   OH266918   4.032   0.934  13.268  0.2959  0.2105  0.1025
15168TIP3    H166919   3.993   0.994  13.331  0.7202  1.7945 -1.0810
15168TIP3    H266920   3.960   0.875  13.245 -0.0673  0.0713  1.4722
15169TIP3   OH266921   3.152   4.927   1.578 -0.4273 -0.5726 -0.6128
15169TIP3    H166922   3.071   4.895   1.538 -0.9609  1.7197 -1.5540
15169TIP3    H266923   3.132   5.017   1.603  0.8944 -0.9233  2.0367
15170TIP3   OH266924   4.348   3.711   4.668 -0.3340 -0.0821 -0.2289
15170TIP3    H166925   4.277   3.667   4.622 -1.4425  0.2987  1.0660
15170TIP3    H266926   4.305   3.768   4.731  1.0829  1.9390 -0.9779
15171TIP3   OH266927   5.335   3.263   0.132  0.0664 -0.3490 -0.1782
15171TIP3    H166928   5.259   3.206   0.119 -0.8942  0.8281  0.0116
15171TIP3    H266929   5.298   3.342   0.172  1.3799  0.3181 -0.2332
15172TIP3   OH266930   3.905   5.380  14.731 -0.0732 -0.2190 -0.0197
15172TIP3    H166931   3.892   5.287  14.748 -0.4613 -0.0031  0.9378
15172TIP3    H266932   3.829   5.406  14.679 -0.7330 -0.1344  0.9620
15173TIP3   OH266933   0.136   0.458  15.878 -0.0098 -0.1892 -0.0766
15173TIP3    H166934   0.224   0.421  15.888 -0.4244 -0.7287  2.0430
15173TIP3    H266935   0.077   0.384  15.894 -0.8792  0.3627 -0.6143
15174TIP3   OH266936   2.268   3.201  11.928 -0.3264  0.4355 -0.3336
15174TIP3    H166937   2.214   3.218  12.005  0.3385  0.6333  0.0983
15174TIP3    H266938   2.214   3.229  11.854 -1.5739 -1.1467 -0.0842
15175TIP3   OH266939   2.108   6.111  12.153 -0.1404 -0.2855  0.6406
15175TIP3    H166940   2.046   6.046  12.119 -1.4173  0.5285  1.3033
15175TIP3    H266941   2.121   6.172  12.080  0.1011 -0.6079  0.4117
15176TIP3   OH266942   2.623   0.488  12.396 -0.3753 -0.3040  0.6508
15176TIP3    H166943   2.706   0.527  12.422 -0.9107  2.7856 -1.6776
15176TIP3    H266944   2.558   0.531  12.451 -0.8627  1.4763 -1.1869
15177TIP3   OH266945   1.563   1.422   4.519  0.2086  0.3101 -0.4081
15177TIP3    H166946   1.492   1.460   4.570 -1.1566 -2.0441 -0.4148
15177TIP3    H266947   1.643   1.452   4.564 -0.8764 -0.1812  2.0395
15178TIP3   OH266948   0.437   1.067   4.668  1.0387 -0.2671 -0.4777
15178TIP3    H166949   0.502   1.137   4.674 -0.6021  1.4022 -1.2589
15178TIP3    H266950   0.373   1.089   4.736 -0.4778  0.1061 -1.9752
15179TIP3   OH266951   0.193   0.736  16.888 -0.1152  0.3393 -0.2231
15179TIP3    H166952   0.253   0.678  16.935 -1.4713  0.0410  1.2351
15179TIP3    H266953   0.176   0.808  16.949 -1.2167  0.4250 -0.6030
15180TIP3   OH266954   2.663   3.772  12.486  0.2723  0.2338  0.3871
15180TIP3    H166955   2.723   3.717  12.536  0.7420 -0.7427 -1.1896
15180TIP3    H266956   2.619   3.826  12.552  1.5261 -0.3495  1.7397
15181TIP3   OH266957   2.938   2.247   0.700  0.2467 -0.3816  0.1968
15181TIP3    H166958   2.916   2.154   0.689  0.8476 -0.6207  0.9628
15181TIP3    H266959   3.033   2.249   0.701  0.2343  0.1981  0.5528
15182TIP3   OH266960   6.523   0.310  14.504 -0.5996  0.3781  0.0383
15182TIP3    H166961   6.430   0.293  14.523 -0.2374 -0.7632  0.9152
15182TIP3    H266962   6.523   0.396  14.462 -1.9610  0.7976  0.8204
15183TIP3   OH266963   3.931   0.901  14.595 -0.9574 -0.1018 -0.6337
15183TIP3    H166964   3.908   0.968  14.531  0.0778  0.8232 -0.0625
15183TIP3    H266965   3.972   0.949  14.667 -3.3886 -0.9096  1.4545
15184TIP3   OH266966   2.494   4.158   5.982  0.3322 -0.3325  0.0272
15184TIP3    H166967   2.545   4.236   6.001  0.0842 -0.4035  1.0535
15184TIP3    H266968   2.451   4.137   6.065 -0.2297 -1.0967 -0.4443
15185TIP3   OH266969   5.446   0.330   6.111  0.1048 -0.2589  0.4467
15185TIP3    H166970   5.528   0.378   6.127  0.7618 -1.4505  0.8047
15185TIP3    H266971   5.463   0.242   6.145 -0.4607 -1.2576 -1.6763
15186TIP3   OH266972   4.061   3.222   2.874  0.0482 -0.0421  0.0707
15186TIP3    H166973   4.133   3.200   2.814 -1.4500 -0.4342 -1.6741
15186TIP3    H266974   4.065   3.155   2.942  0.9744 -0.3921 -0.3146
15187TIP3   OH266975   1.424   2.915   0.104 -0.1753  0.0315 -0.1050
15187TIP3    H166976   1.395   2.915   0.013  1.1877 -1.0154 -0.5721
15187TIP3    H266977   1.411   2.825   0.134 -1.2325  0.5169  0.9616
15188TIP3   OH266978   6.693   5.641   5.292  0.0785  0.1365 -0.1875
15188TIP3    H166979   6.650   5.664   5.374  0.7327 -0.8098  0.4480
15188TIP3    H266980   6.633   5.669   5.224 -1.2131 -0.5093  0.6501
15189TIP3   OH266981   0.042   3.163   2.394  0.0595  0.2511  0.1372
15189TIP3    H166982   0.055   3.124   2.308  2.2016  1.4041 -0.1164
15189TIP3    H266983   0.093   3.109   2.454 -0.2429  0.3043  0.4494
15190TIP3   OH266984   0.334   6.070   5.362 -0.3517 -0.5458 -0.5319
15190TIP3    H166985   0.282   6.149   5.347  0.1783 -0.2652 -0.9347
15190TIP3    H266986   0.269   6.002   5.382 -0.9045 -0.2906 -1.3885
15191TIP3   OH266987   2.875   5.683  16.840 -0.3106 -0.1030  0.1500
15191TIP3    H166988   2.899   5.596  16.807 -1.9093 -0.3981 -0.3181
15191TIP3    H266989   2.808   5.715  16.779  0.0557  1.3577  0.4615
15192TIP3   OH266990   0.471   5.493   5.219  0.3934 -0.0510 -0.3142
15192TIP3    H166991   0.561   5.462   5.222  0.1038 -0.8457  0.3495
15192TIP3    H266992   0.419   5.414   5.204 -0.1732  0.4440 -1.0288
15193TIP3   OH266993   1.468   3.709  10.686  0.2318  0.0366  0.5744
15193TIP3    H166994   1.398   3.768  10.712  0.5328  0.1478  1.1309
15193TIP3    H266995   1.549   3.755  10.707  0.4825  0.0226 -0.3173
15194TIP3   OH266996   3.706   5.947  14.947  0.8411 -0.4231 -0.1125
15194TIP3    H166997   3.769   6.014  14.974 -0.1249  0.3296  0.3693
15194TIP3    H266998   3.703   5.886  15.020 -0.9219  0.9962  1.1106
15195TIP3   OH266999   2.689   4.191  10.930 -0.2388 -0.4999 -0.2797
15195TIP3    H167000   2.730   4.229  10.853 -3.0234  1.7263 -0.8355
15195TIP3    H267001   2.611   4.244  10.945 -0.9764 -2.1698  2.8313
15196TIP3   OH267002   5.666   5.506   1.287  0.3303  0.1619 -0.4767
15196TIP3    H167003   5.731   5.500   1.356  0.8518 -0.2191 -0.9927
15196TIP3    H267004   5.609   5.431   1.300 -1.3269  1.6451  1.2749
15197TIP3   OH267005   1.861   6.149  11.800 -0.2000 -0.0205  0.3648
15197TIP3    H167006   1.859   6.220  11.864  1.0262 -0.6690  1.1730
15197TIP3    H267007   1.903   6.187  11.723  0.6070  0.1180  0.8542
15198TIP3   OH267008   3.182   0.769   4.143 -0.2691 -0.1744 -0.0910
15198TIP3    H167009   3.237   0.845   4.165 -0.9277  0.0555  0.8129
15198TIP3    H267010   3.244   0.704   4.110  0.4478  0.3703  0.1482
15199TIP3   OH267011   5.935   4.962  11.731  0.0594 -0.6409  0.6416
15199TIP3    H167012   6.017   4.939  11.687  0.0246 -0.5422  0.5235
15199TIP3    H267013   5.946   5.053  11.758  0.5930 -1.0909  2.0240
15200TIP3   OH267014   0.616   3.252   2.089  0.4944  0.1415 -0.0315
15200TIP3    H167015   0.598   3.217   2.002 -0.2593 -0.6945  0.4417
15200TIP3    H267016   0.651   3.340   2.073 -3.2602  1.6225 -1.0923
15201TIP3   OH267017   0.484   0.995  16.777  0.1954  0.4159  0.0209
15201TIP3    H167018   0.391   1.013  16.767  0.0073 -0.2006  0.5788
15201TIP3    H267019   0.527   1.053  16.714 -0.3725  2.7969  1.6810
15202TIP3   OH267020   5.158   2.273   0.732  0.1498  0.3387 -0.0382
15202TIP3    H167021   5.210   2.195   0.753  1.3552  1.0206 -0.3695
15202TIP3    H267022   5.203   2.311   0.656 -0.5564  1.2334 -0.0174
15203TIP3   OH267023   3.865   0.208   5.284  0.4987 -0.6852 -0.2690
15203TIP3    H167024   3.956   0.204   5.315  1.0083 -1.1873 -1.7513
15203TIP3    H267025   3.864   0.284   5.225 -0.0588 -0.6808 -0.2527
15204TIP3   OH267026   3.542   4.542   5.280 -0.0470 -0.2590 -0.5616
15204TIP3    H167027   3.608   4.525   5.347 -0.1995 -2.7795 -0.9490
15204TIP3    H267028   3.583   4.514   5.198 -1.7184 -2.4510 -0.7346
15205TIP3   OH267029   3.265   5.198  12.499 -0.1378 -0.2107  0.3915
15205TIP3    H167030   3.254   5.286  12.463 -0.1882 -0.8058 -1.1328
15205TIP3    H267031   3.356   5.196  12.530  0.5859 -0.2554 -1.5414
15206TIP3   OH267032   3.040   2.717   5.821 -0.0854  1.1155  0.1602
15206TIP3    H167033   3.025   2.739   5.912  1.8312  0.3815  0.7187
15206TIP3    H267034   3.132   2.739   5.806  0.1353 -0.4459 -1.0557
15207TIP3   OH267035   2.073   3.530  16.959  0.1726 -0.4008 -0.0176
15207TIP3    H167036   1.993   3.550  16.910  0.8252 -0.1659 -1.0243
15207TIP3    H267037   2.050   3.546  17.050 -1.4499 -2.0325 -0.0930
15208TIP3   OH267038   2.218   0.336   3.254  0.7266  0.6392  0.2513
15208TIP3    H167039   2.292   0.280   3.277 -0.1674 -0.1165  1.3936
15208TIP3    H267040   2.159   0.278   3.207 -0.5316  0.3665  2.0549
15209TIP3   OH267041   4.429   6.377  17.238 -0.3769 -0.0585 -0.2627
15209TIP3    H167042   4.405   6.296  17.283  2.6516 -1.5180 -1.0103
15209TIP3    H267043   4.378   6.375  17.157 -2.1435  0.0613  0.8103
15210TIP3   OH267044   1.098   1.645   4.779  0.1700  0.1324 -0.5038
15210TIP3    H167045   1.094   1.597   4.861 -1.6453 -0.3362 -0.8213
15210TIP3    H267046   1.149   1.724   4.800  1.5828 -0.9979  0.4843
15211TIP3   OH267047   6.101   5.767   0.858 -0.3990 -0.1687  0.6669
15211TIP3    H167048   6.116   5.804   0.771 -1.2950 -0.0691  0.5402
15211TIP3    H267049   6.154   5.820   0.917  0.2820 -0.2862  0.1765
15212TIP3   OH267050   5.120   1.564   5.883  0.2594  0.0966 -0.0889
15212TIP3    H167051   5.097   1.488   5.937  0.4139 -0.8854 -1.3584
15212TIP3    H267052   5.036   1.594   5.847  0.3342 -0.1656 -0.4795
15213TIP3   OH267053   0.609   5.484   1.326  0.2071 -0.6184  0.3673
15213TIP3    H167054   0.531   5.461   1.275 -0.5609  1.1675  0.6631
15213TIP3    H267055   0.579   5.483   1.417  0.5333 -0.0029  0.4880
15214TIP3   OH267056   4.026   6.461   4.846  0.2502  0.3196  0.3026
15214TIP3    H167057   4.010   6.371   4.875  1.2063 -0.3241 -1.0879
15214TIP3    H267058   4.072   6.501   4.920 -1.1260  0.0108  1.3629
15215TIP3   OH267059   6.646   2.561  11.502 -0.1729 -0.0706  0.7904
15215TIP3    H167060   6.666   2.625  11.571  0.0871  1.6772 -0.8300
15215TIP3    H267061   6.732   2.530  11.473 -0.1431  1.1254 -0.4578
15216TIP3   OH267062   1.954   1.939  13.786  0.2084  0.1211 -0.3461
15216TIP3    H167063   1.988   1.916  13.700  1.7943  3.3243 -0.7284
15216TIP3    H267064   2.031   1.938  13.844  0.2182  2.7630 -0.1601
15217TIP3   OH267065   2.893   2.792   4.701 -0.4938  0.1489  0.3374
15217TIP3    H167066   2.814   2.846   4.702 -0.3754  0.3236  0.9721
15217TIP3    H267067   2.946   2.827   4.630 -0.5278  0.7183  0.5882
15218TIP3   OH267068   6.180   4.453  11.757 -0.1973 -0.1409 -0.1508
15218TIP3    H167069   6.087   4.437  11.745 -0.5460  1.0714  0.7233
15218TIP3    H267070   6.206   4.504  11.680 -0.4646  0.2791  0.0338
15219TIP3   OH267071   1.644   4.746   3.585 -0.2648 -0.1040 -0.0989
15219TIP3    H167072   1.610   4.699   3.509  0.3741 -2.5068  1.0055
15219TIP3    H267073   1.702   4.683   3.628  0.8759  1.8260  1.3594
15220TIP3   OH267074   1.975   1.612   5.729 -0.0180  0.0544 -0.1794
15220TIP3    H167075   1.886   1.581   5.715 -0.2682  0.2416  0.8984
15220TIP3    H267076   1.995   1.586   5.819  0.4992  1.2531  0.0658
15221TIP3   OH267077   0.038   0.419  16.607  0.1892  0.4332 -0.0915
15221TIP3    H167078  -0.032   0.378  16.657 -0.7808  3.1979  1.0079
15221TIP3    H267079   0.118   0.397  16.656 -0.2973 -0.0850  0.4871
15222TIP3   OH267080   4.877   6.640  16.722 -0.1639 -0.5885  0.3593
15222TIP3    H167081   4.797   6.596  16.749 -0.1671  0.1820  1.6765
15222TIP3    H267082   4.847   6.710  16.663 -0.4879 -0.2542  0.9095
15223TIP3   OH267083   0.263   0.093  16.152  0.0183 -0.3210  0.2780
15223TIP3    H167084   0.236   0.158  16.218  0.4834 -0.4946  0.6501
15223TIP3    H267085   0.228   0.010  16.184 -0.0041 -0.3567  0.1601
15224TIP3   OH267086   1.424   0.260   5.109  0.1867 -0.1368  0.2502
15224TIP3    H167087   1.494   0.248   5.174  1.0030  0.0207 -0.5880
15224TIP3    H267088   1.374   0.179   5.114  1.7154 -1.1933 -0.6519
15225TIP3   OH267089   3.325   0.812  15.686 -0.1942  0.4606  0.0105
15225TIP3    H167090   3.350   0.725  15.714 -1.0900  0.3309  0.4514
15225TIP3    H267091   3.230   0.807  15.673 -0.3781  1.5652  0.7861
15226TIP3   OH267092   4.992   3.902  11.832  0.1022  0.0774  0.7530
15226TIP3    H167093   4.913   3.898  11.886 -0.0995 -0.8423  0.4246
15226TIP3    H267094   4.975   3.838  11.762  0.5737  0.8515 -0.0904
15227TIP3   OH267095   3.981   0.787   5.415 -0.0251  0.5604 -0.0327
15227TIP3    H167096   3.970   0.798   5.321  0.7823  1.0943 -0.0674
15227TIP3    H267097   4.069   0.752   5.426  0.9059  2.9619  0.6661
15228TIP3   OH267098   4.387   5.132   1.876  0.7367 -0.0468 -0.0725
15228TIP3    H167099   4.414   5.223   1.884 -0.2001  0.2964 -0.5936
15228TIP3    H267100   4.411   5.107   1.787  1.6807 -0.5608  0.3143
15229TIP3   OH267101   0.885   4.490   0.714  0.2513 -0.3883 -0.3793
15229TIP3    H167102   0.953   4.553   0.737 -0.0672  0.5732 -1.9077
15229TIP3    H267103   0.821   4.497   0.785 -0.3404  1.8967 -1.0354
15230TIP3   OH267104   2.640   4.650  15.266  0.2588  0.3047 -0.0287
15230TIP3    H167105   2.593   4.647  15.182 -0.1280 -0.1271  0.1963
15230TIP3    H267106   2.727   4.615  15.246 -0.7179 -2.6270  0.2886
15231TIP3   OH267107   0.233   6.076   4.515 -0.0438 -0.5190 -0.2377
15231TIP3    H167108   0.165   6.011   4.535 -1.4513  1.0976  0.4248
15231TIP3    H267109   0.254   6.115   4.600  0.7556 -0.0701 -0.6374
15232TIP3   OH267110   4.358   6.226  16.353  0.0754  0.1394 -0.7912
15232TIP3    H167111   4.329   6.162  16.288  0.3588  0.9428 -1.7414
15232TIP3    H267112   4.447   6.248  16.327  0.5665 -0.2785  0.4902
15233TIP3   OH267113   5.322   3.346   1.185 -0.1120  0.0712 -0.1010
15233TIP3    H167114   5.333   3.332   1.091 -0.7587 -0.1755 -0.1463
15233TIP3    H267115   5.322   3.258   1.222  1.9361  0.2145  0.3629
15234TIP3   OH267116   0.033   3.594   1.736 -0.0041 -0.2369  0.2323
15234TIP3    H167117   0.004   3.668   1.684  0.2360 -1.4812 -1.7842
15234TIP3    H267118   0.071   3.633   1.815 -2.0155  1.6370  0.3513
15235TIP3   OH267119   4.926   5.529   3.438 -0.2943 -0.1560  0.3204
15235TIP3    H167120   5.018   5.524   3.463  0.0070 -1.5330 -0.8950
15235TIP3    H267121   4.928   5.541   3.343 -1.3862  1.1508  0.4339
15236TIP3   OH267122   5.268   1.634   5.627 -0.4588 -0.3074 -0.0200
15236TIP3    H167123   5.217   1.651   5.707 -1.0461  0.5191 -0.5575
15236TIP3    H267124   5.209   1.582   5.572 -0.7168  0.5859 -0.6112
15237TIP3   OH267125   4.507   1.810  12.076  0.4892  0.0507  0.2438
15237TIP3    H167126   4.457   1.838  11.999  0.3942 -1.4759 -0.2906
15237TIP3    H267127   4.592   1.853  12.066 -0.2804  1.7013  0.5224
15238TIP3   OH267128   1.000   3.925   2.019  0.0995 -0.1987  0.0410
15238TIP3    H167129   0.994   3.982   2.096  0.7038  1.7897 -1.3003
15238TIP3    H267130   0.976   3.838   2.051  0.9531  0.4312  2.6014
15239TIP3   OH267131   1.708   6.635   5.766  0.1725  0.4977 -0.2101
15239TIP3    H167132   1.642   6.685   5.718  1.3624 -0.7733 -3.4475
15239TIP3    H267133   1.658   6.579   5.825 -1.3981  1.9244 -0.1141
15240TIP3   OH267134   0.290   0.734   5.396 -0.8160  0.0982  0.1663
15240TIP3    H167135   0.307   0.820   5.359  0.1581  0.6813  1.8628
15240TIP3    H267136   0.375   0.689   5.395 -0.8756 -0.0609  1.1614
15241TIP3   OH267137   3.391   0.250  11.759  0.4110 -0.1403 -1.0334
15241TIP3    H167138   3.309   0.231  11.805  1.0989  1.1002  0.8422
15241TIP3    H267139   3.441   0.304  11.821  2.1370  0.1681 -2.6069
15242TIP3   OH267140   0.805   5.289  10.685 -0.2693 -0.1074  0.3416
15242TIP3    H167141   0.832   5.313  10.597  0.2853  1.8611  0.9947
15242TIP3    H267142   0.848   5.354  10.742  0.4829 -2.0958  2.1875
15243TIP3   OH267143   0.965   0.503   0.652 -0.0922  0.5770  0.6855
15243TIP3    H167144   0.911   0.578   0.676  0.8986  1.2219  0.9810
15243TIP3    H267145   0.911   0.427   0.673 -0.8268  1.1943  1.0909
15244TIP3   OH267146   4.046   1.167   2.299  0.6538 -0.2884 -0.0908
15244TIP3    H167147   3.990   1.090   2.306  0.6054 -0.1480  1.4150
15244TIP3    H267148   4.007   1.218   2.227 -1.4182 -0.0175  1.1428
15245TIP3   OH267149   2.756   0.494  14.877 -0.3314 -0.5533 -0.2497
15245TIP3    H167150   2.795   0.417  14.918 -0.3229 -0.0011  0.8070
15245TIP3    H267151   2.663   0.489  14.898 -0.4054 -0.5114 -0.5610
15246TIP3   OH267152   5.015   2.775   1.240 -0.1988  0.4575  0.8434
15246TIP3    H167153   4.977   2.863   1.251  0.7956  1.1238 -0.7093
15246TIP3    H267154   5.092   2.775   1.296 -0.6367  0.2755  1.4584
15247TIP3   OH267155   4.496   4.096   1.524 -0.6549 -0.1099 -0.7807
15247TIP3    H167156   4.442   4.147   1.586 -0.4932 -0.1779 -0.5842
15247TIP3    H267157   4.432   4.061   1.461 -0.6952  0.9421 -1.3598
15248TIP3   OH267158   2.594   4.365  12.164 -0.3436  0.3962  0.8158
15248TIP3    H167159   2.584   4.384  12.071 -1.1551  1.4403  1.0966
15248TIP3    H267160   2.670   4.307  12.169  0.8992  1.8553 -0.3121
15249TIP3   OH267161   4.060   3.690   0.971  0.7441  0.4110  0.4216
15249TIP3    H167162   4.120   3.735   1.031 -1.1624  0.0842  2.7039
15249TIP3    H267163   3.979   3.741   0.974  0.4437  0.1542 -1.6412
15250TIP3   OH267164   3.316   2.840  13.147 -0.5980  0.4249 -0.2115
15250TIP3    H167165   3.286   2.817  13.059 -0.9253 -0.7272  0.1843
15250TIP3    H267166   3.405   2.873  13.134 -0.8866  0.9101 -1.0405
15251TIP3   OH267167   2.529   0.392  17.147  0.1012  0.6934 -0.5599
15251TIP3    H167168   2.624   0.393  17.158  0.1805 -2.4033 -0.1897
15251TIP3    H267169   2.495   0.377  17.235 -0.9162  3.4192 -0.3986
15252TIP3   OH267170   5.462   5.258  17.030 -0.2163  0.6591 -0.3151
15252TIP3    H167171   5.552   5.287  17.044 -0.2318  0.8949 -0.6718
15252TIP3    H267172   5.409   5.333  17.057 -0.3321  0.3379  0.3802
15253TIP3   OH267173   4.485   5.186  16.058 -0.0873  0.1016  0.4643
15253TIP3    H167174   4.566   5.208  16.104  1.9251 -1.4848 -2.0385
15253TIP3    H267175   4.480   5.091  16.063 -1.6678  0.1596  0.3131
15254TIP3   OH267176   5.825   3.774  12.915  0.2904 -0.4318 -0.3259
15254TIP3    H167177   5.885   3.798  12.845 -0.1379  0.6635 -0.3286
15254TIP3    H267178   5.752   3.731  12.870 -1.8051  3.4956 -1.1183
15255TIP3   OH267179   6.687   1.255  14.255  0.0957  0.2338  0.1848
15255TIP3    H167180   6.596   1.229  14.268 -0.6707  2.6816  0.0954
15255TIP3    H267181   6.735   1.212  14.326 -1.3141 -0.0833  0.9706
15256TIP3   OH267182   3.455   2.255  13.543 -0.4672  0.1435  0.3786
15256TIP3    H167183   3.418   2.295  13.621  0.4942 -0.0129  0.9343
15256TIP3    H267184   3.449   2.161  13.559  0.9943  0.1153  0.9080
15257TIP3   OH267185   5.422   6.047   5.490  0.0308  0.4009  0.0376
15257TIP3    H167186   5.441   5.954   5.487 -0.9785  0.1870 -0.2492
15257TIP3    H267187   5.326   6.052   5.494  0.0942  1.4041  0.8741
15258TIP3   OH267188   3.137   1.736  13.043 -0.0490  0.2336 -0.2583
15258TIP3    H167189   3.179   1.665  13.091 -1.1090 -0.4687 -0.3242
15258TIP3    H267190   3.110   1.696  12.960 -2.4314  0.0936  0.4825
15259TIP3   OH267191   2.363   0.960   0.715  0.2348 -0.2757 -0.3369
15259TIP3    H167192   2.373   0.934   0.806 -1.8537 -1.7428 -0.4577
15259TIP3    H267193   2.401   0.889   0.664 -1.1899 -0.8965 -0.6008
15260TIP3   OH267194   5.406   5.717  15.802 -0.0377  0.3930 -0.2381
15260TIP3    H167195   5.428   5.810  15.802 -1.9641  0.8926 -0.9246
15260TIP3    H267196   5.325   5.711  15.752 -1.2242 -1.3624  1.7237
15261TIP3   OH267197   1.721   5.755   1.086 -0.1175 -0.0382  0.1550
15261TIP3    H167198   1.782   5.766   1.159  0.0637 -0.6820  0.1041
15261TIP3    H267199   1.726   5.838   1.038  2.4175 -0.8393 -1.1599
15262TIP3   OH267200   3.313   5.399  15.252  0.4992  0.1161 -0.6365
15262TIP3    H167201   3.258   5.437  15.320 -0.5219  0.5473 -1.6681
15262TIP3    H267202   3.362   5.473  15.216  2.0543 -0.3090  0.4862
15263TIP3   OH267203   0.866   4.153   4.021 -0.6142  0.0697 -0.5891
15263TIP3    H167204   0.948   4.105   4.029 -0.6701  0.2445  1.4218
15263TIP3    H267205   0.800   4.086   4.001 -0.2466 -0.2876 -0.6010
15264TIP3   OH267206   2.450   2.592  16.659 -0.1872 -0.1333 -0.3154
15264TIP3    H167207   2.422   2.683  16.647 -2.4753 -0.7599 -0.1487
15264TIP3    H267208   2.401   2.543  16.594 -0.9341 -1.5785  1.2680
15265TIP3   OH267209   3.986   0.058  16.229 -0.3979 -0.1174  0.5021
15265TIP3    H167210   3.973  -0.030  16.194  0.3536 -0.3107  0.6983
15265TIP3    H267211   4.019   0.044  16.318  1.0503  0.3460  0.0608
15266TIP3   OH267212   3.780   4.833  15.199  0.0782  0.3211 -0.1395
15266TIP3    H167213   3.838   4.893  15.246 -1.6306  0.7334  1.5913
15266TIP3    H267214   3.706   4.887  15.172 -0.1038 -0.4276 -1.1999
15267TIP3   OH267215   6.483   4.536   4.722 -0.0255 -0.0956  0.1510
15267TIP3    H167216   6.537   4.469   4.765 -0.0838 -0.0145  0.3528
15267TIP3    H267217   6.424   4.487   4.665  2.4765 -0.0715 -2.6849
15268TIP3   OH267218   2.075   6.718  11.864 -0.4746  0.0898  0.3706
15268TIP3    H167219   2.064   6.632  11.822  0.0013 -0.5174  1.4364
15268TIP3    H267220   2.169   6.724  11.881 -0.2189  1.6752 -1.3940
15269TIP3   OH267221   4.292   3.262  14.515  0.3598  0.2547  0.2878
15269TIP3    H167222   4.262   3.320  14.584 -2.7607  0.0013 -0.7146
15269TIP3    H267223   4.295   3.175  14.555  0.8775  0.4375  0.6655
15270TIP3   OH267224   5.355   4.985   4.630  0.0027  0.0536  0.2737
15270TIP3    H167225   5.409   5.053   4.590  0.4262 -1.3304 -1.7013
15270TIP3    H267226   5.415   4.913   4.647 -0.5952 -0.1958  1.4647
15271TIP3   OH267227   5.441   3.004  15.907 -0.3783 -0.9708 -0.0137
15271TIP3    H167228   5.382   3.062  15.954  0.3351 -1.3217  1.3797
15271TIP3    H267229   5.385   2.956  15.846 -1.1423  0.3779 -0.4128
15272TIP3   OH267230   6.483   3.155  14.473  0.2339 -0.1649  0.1287
15272TIP3    H167231   6.566   3.184  14.434  0.4406 -1.9403 -0.8686
15272TIP3    H267232   6.450   3.232  14.519  1.9382  0.8771 -0.2965
15273TIP3   OH267233   1.445   1.605   2.646  0.1981  0.0044 -0.0892
15273TIP3    H167234   1.515   1.668   2.629  0.4993 -0.1154  0.6858
15273TIP3    H267235   1.429   1.611   2.740 -0.1926 -0.6302 -0.1081
15274TIP3   OH267236   1.009   5.792   3.688  0.2604 -0.3747  0.1263
15274TIP3    H167237   0.916   5.785   3.709  0.6044 -1.4470  1.3871
15274TIP3    H267238   1.021   5.883   3.662 -0.6485  0.4655  2.4686
15275TIP3   OH267239   3.976   0.084   3.760  0.1639  0.4113  0.2021
15275TIP3    H167240   3.929   0.153   3.807 -0.3331  1.4776 -1.7544
15275TIP3    H267241   4.066   0.091   3.793 -0.2878  0.6888  1.4318
15276TIP3   OH267242   5.701   4.557  15.617 -0.2642  0.3187  0.3968
15276TIP3    H167243   5.737   4.572  15.529 -2.5316  0.6505 -0.5399
15276TIP3    H267244   5.776   4.566  15.675  1.1800  0.8183 -1.4455
15277TIP3   OH267245   1.364   1.466  14.643  0.2904  0.4486  0.4245
15277TIP3    H167246   1.324   1.552  14.652 -0.8348  0.0809 -0.7828
15277TIP3    H267247   1.408   1.451  14.727 -1.1412  1.3517  1.3697
15278TIP3   OH267248   6.474   1.637  13.014  0.0946 -0.1123  0.1035
15278TIP3    H167249   6.466   1.589  12.932 -1.8606 -1.1183  0.8039
15278TIP3    H267250   6.410   1.708  13.006  0.1652  0.0115  0.6174
15279TIP3   OH267251   5.244   2.996   3.071 -0.4672  0.6815  0.0133
15279TIP3    H167252   5.253   3.070   3.130  0.5621  0.4490  0.1710
15279TIP3    H267253   5.248   3.035   2.983  1.5169  0.7091  0.0714
15280TIP3   OH267254   4.980   4.784   3.118  0.2235 -0.1260  0.5907
15280TIP3    H167255   4.891   4.781   3.083  1.5064  0.6892 -3.2248
15280TIP3    H267256   5.019   4.700   3.092  1.0980  0.2910  0.5162
15281TIP3   OH267257   2.508   3.161  17.040 -0.2355  0.0559  0.6017
15281TIP3    H167258   2.509   3.192  17.130 -0.2784  1.7435  0.0397
15281TIP3    H267259   2.427   3.196  17.003 -0.4958 -1.0728  0.0306
15282TIP3   OH267260   3.200   4.597   2.425  0.1541  0.3349 -0.3660
15282TIP3    H167261   3.242   4.671   2.469 -0.5234 -0.1138  1.0989
15282TIP3    H267262   3.193   4.530   2.493  1.0354 -1.2213 -1.7506
15283TIP3   OH267263   4.496   5.857   3.148  0.3705  0.1101  0.2288
15283TIP3    H167264   4.565   5.845   3.082  0.1458  1.5052 -0.2880
15283TIP3    H267265   4.428   5.907   3.103 -0.7825 -0.8182  0.8793
15284TIP3   OH267266   2.346   6.693  11.890 -0.2095 -0.0100 -0.3041
15284TIP3    H167267   2.426   6.692  11.942  2.7066 -0.9480 -4.3099
15284TIP3    H267268   2.349   6.777  11.843 -0.6884 -0.7117 -1.6541
15285TIP3   OH267269   5.839   4.897   1.112 -0.1973 -0.0748  0.1219
15285TIP3    H167270   5.769   4.836   1.089 -1.5453  1.0338  1.1023
15285TIP3    H267271   5.918   4.843   1.116 -0.8617 -1.2657 -1.5789
15286TIP3   OH267272   5.984   4.369   0.520 -0.4030 -0.2168 -0.0333
15286TIP3    H167273   6.071   4.333   0.502  0.1787  1.0024  0.2258
15286TIP3    H267274   5.923   4.308   0.479  0.6243 -0.5878 -1.0534
15287TIP3   OH267275   4.221   4.828  15.216  0.0895  0.0740  0.2768
15287TIP3    H167276   4.175   4.800  15.137 -0.3523 -0.4683  0.7137
15287TIP3    H267277   4.314   4.826  15.192 -0.1373  2.5088 -1.0352
15288TIP3   OH267278   0.593   6.100  14.550  0.0206  0.0285 -0.5741
15288TIP3    H167279   0.682   6.132  14.540 -0.5586  1.5113 -1.2320
15288TIP3    H267280   0.551   6.162  14.610 -1.0718  0.4628 -1.7314
15289TIP3   OH267281   5.569   1.030   1.600  0.0780 -0.3798  0.3721
15289TIP3    H167282   5.545   1.015   1.692  0.2628  0.2137  0.5185
15289TIP3    H267283   5.494   1.075   1.562  0.6636  0.8972  0.6684
15290TIP3   OH267284   5.155   0.582   2.736  0.3074 -0.0001  0.1264
15290TIP3    H167285   5.134   0.508   2.679 -1.7496  1.4352 -1.1440
15290TIP3    H267286   5.191   0.648   2.677 -1.9624  1.5529  0.3215
15291TIP3   OH267287   4.574   2.719   6.232 -0.7271  0.0020  0.0453
15291TIP3    H167288   4.508   2.671   6.281  2.2841  0.0464  4.7626
15291TIP3    H267289   4.643   2.655   6.215  0.1239  0.9947 -0.3351
15292TIP3   OH267290   5.947   3.312   4.107  0.0673  0.4145 -0.1667
15292TIP3    H167291   5.912   3.340   4.192 -1.4986 -0.3544 -0.5161
15292TIP3    H267292   5.901   3.230   4.088  0.2587  0.6607 -1.8510
15293TIP3   OH267293   3.945   3.173  16.643 -0.0620 -0.3725  0.4251
15293TIP3    H167294   4.022   3.157  16.589  0.3096 -0.8092  1.0768
15293TIP3    H267295   3.879   3.112  16.609  0.3670 -1.0931  0.8662
15294TIP3   OH267296   1.448   5.911  13.509 -0.7748 -0.0206  0.2895
15294TIP3    H167297   1.517   5.896  13.444 -0.4159  1.5299  0.2754
15294TIP3    H267298   1.421   5.823  13.536  1.8215 -0.6931  0.9530
15295TIP3   OH267299   6.521   1.202  14.980 -0.5687 -0.1964  0.2442
15295TIP3    H167300   6.556   1.160  14.901 -1.3070  0.5016 -0.4627
15295TIP3    H267301   6.528   1.134  15.048 -0.1748 -0.8912 -0.4763
15296TIP3   OH267302   1.608   5.320  11.485  0.0123  0.1796  0.1181
15296TIP3    H167303   1.681   5.267  11.453 -0.1311  0.1570 -0.1750
15296TIP3    H267304   1.649   5.397  11.525  0.2104 -0.0105  0.2873
15297TIP3   OH267305   3.057   2.273  14.980  0.2297 -0.2548 -0.0011
15297TIP3    H167306   3.040   2.228  15.063  0.7109 -0.6984 -0.1393
15297TIP3    H267307   3.148   2.301  14.986  0.3473 -0.5222 -0.4865
15298TIP3   OH267308   1.495   6.400   3.046 -0.5311 -0.7965 -0.1656
15298TIP3    H167309   1.566   6.418   3.107 -0.0917  0.8253 -1.1123
15298TIP3    H267310   1.536   6.347   2.977  0.3877  1.9102 -1.8304
15299TIP3   OH267311   3.895   5.771  12.735 -0.3130  0.4459  0.2355
15299TIP3    H167312   3.802   5.756  12.747 -0.0989 -0.0803  1.3171
15299TIP3    H267313   3.904   5.790  12.642 -1.4406  0.0734  0.0346
15300TIP3   OH267314   2.177   1.221   0.751 -0.4523  0.6485  0.5588
15300TIP3    H167315   2.245   1.166   0.713  1.4228  1.1130  2.9856
15300TIP3    H267316   2.095   1.178   0.728  0.7751 -1.2693 -0.4674
15301TIP3   OH267317   1.121   5.948   2.996  0.1724  0.7923  0.0987
15301TIP3    H167318   1.145   6.035   3.026 -0.2045  1.2441 -0.8637
15301TIP3    H267319   1.098   5.900   3.075  0.9660  1.3737  0.7001
15302TIP3   OH267320   4.100   6.279  14.319  0.3010  0.1207 -0.1610
15302TIP3    H167321   4.072   6.243  14.403 -0.0564  1.4747  0.3217
15302TIP3    H267322   4.117   6.372  14.336 -2.7553  1.2165 -2.2154
15303TIP3   OH267323   6.308   4.947   4.971 -0.2760  0.3503  0.4043
15303TIP3    H167324   6.332   4.896   5.048 -0.2830  1.6746  1.3334
15303TIP3    H267325   6.260   4.886   4.916 -0.8341 -0.4912  1.7513
15304TIP3   OH267326   4.051   1.907  11.433  0.4630  0.2134 -0.4649
15304TIP3    H167327   4.133   1.895  11.481 -1.5054 -1.9832  2.7340
15304TIP3    H267328   4.046   1.831  11.376  0.5955  0.3372 -0.6459
15305TIP3   OH267329   3.646   4.996   4.995 -0.4743  0.1155 -0.2511
15305TIP3    H167330   3.694   5.073   5.025 -1.9476  0.1509  2.3235
15305TIP3    H267331   3.653   4.933   5.066 -1.8435 -0.9604 -1.0014
15306TIP3   OH267332   5.026   5.094  12.608 -0.6146 -0.7417  0.3800
15306TIP3    H167333   4.938   5.087  12.646 -0.9686 -0.0889 -0.2969
15306TIP3    H267334   5.078   5.031  12.657 -1.5396 -1.3746  0.5756
15307TIP3   OH267335   3.191   5.245   4.012 -0.1121 -0.1764 -0.8491
15307TIP3    H167336   3.166   5.169   3.959 -1.9556  0.6262 -1.2079
15307TIP3    H267337   3.260   5.288   3.962  2.2266 -2.4804  0.1692
15308TIP3   OH267338   3.963   6.152  16.481 -0.1707 -0.0715 -0.0571
15308TIP3    H167339   3.966   6.078  16.420 -0.9108 -0.9056  0.8887
15308TIP3    H267340   4.051   6.155  16.519 -0.1061 -0.4143 -0.1711
15309TIP3   OH267341   4.428   2.105  13.725  0.5686  0.6202  0.1552
15309TIP3    H167342   4.363   2.175  13.733  1.2617  1.1432  1.5192
15309TIP3    H267343   4.377   2.025  13.729  0.0764  0.9419  3.5157
15310TIP3   OH267344   1.768   3.069  11.410 -0.0276  0.0764 -0.5177
15310TIP3    H167345   1.727   2.993  11.368 -0.4572  0.5800 -1.0172
15310TIP3    H267346   1.766   3.048  11.504 -1.1123 -0.0754 -0.5567
15311TIP3   OH267347   0.303   2.548  12.111 -0.4560 -0.0378 -0.4072
15311TIP3    H167348   0.214   2.514  12.100 -0.7059  0.2809  0.5445
15311TIP3    H267349   0.346   2.527  12.028 -2.0576  1.7652 -1.7924
15312TIP3   OH267350   3.424   1.744   5.726  0.1810 -0.2767  0.0566
15312TIP3    H167351   3.481   1.799   5.779 -0.6801  0.0920  0.6357
15312TIP3    H267352   3.357   1.804   5.693 -0.8412 -0.9659  0.7876
15313TIP3   OH267353   1.315   4.427   2.579  0.3577 -0.3594 -0.1580
15313TIP3    H167354   1.229   4.467   2.563  0.3783 -0.6493 -1.0425
15313TIP3    H267355   1.317   4.412   2.673  0.1934  1.3732  0.1579
15314TIP3   OH267356   1.047   0.877  14.921  0.4140 -0.9436  0.8410
15314TIP3    H167357   0.985   0.924  14.977  1.6888 -0.1021  1.5902
15314TIP3    H267358   1.030   0.910  14.833 -0.3039 -0.8309  1.0184
15315TIP3   OH267359   4.622   0.317   1.030  0.3945 -0.7262 -0.2445
15315TIP3    H167360   4.533   0.343   1.009  0.6655  0.5078  0.0167
15315TIP3    H267361   4.614   0.257   1.103 -0.2235 -0.5542 -0.1687
15316TIP3   OH267362   3.415   0.568   3.053  0.1608  0.4246 -0.4068
15316TIP3    H167363   3.485   0.564   2.988  0.0726  0.0635 -0.4819
15316TIP3    H267364   3.346   0.512   3.017  0.6333 -0.8802  0.6205
15317TIP3   OH267365   4.471   5.218  16.443 -0.2413 -0.7466  1.0539
15317TIP3    H167366   4.478   5.131  16.405  0.6443 -0.9884  1.7279
15317TIP3    H267367   4.453   5.202  16.536 -1.9410 -0.1765  0.8669
15318TIP3   OH267368   0.425   3.466  12.173 -0.7683  0.1166 -0.3247
15318TIP3    H167369   0.371   3.544  12.165 -1.8683 -0.5723  0.2089
15318TIP3    H267370   0.479   3.466  12.094 -1.2150  1.0682 -0.6427
15319TIP3   OH267371   3.972   6.727  11.285  0.1094  0.0578  0.0601
15319TIP3    H167372   3.878   6.731  11.266 -0.2022  1.3772  1.6360
15319TIP3    H267373   4.006   6.662  11.224 -1.8687 -0.6277 -0.3910
15320TIP3   OH267374   0.967   5.088  15.732 -0.0381  0.1044 -0.6008
15320TIP3    H167375   1.058   5.096  15.701  0.0921  0.5812 -0.1086
15320TIP3    H267376   0.964   5.142  15.811 -0.8491  0.3886 -0.8180
15321TIP3   OH267377   0.749   4.259  14.828 -0.2191  0.2502 -0.5743
15321TIP3    H167378   0.671   4.265  14.883 -1.6251  0.6804 -2.4803
15321TIP3    H267379   0.763   4.348  14.796  1.0476  0.1691 -0.2977
15322TIP3   OH267380   3.205   1.109   5.036 -0.2716  0.1562 -0.2276
15322TIP3    H167381   3.138   1.140   4.975  0.0656  0.6415 -0.3613
15322TIP3    H267382   3.159   1.050   5.095 -1.5315  2.8220  1.6599
15323TIP3   OH267383   3.939   0.353   3.822  0.0881 -0.2242  0.0778
15323TIP3    H167384   4.021   0.382   3.782 -0.9560  0.0458 -1.9933
15323TIP3    H267385   3.880   0.428   3.813 -0.9967 -1.1000 -0.3390
15324TIP3   OH267386   4.653   2.193  12.925 -0.5790 -0.3204 -0.1449
15324TIP3    H167387   4.709   2.156  12.857  1.4083 -0.1012  1.2868
15324TIP3    H267388   4.570   2.211  12.880  0.7519  0.1943 -2.5961
15325TIP3   OH267389   5.282   2.396  12.055  0.8501 -0.4041 -0.1643
15325TIP3    H167390   5.291   2.491  12.046  1.2440 -0.4607 -0.4132
15325TIP3    H267391   5.229   2.369  11.980  3.7087 -0.8104 -2.2045
15326TIP3   OH267392   5.819   3.733  12.040  0.6964 -0.1021  0.0155
15326TIP3    H167393   5.880   3.667  12.007  0.8862  0.6940 -1.2936
15326TIP3    H267394   5.825   3.725  12.136  2.6469 -0.2517 -0.0691
15327TIP3   OH267395   1.192   4.934   0.116 -0.0143 -0.1040  0.1071
15327TIP3    H167396   1.244   5.013   0.123 -1.1939  0.9268 -1.8495
15327TIP3    H267397   1.163   4.933   0.025 -3.3205 -0.6464  1.0543
15328TIP3   OH267398   6.238   1.063   0.340 -0.3914  0.2132  0.0678
15328TIP3    H167399   6.333   1.064   0.324 -0.3019  0.0338  0.5654
15328TIP3    H267400   6.224   1.132   0.405 -0.6546  0.4676 -0.2541
15329TIP3   OH267401   4.776   5.055  10.597  0.5456 -0.2220 -0.2024
15329TIP3    H167402   4.718   5.011  10.536  0.7397 -0.2842 -0.3428
15329TIP3    H267403   4.739   5.036  10.683 -1.3777  2.1783 -0.3828
15330TIP3   OH267404   4.156   5.585   5.810  0.3078  0.2841  0.2977
15330TIP3    H167405   4.171   5.563   5.902 -1.9470 -1.6480  0.3185
15330TIP3    H267406   4.078   5.640   5.810  0.3509  0.3622 -0.4390
15331TIP3   OH267407   4.435   5.047   4.784  0.2601 -0.1433 -0.4993
15331TIP3    H167408   4.457   5.078   4.696 -0.2310  0.3537 -0.4530
15331TIP3    H267409   4.520   5.041   4.828  0.5385 -0.6708 -1.0876
15332TIP3   OH267410   4.710   2.068  16.565 -0.6685 -0.3355  0.1240
15332TIP3    H167411   4.755   2.101  16.488  0.4193  1.9362  1.6349
15332TIP3    H267412   4.617   2.084  16.547 -0.4595 -0.2063 -0.8709
15333TIP3   OH267413   2.372   1.350  16.225 -0.1868 -0.2890 -0.0128
15333TIP3    H167414   2.293   1.311  16.262  0.2243 -1.5742 -0.4258
15333TIP3    H267415   2.416   1.392  16.299 -1.2406  0.4471  0.2169
15334TIP3   OH267416   3.377   3.837   4.498 -0.7864 -0.1154 -0.4959
15334TIP3    H167417   3.345   3.918   4.539  1.1337  0.5068 -0.1083
15334TIP3    H267418   3.410   3.865   4.413 -0.3238 -0.5274 -0.4543
15335TIP3   OH267419   1.330   1.408   3.669 -0.0301  0.0620  0.3361
15335TIP3    H167420   1.282   1.388   3.749  1.0276  3.5133  2.0297
15335TIP3    H267421   1.422   1.390   3.691  0.0099 -2.1765 -1.3422
15336TIP3   OH267422   3.491   6.593   5.397  0.1990 -0.1608 -0.7175
15336TIP3    H167423   3.469   6.636   5.479  2.8768  1.0174 -0.5342
15336TIP3    H267424   3.518   6.505   5.423 -1.5546 -0.7422 -0.6953
15337TIP3   OH267425   5.928   6.512   3.503 -0.0428 -0.0507 -0.4288
15337TIP3    H167426   5.902   6.460   3.578 -1.8910 -2.8284 -2.7985
15337TIP3    H267427   6.023   6.499   3.496 -0.2279 -1.7866  0.0063
15338TIP3   OH267428   2.672   2.867  13.314 -0.1061 -0.3826  0.3081
15338TIP3    H167429   2.695   2.846  13.405 -1.1061  0.2242  0.7086
15338TIP3    H267430   2.615   2.943  13.320 -1.2886 -1.1463 -0.7307
15339TIP3   OH267431   3.804   1.414   4.099 -0.0157  0.1584 -0.0743
15339TIP3    H167432   3.746   1.421   4.023  0.6522  3.3870 -0.4269
15339TIP3    H267433   3.878   1.361   4.069 -2.1970 -3.3215  0.1296
15340TIP3   OH267434   5.706   1.480  14.900  0.4500  0.6149  0.5250
15340TIP3    H167435   5.745   1.393  14.903 -1.2977 -0.3216 -1.1994
15340TIP3    H267436   5.679   1.498  14.990 -2.3733 -2.2855  0.4356
15341TIP3   OH267437   1.671   1.259   0.011  0.5533  0.5460  0.2590
15341TIP3    H167438   1.704   1.340   0.051 -0.6588  0.6864  1.0177
15341TIP3    H267439   1.613   1.289  -0.059  0.0881  0.3276  0.5530
15342TIP3   OH267440   0.188   0.894  10.924  0.2248  0.1875  0.0296
15342TIP3    H167441   0.203   0.820  10.864  2.8626  2.4405 -2.3812
15342TIP3    H267442   0.270   0.903  10.971  0.3273  2.1714 -0.4713
15343TIP3   OH267443   5.320   3.896   0.136  0.1842  0.0680  0.0159
15343TIP3    H167444   5.379   3.955   0.089 -1.4677  0.9224 -1.0978
15343TIP3    H267445   5.233   3.916   0.101 -0.7038 -1.5969  1.1126
15344TIP3   OH267446   5.050   6.311  13.454  0.2690 -0.1078  0.2049
15344TIP3    H167447   4.999   6.390  13.471  1.6421  0.3192  2.8710
15344TIP3    H267448   4.999   6.240  13.493 -0.0311 -0.2456 -0.4340
15345TIP3   OH267449   0.715   5.939   5.938  0.0757 -0.4149 -0.1208
15345TIP3    H167450   0.716   5.982   6.024 -0.5338  0.4695 -0.5381
15345TIP3    H267451   0.761   5.857   5.952  1.7933  0.6246  0.5734
15346TIP3   OH267452   6.418   3.216  16.176  0.0085 -0.4016  0.0575
15346TIP3    H167453   6.454   3.259  16.253 -0.3112 -1.1002  0.6165
15346TIP3    H267454   6.434   3.123  16.191  1.5872 -0.4325 -1.5934
15347TIP3   OH267455   3.853   5.184   4.246  0.4354  0.1425  0.1297
15347TIP3    H167456   3.945   5.187   4.219  0.8079  3.2055  1.3192
15347TIP3    H267457   3.849   5.112   4.308  2.1676  0.1882  0.3502
15348TIP3   OH267458   2.335   1.075   1.280 -0.4718  0.0147 -0.2371
15348TIP3    H167459   2.359   1.111   1.365  0.1233 -0.8114 -0.0345
15348TIP3    H267460   2.381   0.991   1.276 -1.2311 -0.3837 -0.9844
15349TIP3   OH267461   4.300   3.385   4.718 -0.3088  0.5754  0.3490
15349TIP3    H167462   4.359   3.459   4.704 -1.4241  1.3389 -0.4555
15349TIP3    H267463   4.328   3.319   4.655 -0.5711  1.1000 -0.3243
15350TIP3   OH267464   5.981   6.170  17.295 -0.2214  0.1485  0.8287
15350TIP3    H167465   5.901   6.152  17.344 -0.6725 -0.8962 -0.2406
15350TIP3    H267466   5.974   6.116  17.216  1.0473  0.8486  0.1987
15351TIP3   OH267467   6.351   6.528   2.003 -0.9893  0.0965 -0.5786
15351TIP3    H167468   6.376   6.436   1.997 -0.6519  0.2817 -3.6752
15351TIP3    H267469   6.431   6.576   1.981 -1.9936  0.9515 -2.6410
15352TIP3   OH267470   0.417   1.160  15.301 -0.1587  0.0380 -0.5540
15352TIP3    H167471   0.490   1.106  15.331  0.0984  0.2383 -0.8065
15352TIP3    H267472   0.358   1.099  15.258 -1.1822 -0.4694  1.4804
15353TIP3   OH267473   6.014   2.294  16.871  0.0525  0.2819 -0.6527
15353TIP3    H167474   6.065   2.216  16.896 -0.2646  0.2096 -0.2138
15353TIP3    H267475   6.080   2.355  16.838  0.3896  0.0687 -0.3879
15354TIP3   OH267476   0.942   6.350  14.223  0.0604  0.7133 -0.4613
15354TIP3    H167477   0.999   6.302  14.283  0.8181  1.6748 -0.4048
15354TIP3    H267478   0.863   6.368  14.274 -0.3610 -0.6818 -0.5659
15355TIP3   OH267479   2.025   5.620  14.061  0.0433  0.1871  0.2923
15355TIP3    H167480   2.065   5.608  13.975  1.1335 -1.1100  0.9362
15355TIP3    H267481   2.098   5.615  14.122 -0.9970 -1.6209  1.4761
15356TIP3   OH267482   3.266   6.249   0.900  0.2945  0.0759  0.3189
15356TIP3    H167483   3.285   6.169   0.950  1.6589  1.6891  2.5760
15356TIP3    H267484   3.172   6.263   0.912 -0.0293 -1.2797 -0.3542
15357TIP3   OH267485   1.483   5.889   4.949  0.4076  0.4699 -0.2793
15357TIP3    H167486   1.418   5.870   5.017  1.2978 -1.2323  0.1526
15357TIP3    H267487   1.566   5.860   4.986  1.2346  1.4005 -1.3237
15358TIP3   OH267488   0.163   0.496  12.622 -0.2076 -0.2847 -0.1269
15358TIP3    H167489   0.163   0.450  12.539  0.4404 -2.9831  1.2748
15358TIP3    H267490   0.255   0.519  12.637 -0.4699  1.2449 -0.6269
15359TIP3   OH267491   1.165   5.005   3.958 -0.3938  0.6053  0.0209
15359TIP3    H167492   1.260   4.998   3.948 -0.5930 -1.9779 -1.0003
15359TIP3    H267493   1.151   5.017   4.052  0.9357  1.3935  0.1352
15360TIP3   OH267494   4.272   2.817  11.244  0.2215 -0.1850 -0.4746
15360TIP3    H167495   4.336   2.818  11.173  1.7870 -3.1787  0.7177
15360TIP3    H267496   4.322   2.843  11.321 -0.8934  0.7779 -0.0492
15361TIP3   OH267497   1.587   5.965  12.402  0.2258  0.3547  0.1846
15361TIP3    H167498   1.636   5.962  12.484  1.6141  2.3156 -0.4952
15361TIP3    H267499   1.537   6.046  12.407  0.7023  0.7500 -1.0736
15362TIP3   OH267500   5.925   1.617  11.919 -0.2534  0.0884 -0.9755
15362TIP3    H167501   5.947   1.692  11.864 -1.8203  0.5066 -1.0701
15362TIP3    H267502   5.874   1.560  11.862 -1.8308  0.4854 -0.0114
15363TIP3   OH267503   0.774   3.254  11.306 -0.5103  0.2523  0.5874
15363TIP3    H167504   0.791   3.190  11.375 -2.4312  3.5875  4.5800
15363TIP3    H267505   0.847   3.316  11.313 -1.3270  1.2487  0.4500
15364TIP3   OH267506   1.096   0.733   2.982  0.0758  0.4497  0.0981
15364TIP3    H167507   1.060   0.814   2.947 -0.3954  0.5727  0.8564
15364TIP3    H267508   1.123   0.683   2.904 -1.5901  0.4035 -0.4780
15365TIP3   OH267509   0.750   5.293   4.483  0.1476 -0.4733  1.0786
15365TIP3    H167510   0.730   5.371   4.432  1.0918  0.4720  2.0826
15365TIP3    H267511   0.712   5.310   4.569  0.6895 -0.9428  1.4187
15366TIP3   OH267512   1.970   6.735  14.222  0.1109  0.3244 -0.3501
15366TIP3    H167513   1.903   6.793  14.185 -1.4464 -0.5892  0.8911
15366TIP3    H267514   2.000   6.779  14.301 -0.3306 -0.0747  0.0459
15367TIP3   OH267515   5.367   1.704   4.171 -0.2098  0.0605  0.2851
15367TIP3    H167516   5.295   1.727   4.229 -1.1308 -0.2920 -0.6833
15367TIP3    H267517   5.369   1.608   4.173  0.0830  0.0627  0.1309
15368TIP3   OH267518   2.364   4.169  15.401 -0.0851 -0.2296 -0.0367
15368TIP3    H167519   2.274   4.185  15.429  0.0969 -0.1404  0.5027
15368TIP3    H267520   2.392   4.093  15.452  0.1311 -0.2850 -0.2343
15369TIP3   OH267521   0.568   4.331  16.845  0.2482  0.1858  0.1642
15369TIP3    H167522   0.649   4.304  16.888  2.4118  3.7702 -1.2184
15369TIP3    H267523   0.590   4.335  16.752 -1.1735  2.1330 -0.1617
15370TIP3   OH267524   5.928   5.903   1.972  0.0306 -0.1951  0.0160
15370TIP3    H167525   5.891   5.846   2.039 -1.1406  0.3495 -0.1438
15370TIP3    H267526   5.852   5.933   1.921  0.7586  0.4733 -0.7030
15371TIP3   OH267527   5.153   2.947   2.274  0.2733 -0.0419 -0.0215
15371TIP3    H167528   5.231   2.961   2.220  0.9155 -2.3549  0.2139
15371TIP3    H267529   5.080   2.961   2.214  0.8824  0.7401 -0.6083
15372TIP3   OH267530   4.184   0.087   0.997  0.4724  0.0151  0.0419
15372TIP3    H167531   4.096   0.051   0.982  0.7685 -0.3171 -0.9812
15372TIP3    H267532   4.173   0.146   1.072 -0.1305 -1.7719  1.4266
15373TIP3   OH267533   6.752   1.056   0.480  0.2270  0.1012  0.2341
15373TIP3    H167534   6.735   1.035   0.571 -0.0761  0.0607  0.1686
15373TIP3    H267535   6.839   1.096   0.480  0.4231 -0.3251  0.4789
15374TIP3   OH267536   2.998   4.464  14.297 -0.3080 -0.0344  0.0695
15374TIP3    H167537   2.995   4.384  14.349 -1.7507 -0.4429 -0.5967
15374TIP3    H267538   2.995   4.434  14.206  0.1197  0.7392 -0.2122
15375TIP3   OH267539   5.407   5.953  14.399  0.6150  0.2352 -0.6698
15375TIP3    H167540   5.340   5.994  14.345  1.5866  1.7823 -0.7823
15375TIP3    H267541   5.426   5.870  14.356  2.0649  1.8187 -3.3919
15376TIP3   OH267542   1.421   0.529   4.687  0.2546 -0.1424 -0.3946
15376TIP3    H167543   1.442   0.515   4.594 -0.6399  0.5949 -0.7176
15376TIP3    H267544   1.491   0.483   4.734  1.4540  0.5775 -1.4224
15377TIP3   OH267545   5.920   4.895   5.459  0.2164 -0.1024  0.1540
15377TIP3    H167546   5.955   4.811   5.432  1.0011  0.2530  0.0353
15377TIP3    H267547   5.956   4.958   5.397  0.7314  0.4983  1.0271
15378TIP3   OH267548   6.576   1.811  14.747 -0.4437 -0.0533  0.0846
15378TIP3    H167549   6.528   1.833  14.827 -2.0369  0.3141 -0.9090
15378TIP3    H267550   6.593   1.717  14.754 -0.2032  0.0497  1.0249
15379TIP3   OH267551   3.442   5.414  16.101 -0.0421  0.3337  0.0589
15379TIP3    H167552   3.464   5.394  16.010  0.1887  2.0677 -0.2866
15379TIP3    H267553   3.384   5.342  16.128 -0.0670 -0.2310 -1.4283
15380TIP3   OH267554   5.040   5.905  14.183  0.2119  0.5809 -0.2203
15380TIP3    H167555   5.088   5.972  14.133  1.2510 -0.6817 -0.9688
15380TIP3    H267556   5.084   5.902  14.268  1.8780 -0.9197 -1.0699
15381TIP3   OH267557   1.441   6.147   3.613  0.2264  0.4168  0.8441
15381TIP3    H167558   1.418   6.062   3.575 -1.4487  0.6859  1.1675
15381TIP3    H267559   1.489   6.193   3.544 -0.5844 -0.0474 -0.0430
15382TIP3   OH267560   1.454   4.540  12.938  0.6145  0.5495 -0.2493
15382TIP3    H167561   1.433   4.512  12.848 -0.6821 -2.2016  0.7898
15382TIP3    H267562   1.547   4.518  12.948  0.9083  1.3500 -1.0370
15383TIP3   OH267563   0.079   5.887   4.106 -0.5086  0.4437  0.0054
15383TIP3    H167564   0.073   5.982   4.115 -1.3200  0.4410 -0.3874
15383TIP3    H267565   0.173   5.869   4.106 -0.3487  1.1919  0.5886
15384TIP3   OH267566   1.751   1.267   1.725 -0.3675 -0.0860  0.5277
15384TIP3    H167567   1.754   1.245   1.818 -0.7530 -0.9450  0.3529
15384TIP3    H267568   1.818   1.334   1.714  0.0198 -0.3185  1.3342
15385TIP3   OH267569   5.398   5.880   2.186  0.2114  0.2756 -0.1666
15385TIP3    H167570   5.415   5.853   2.276 -0.3364  1.6115  0.3524
15385TIP3    H267571   5.384   5.797   2.139  1.6746 -0.5104  0.6933
15386TIP3   OH267572   1.842   5.773  11.513  0.1212  0.3311 -0.1566
15386TIP3    H167573   1.928   5.795  11.478  0.5169 -1.3325 -0.3269
15386TIP3    H267574   1.858   5.701  11.573 -1.1115  0.2206  0.0692
15387TIP3   OH267575   4.164   4.364  10.209  0.0105 -0.1600 -0.3711
15387TIP3    H167576   4.152   4.300  10.279 -0.1291  0.2280 -0.0349
15387TIP3    H267577   4.163   4.449  10.254 -0.6888  0.1266 -0.9184
15388TIP3   OH267578   1.868   2.688   1.234  0.1488 -0.2484  0.1780
15388TIP3    H167579   1.795   2.727   1.186  0.8974 -0.3940 -1.1317
15388TIP3    H267580   1.930   2.662   1.166  1.1869 -0.6113  1.2309
15389TIP3   OH267581   2.661   0.082  14.486 -0.1291 -0.4043 -0.0015
15389TIP3    H167582   2.654   0.083  14.581  1.7884 -0.7187  0.1814
15389TIP3    H267583   2.754   0.091  14.468 -0.4752 -0.0225 -1.8712
15390TIP3   OH267584   0.145   2.081  14.870 -0.6531 -0.2098 -0.4096
15390TIP3    H167585   0.180   2.071  14.959 -2.0446  2.0419  0.4996
15390TIP3    H267586   0.187   2.160  14.837 -1.8939  0.3344 -0.7751
15391TIP3   OH267587   4.737   4.854  14.751  0.3424  0.1446  0.1582
15391TIP3    H167588   4.810   4.907  14.784 -0.2945 -0.1484  2.1573
15391TIP3    H267589   4.687   4.915  14.697  0.7046  1.0538  0.8137
15392TIP3   OH267590   1.467   5.487  17.072  0.3040 -0.1701  0.5633
15392TIP3    H167591   1.496   5.579  17.079  1.5750 -0.4924 -0.0717
15392TIP3    H267592   1.446   5.476  16.979 -1.0563 -0.2018  0.8584
15393TIP3   OH267593   3.435   5.640  15.220  0.1685 -0.0744 -0.1748
15393TIP3    H167594   3.377   5.638  15.144 -0.7204 -1.5685  0.4900
15393TIP3    H267595   3.510   5.586  15.194 -0.4748 -1.2069  0.2120
15394TIP3   OH267596   3.390   1.483   4.973 -0.3488  0.6970  0.6333
15394TIP3    H167597   3.336   1.456   4.899 -1.5625  1.5813  1.1469
15394TIP3    H267598   3.476   1.501   4.936 -0.6969  0.2773 -0.4002
15395TIP3   OH267599   5.395   1.328  12.425  0.0245 -0.1731  0.4438
15395TIP3    H167600   5.345   1.390  12.478 -0.6945  0.2037 -0.6431
15395TIP3    H267601   5.474   1.376  12.401 -1.2538  1.0113 -1.7617
15396TIP3   OH267602   1.642   4.691  12.537 -0.4192 -0.1185  0.1646
15396TIP3    H167603   1.640   4.647  12.453  1.9977  2.3163 -1.3204
15396TIP3    H267604   1.587   4.769  12.525  2.0021  1.6502 -0.1701
15397TIP3   OH267605   2.083   2.642   3.063  0.2397 -0.1846  0.7394
15397TIP3    H167606   2.170   2.603   3.065  0.9652  1.4186  1.3878
15397TIP3    H267607   2.025   2.572   3.095  1.4879 -0.7547  1.8327
15398TIP3   OH267608   0.141   4.340  17.038 -0.5643 -0.3982 -0.2861
15398TIP3    H167609   0.236   4.331  17.037 -0.4843  0.3563 -0.2013
15398TIP3    H267610   0.119   4.366  16.948 -0.2302  3.4096  0.5467
15399TIP3   OH267611   3.108   1.511   0.536  0.0421  0.0648 -0.4926
15399TIP3    H167612   3.028   1.497   0.485 -0.6431  0.4284  0.4416
15399TIP3    H267613   3.176   1.530   0.471 -0.9088  1.0113 -1.2481
15400TIP3   OH267614   4.598   6.179  11.098 -0.1957  0.1493  0.0202
15400TIP3    H167615   4.502   6.180  11.100 -0.2449  0.9043 -1.1537
15400TIP3    H267616   4.621   6.258  11.048  1.0748  0.4803  1.0570
15401TIP3   OH267617   3.343   0.250   5.048  0.1844 -0.5682 -0.2079
15401TIP3    H167618   3.341   0.209   4.962 -0.0676 -2.4852  0.6399
15401TIP3    H267619   3.427   0.222   5.085  0.4326  0.4984  0.0628
15402TIP3   OH267620   0.510   3.907  11.971  0.6650 -0.4110  0.3076
15402TIP3    H167621   0.538   3.889  12.061  1.9667  1.5107  0.3358
15402TIP3    H267622   0.586   3.948  11.930 -0.8513  1.4538 -0.7784
15403TIP3   OH267623   1.111   2.074  13.409  0.6062  0.0965  0.2999
15403TIP3    H167624   1.194   2.045  13.447  0.8927  1.2092  0.5604
15403TIP3    H267625   1.063   2.112  13.482  0.5092  0.8478 -0.1419
15404TIP3   OH267626   2.846   6.250   2.539 -0.2490  0.6428  0.1229
15404TIP3    H167627   2.822   6.298   2.459 -1.8962  2.1199  1.4039
15404TIP3    H267628   2.935   6.278   2.558 -0.3622  1.4165 -0.4294
15405TIP3   OH267629   4.787   1.624  13.617 -0.1396  0.1593  0.1160
15405TIP3    H167630   4.826   1.588  13.696 -2.0061 -2.1587  0.0957
15405TIP3    H267631   4.736   1.699  13.648  1.2323  0.9040  0.6668
15406TIP3   OH267632   4.452   0.616   0.394  0.1511 -0.0741  0.4726
15406TIP3    H167633   4.398   0.575   0.462  2.3629 -0.5026  2.1002
15406TIP3    H267634   4.520   0.551   0.375  0.6777  0.8058 -0.7919
15407TIP3   OH267635   6.023   3.759  16.957  0.3131 -0.3061  0.0456
15407TIP3    H167636   5.984   3.783  17.041  1.9898  1.7299  0.3395
15407TIP3    H267637   6.085   3.689  16.978  1.9424  1.3112  0.8783
15408TIP3   OH267638   4.183   0.919   4.552  0.2048  0.4208 -0.0579
15408TIP3    H167639   4.205   0.826   4.540 -0.0010  0.4068 -0.3499
15408TIP3    H267640   4.190   0.957   4.464 -0.4428  0.5178 -0.0780
15409TIP3   OH267641   3.104   0.026   2.306 -0.1081  0.1585  0.4214
15409TIP3    H167642   3.160   0.092   2.348  0.8768  0.1255 -0.8082
15409TIP3    H267643   3.165  -0.038   2.270 -0.9688 -0.2611 -0.3136
15410TIP3   OH267644   0.685   5.838   0.625  0.0515  0.1810 -0.4087
15410TIP3    H167645   0.720   5.907   0.681  0.8415 -2.3338  2.4399
15410TIP3    H267646   0.590   5.847   0.632  0.1370  0.0210  1.3008
15411TIP3   OH267647   1.032   4.798   4.934  0.1322 -0.5656  0.2910
15411TIP3    H167648   0.950   4.846   4.946 -0.6376 -0.7675 -3.1585
15411TIP3    H267649   1.101   4.864   4.946 -0.7585  0.6719 -1.1654
15412TIP3   OH267650   5.630   0.983   3.759  0.1613  0.3213  0.1314
15412TIP3    H167651   5.718   0.946   3.748 -0.0552 -0.2625  0.2849
15412TIP3    H267652   5.598   0.944   3.840 -0.3825  0.2228 -0.1237
15413TIP3   OH267653   3.047   0.919   4.513 -0.4598 -0.3165  0.0943
15413TIP3    H167654   2.980   0.854   4.492 -0.9177  0.7181 -1.8615
15413TIP3    H267655   3.125   0.868   4.532 -0.7942 -1.4655 -1.4215
15414TIP3   OH267656   0.930   0.039  12.644 -0.1004 -0.0118 -0.5304
15414TIP3    H167657   1.013   0.026  12.690 -0.0551 -1.7503 -1.0349
15414TIP3    H267658   0.895   0.120  12.681  1.9940  0.9920 -0.5905
15415TIP3   OH267659   5.414   4.694   2.249 -0.2148 -0.1519  0.4080
15415TIP3    H167660   5.387   4.718   2.160  3.5756  1.6616 -0.4365
15415TIP3    H267661   5.471   4.619   2.238  0.1377 -0.0262  1.3189
15416TIP3   OH267662   1.810   0.206  11.726 -0.6171 -0.5534  0.4003
15416TIP3    H167663   1.817   0.291  11.683 -0.9163  0.0495  1.5135
15416TIP3    H267664   1.900   0.180  11.743 -0.5635  0.2082  1.3232
15417TIP3   OH267665   5.815   4.365  14.972 -0.0717  0.1052  0.0971
15417TIP3    H167666   5.827   4.282  14.925 -2.1484  0.7836 -1.8256
15417TIP3    H267667   5.793   4.428  14.903 -1.1217  1.6706  1.7871
15418TIP3   OH267668   2.445   1.647   2.740 -0.6617 -0.0571 -0.4393
15418TIP3    H167669   2.497   1.596   2.679 -1.1810  0.4594 -1.3343
15418TIP3    H267670   2.355   1.617   2.726 -0.9328  0.8688 -0.7697
15419TIP3   OH267671   2.197   2.451   5.878  0.1005  0.2619 -0.5768
15419TIP3    H167672   2.128   2.506   5.842  0.3762  0.7137 -0.4269
15419TIP3    H267673   2.178   2.449   5.972  0.0796  0.0841 -0.5855
15420TIP3   OH267674   5.504   6.422   1.193  0.2706  0.2881  0.4913
15420TIP3    H167675   5.501   6.347   1.135 -1.9257  0.6847 -0.0156
15420TIP3    H267676   5.546   6.390   1.273 -0.5776 -1.4669  0.2752
15421TIP3   OH267677   5.477   3.170  13.214  0.4975 -0.3337 -0.0768
15421TIP3    H167678   5.522   3.107  13.270  0.7386 -0.5338 -0.4922
15421TIP3    H267679   5.388   3.136  13.206 -0.2393  0.8957  2.0614
15422TIP3   OH267680   4.036   4.237   1.512  0.5623  0.1100 -0.0526
15422TIP3    H167681   4.019   4.261   1.603 -1.3348 -0.8741 -0.1119
15422TIP3    H267682   4.024   4.318   1.462 -1.9847 -0.0639  0.1847
15423TIP3   OH267683   0.467   1.086   1.100 -0.3318 -0.0222 -0.0289
15423TIP3    H167684   0.544   1.142   1.110 -0.7229  0.4347  0.4588
15423TIP3    H267685   0.393   1.141   1.126 -1.1057  0.2853 -2.5858
15424TIP3   OH267686   0.235   1.536  17.313  0.0054  0.5212  0.2711
15424TIP3    H167687   0.256   1.443  17.323 -0.1871  0.4367 -0.1129
15424TIP3    H267688   0.288   1.580  17.380  1.6298  0.3415 -0.8333
15425TIP3   OH267689   1.098   6.152   1.791  0.0002 -0.3463 -0.1488
15425TIP3    H167690   1.052   6.138   1.874  1.3827 -2.0993  0.3742
15425TIP3    H267691   1.169   6.088   1.792 -0.3685 -0.9142 -3.0369
15426TIP3   OH267692   2.570   5.156  15.819 -0.5219  0.3872  0.5057
15426TIP3    H167693   2.594   5.186  15.732  1.0452 -0.4578  0.6127
15426TIP3    H267694   2.566   5.236  15.872  0.8357  0.6984  0.1675
15427TIP3   OH267695   6.592   3.413  17.312  0.6619  0.2465 -0.0234
15427TIP3    H167696   6.545   3.487  17.352 -0.3552 -0.7432  0.6783
15427TIP3    H267697   6.565   3.414  17.221  1.9538  1.7166 -0.4321
15428TIP3   OH267698   4.644   4.880  14.442  0.2157  0.1643  1.3174
15428TIP3    H167699   4.638   4.947  14.510 -0.4736  2.1209 -0.5473
15428TIP3    H267700   4.721   4.904  14.392 -1.3340  1.0804 -0.7879
15429TIP3   OH267701   2.087   2.196   5.301  0.8736  0.2720  0.0399
15429TIP3    H167702   2.068   2.158   5.216  1.1882  0.0873  0.0483
15429TIP3    H267703   2.023   2.158   5.360  0.3499  0.7650 -0.2025
15430TIP3   OH267704   1.934   0.505   4.347 -0.2362 -0.7536 -0.3113
15430TIP3    H167705   1.851   0.520   4.301 -0.8158 -1.0504  0.5932
15430TIP3    H267706   1.919   0.542   4.434  0.5255 -0.9627 -0.0864
15431TIP3   OH267707   1.613   1.433  11.402  0.2492  0.7679 -0.4411
15431TIP3    H167708   1.557   1.380  11.459  1.3125 -0.9694 -0.9467
15431TIP3    H267709   1.680   1.469  11.460 -0.8125  2.0885  0.0050
15432TIP3   OH267710   0.344   0.149  16.936  0.1161  0.0001  0.0483
15432TIP3    H167711   0.274   0.203  16.973  0.9272  0.8076  0.4292
15432TIP3    H267712   0.376   0.201  16.862  2.1624  0.9796  1.5326
15433TIP3   OH267713   2.061   2.496  16.560 -0.0109 -0.5241  0.4912
15433TIP3    H167714   2.137   2.510  16.503 -0.9409  0.2397 -0.6022
15433TIP3    H267715   2.084   2.419  16.612  1.0431 -0.9947 -0.6238
15434TIP3   OH267716   3.319   5.789  14.763  0.5379  0.3476 -0.1435
15434TIP3    H167717   3.363   5.873  14.779 -0.1977  0.8278 -0.5420
15434TIP3    H267718   3.232   5.800  14.803 -0.2534  0.4867 -1.8295
15435TIP3   OH267719   5.696   2.983   2.575 -0.2121 -0.3313  0.1077
15435TIP3    H167720   5.635   2.986   2.648 -1.0195 -0.9774 -0.5257
15435TIP3    H267721   5.721   2.890   2.568 -1.0434 -0.4948 -1.1393
15436TIP3   OH267722   1.226   1.871   5.832 -0.0218 -0.0949 -0.5537
15436TIP3    H167723   1.304   1.836   5.789 -0.2838 -1.7577  0.2499
15436TIP3    H267724   1.161   1.878   5.762  0.0975 -1.0840 -0.7830
15437TIP3   OH267725   3.868   2.134   2.544  0.1737 -0.7941  0.1254
15437TIP3    H167726   3.899   2.195   2.611 -1.1567 -1.9695  1.9145
15437TIP3    H267727   3.947   2.106   2.498  1.3516 -1.0141  2.1650
15438TIP3   OH267728   6.715   1.821   2.026  0.0600  0.3686 -0.3685
15438TIP3    H167729   6.712   1.744   2.083  0.0364  0.0119 -0.8450
15438TIP3    H267730   6.630   1.821   1.982  0.7212 -0.3864 -1.7224
15439TIP3   OH267731   0.526   0.765  13.628  0.8838  0.1187  0.7742
15439TIP3    H167732   0.585   0.838  13.609  0.3342  0.2775 -0.4551
15439TIP3    H267733   0.476   0.753  13.547  1.0892 -1.7567  0.8814
15440TIP3   OH267734   4.208   5.613  15.983  0.4536 -0.2979  0.0864
15440TIP3    H167735   4.213   5.581  15.893  2.0553  0.3309 -0.0807
15440TIP3    H267736   4.262   5.552  16.033 -0.4040 -0.6263  0.6301
15441TIP3   OH267737   4.132   4.080   4.121 -0.1097 -0.1739 -0.6244
15441TIP3    H167738   4.216   4.125   4.122 -1.4977  2.6491 -0.9638
15441TIP3    H267739   4.129   4.035   4.037  1.1538 -0.5979 -0.4630
15442TIP3   OH267740   1.900   5.730   1.743 -0.5291 -0.2166  0.4566
15442TIP3    H167741   1.974   5.669   1.746 -0.9620 -0.7300  1.6450
15442TIP3    H267742   1.840   5.691   1.680 -0.1970 -0.2867  0.1782
15443TIP3   OH267743   1.142   5.802  15.549 -0.2175  0.0595 -0.3477
15443TIP3    H167744   1.222   5.750  15.543 -0.3646 -0.0842 -1.2477
15443TIP3    H267745   1.166   5.886  15.509 -0.8246 -0.3845 -1.7000
15444TIP3   OH267746   0.585   3.765  16.063  0.4287  0.0354 -0.2454
15444TIP3    H167747   0.549   3.800  16.144 -0.5115 -0.0825 -0.6017
15444TIP3    H267748   0.562   3.829  15.996  1.2135  0.1409 -0.4265
15445TIP3   OH267749   5.581   6.744  15.591 -0.5297 -0.3027 -0.0767
15445TIP3    H167750   5.554   6.669  15.538  0.0019 -0.0150 -0.7701
15445TIP3    H267751   5.528   6.738  15.671 -2.8505  0.4153 -1.4813
15446TIP3   OH267752   0.105   3.507   4.977  0.5867  0.3407  0.1219
15446TIP3    H167753   0.093   3.601   4.992  0.9916  0.1650  1.7420
15446TIP3    H267754   0.137   3.501   4.887  3.2286  2.0231  0.8367
15447TIP3   OH267755   4.863   1.470   0.939 -0.0544  0.2827 -0.3824
15447TIP3    H167756   4.850   1.417   0.860  0.8920  2.7377 -2.2970
15447TIP3    H267757   4.778   1.511   0.954  0.3397  1.6302 -1.5983
15448TIP3   OH267758   5.029   5.393  12.376 -0.4877 -0.3589 -0.0972
15448TIP3    H167759   4.972   5.317  12.387  0.1189 -0.7638  0.3278
15448TIP3    H267760   4.974   5.458  12.332 -0.5615 -1.5774 -1.8801
15449TIP3   OH267761   2.159   1.422   2.040 -0.4978  0.2667  0.0385
15449TIP3    H167762   2.212   1.499   2.017 -2.4189  1.0818 -2.1232
15449TIP3    H267763   2.138   1.382   1.955 -0.9510 -1.6799  1.0197
15450TIP3   OH267764   3.685   2.711  15.395 -0.1379  0.3913 -0.5330
15450TIP3    H167765   3.686   2.658  15.474 -0.7827 -0.6264 -1.1783
15450TIP3    H267766   3.592   2.721  15.374  0.0089  1.0248 -0.9215
15451TIP3   OH267767   1.558   6.506  13.637  0.3089  0.1845  0.1792
15451TIP3    H167768   1.506   6.430  13.664 -0.8428  0.4094 -1.2665
15451TIP3    H267769   1.517   6.580  13.681  0.0416  0.2321 -0.1450
15452TIP3   OH267770   4.915   0.679  11.882  0.0212 -0.6879 -0.0535
15452TIP3    H167771   5.006   0.700  11.903  0.0419  0.5764 -1.2404
15452TIP3    H267772   4.900   0.721  11.797 -1.7530 -0.6153  0.2539
15453TIP3   OH267773   6.262   3.989   2.661 -0.2209  0.2276  0.3201
15453TIP3    H167774   6.258   3.894   2.671  2.0747  0.2955  3.0818
15453TIP3    H267775   6.309   4.020   2.739 -1.2851  3.7015 -0.2146
15454TIP3   OH267776   6.536   4.634  15.359  0.2741 -0.1003 -0.0313
15454TIP3    H167777   6.573   4.636  15.447 -0.6290  0.1353  0.3580
15454TIP3    H267778   6.451   4.677  15.368 -0.1590 -0.7466 -0.8627
15455TIP3   OH267779   6.384   4.324  14.122  0.1250  0.1334 -0.0683
15455TIP3    H167780   6.412   4.243  14.166  1.3694  0.2239 -0.6698
15455TIP3    H267781   6.465   4.364  14.092 -0.6145  0.7146 -1.3441
15456TIP3   OH267782   5.678   4.749  13.096  0.1095  0.9546 -0.2592
15456TIP3    H167783   5.744   4.819  13.101  1.4254 -0.3014  0.5389
15456TIP3    H267784   5.643   4.743  13.185 -1.1940  1.6577 -0.6890
15457TIP3   OH267785   3.335   5.786   4.109  0.7032  0.0976  0.1565
15457TIP3    H167786   3.383   5.723   4.055  1.0964  0.8607 -0.4019
15457TIP3    H267787   3.295   5.846   4.045  0.0567  0.2196  0.6668
15458TIP3   OH267788   2.424   5.562  12.753 -0.3933 -0.3663  0.0173
15458TIP3    H167789   2.400   5.644  12.710  0.6699 -1.1307 -2.1712
15458TIP3    H267790   2.432   5.585  12.845 -2.0770  1.5222 -0.2389
15459TIP3   OH267791   6.333   5.380   5.687  0.1413  0.2056  0.4684
15459TIP3    H167792   6.249   5.344   5.658  0.3278  0.6244 -0.6304
15459TIP3    H267793   6.341   5.463   5.640  1.4277 -0.0957  0.1042
15460TIP3   OH267794   0.298   1.818   4.399 -0.0088 -0.3816  0.3262
15460TIP3    H167795   0.349   1.895   4.424 -0.1079 -0.3668  0.4908
15460TIP3    H267796   0.217   1.826   4.450  0.0167 -0.6401  0.4092
15461TIP3   OH267797   2.046   4.155  13.139  0.0956  0.7048  0.0006
15461TIP3    H167798   1.973   4.093  13.135 -0.2981  1.1951 -0.6130
15461TIP3    H267799   2.107   4.125  13.072  0.4829  0.2705  0.5424
15462TIP3   OH267800   2.870   3.639  17.256  0.5775 -0.8197  0.1091
15462TIP3    H167801   2.931   3.705  17.221  0.0119 -0.0075  0.6320
15462TIP3    H267802   2.863   3.574  17.186 -2.5538  2.0127 -2.5493
15463TIP3   OH267803   1.327   0.275  15.943 -0.0406  0.2606  0.0168
15463TIP3    H167804   1.364   0.312  15.862  2.1391 -1.8153 -0.0243
15463TIP3    H267805   1.397   0.282  16.007 -0.7316 -0.8209  0.9184
15464TIP3   OH267806   6.759   3.429   3.473 -0.5130 -0.6374 -0.4106
15464TIP3    H167807   6.666   3.409   3.466 -0.9879  0.9216  0.8775
15464TIP3    H267808   6.796   3.355   3.522 -1.4704 -0.3136  0.8320
15465TIP3   OH267809   5.937   1.567  13.013  0.1305 -0.4271  0.0530
15465TIP3    H167810   5.944   1.661  13.030 -1.4789 -0.0454 -1.2155
15465TIP3    H267811   5.965   1.556  12.923  1.1992 -1.3249  0.4698
15466TIP3   OH267812   0.907   3.026  16.486 -0.5641  0.7428  0.0307
15466TIP3    H167813   0.944   2.948  16.527 -0.4089  0.7615 -0.0744
15466TIP3    H267814   0.871   2.995  16.403 -1.8715  0.4886  0.6660
15467TIP3   OH267815   5.547   4.514   5.263 -0.1388 -0.4720  0.4314
15467TIP3    H167816   5.534   4.420   5.254  1.1755 -0.5386 -1.3142
15467TIP3    H267817   5.542   4.548   5.174  0.0403  1.0167  0.9610
15468TIP3   OH267818   5.233   1.386  14.320  0.3212  0.1014 -0.9648
15468TIP3    H167819   5.247   1.321  14.389  0.7632  1.9837  0.8116
15468TIP3    H267820   5.140   1.377  14.298  0.3891 -1.1567 -0.8097
15469TIP3   OH267821   2.182   5.939  16.174 -0.5352 -0.3522  0.4100
15469TIP3    H167822   2.231   6.003  16.225 -1.3146 -0.1922  0.9760
15469TIP3    H267823   2.140   5.990  16.105 -1.0697 -0.2700  0.7963
15470TIP3   OH267824   1.336   0.246  12.339 -0.1528 -0.3414  0.3574
15470TIP3    H167825   1.321   0.152  12.347 -0.6638 -0.0750  3.6776
15470TIP3    H267826   1.268   0.276  12.279 -1.2039 -1.8339  0.7556
15471TIP3   OH267827   4.571   0.940  13.564  0.3643 -0.0925 -0.6266
15471TIP3    H167828   4.617   1.023  13.574  0.3824 -0.1384 -0.3304
15471TIP3    H267829   4.502   0.959  13.500 -0.0059  0.3109 -0.1234
15472TIP3   OH267830   1.793   0.162   4.635  0.0435 -0.2891  0.5382
15472TIP3    H167831   1.781   0.249   4.598 -0.9062 -0.3414  0.6805
15472TIP3    H267832   1.777   0.102   4.562  1.4755 -0.3460  0.2476
15473TIP3   OH267833   3.860   1.288   5.311  0.0738  0.6006  0.3760
15473TIP3    H167834   3.839   1.217   5.372 -0.7937 -0.2537 -0.8720
15473TIP3    H267835   3.790   1.353   5.326 -2.3697 -1.2225 -2.1605
15474TIP3   OH267836   3.623   3.482  14.055 -0.0541 -0.2721  0.5094
15474TIP3    H167837   3.605   3.576  14.068  0.5309 -0.2401  1.1419
15474TIP3    H267838   3.696   3.464  14.113 -0.0083 -1.0764  0.2067
15475TIP3   OH267839   4.465   1.082  10.727  0.1450 -0.1554  0.1524
15475TIP3    H167840   4.499   1.002  10.687 -0.5732  0.4019 -1.7182
15475TIP3    H267841   4.372   1.064  10.743  0.5431 -0.5730  2.2280
15476TIP3   OH267842   5.983   4.081  16.993  0.2171 -0.5334 -0.0671
15476TIP3    H167843   5.890   4.062  16.982  0.4046 -0.5696 -1.8638
15476TIP3    H267844   6.025   4.044  16.916  1.7473 -0.5546  0.7264
15477TIP3   OH267845   0.634   0.547  13.714  0.0411  0.5438 -0.7792
15477TIP3    H167846   0.709   0.544  13.655 -0.8167  1.3580 -1.9601
15477TIP3    H267847   0.591   0.631  13.694  0.2261  1.3032  1.6725
15478TIP3   OH267848   3.047   2.707  15.029 -0.3738 -0.1705 -0.2502
15478TIP3    H167849   3.022   2.662  15.110 -0.2470  1.1929  0.5667
15478TIP3    H267850   3.142   2.701  15.027 -0.4543 -1.5833 -1.1402
15479TIP3   OH267851   2.404   4.158   2.248  0.4891 -0.2371  0.0896
15479TIP3    H167852   2.337   4.226   2.239  0.9275  0.0158 -1.5686
15479TIP3    H267853   2.366   4.095   2.309 -0.5996  0.6846  0.4042
15480TIP3   OH267854   3.031   4.215   2.777 -0.0498  0.2835 -0.0171
15480TIP3    H167855   2.952   4.249   2.820  0.2663 -1.3344  2.0220
15480TIP3    H267856   2.998   4.153   2.713 -0.4712 -0.2708  0.7168
15481TIP3   OH267857   0.782   1.329  15.822 -0.1650 -0.5289  1.2117
15481TIP3    H167858   0.838   1.407  15.827  0.7430 -1.1994  1.7152
15481TIP3    H267859   0.756   1.325  15.730  2.4453 -1.4189  0.4243
15482TIP3   OH267860   5.126   5.975  15.153 -0.4152 -0.1750 -0.4429
15482TIP3    H167861   5.079   5.917  15.093  2.2209 -1.5161 -1.4180
15482TIP3    H267862   5.212   5.987  15.112 -0.2004  3.0344  0.6420
15483TIP3   OH267863   4.167   6.592  12.922  0.7056 -0.1292 -0.2117
15483TIP3    H167864   4.076   6.622  12.919  0.3484 -0.2381  3.9190
15483TIP3    H267865   4.176   6.536  12.845 -2.4916  0.4080 -1.1371
15484TIP3   OH267866   4.238   3.346  15.798 -0.8996 -0.2296 -0.0822
15484TIP3    H167867   4.166   3.285  15.813  0.2818 -2.3631 -2.3307
15484TIP3    H267868   4.309   3.315  15.855 -0.4456 -0.7080 -0.8900
15485TIP3   OH267869   3.948   4.613  14.710 -0.5044 -0.7017 -0.4400
15485TIP3    H167870   3.873   4.553  14.717 -0.5672 -0.5535  0.3480
15485TIP3    H267871   3.922   4.688  14.764  0.3831 -0.8351  0.1874
15486TIP3   OH267872   0.057   3.762  13.415  0.2446  0.1513 -0.4721
15486TIP3    H167873   0.084   3.680  13.454 -0.6247 -0.3728 -0.9409
15486TIP3    H267874   0.027   3.738  13.327 -0.7751  0.8278 -0.3344
15487TIP3   OH267875   3.194   3.768  16.149 -0.2284 -0.3017  0.5491
15487TIP3    H167876   3.247   3.833  16.196  1.2152 -1.1545  0.1575
15487TIP3    H267877   3.148   3.819  16.082  0.4713  0.4009  0.5825
15488TIP3   OH267878   4.947   5.079   5.407  0.2395 -0.1165 -0.0233
15488TIP3    H167879   5.032   5.055   5.370  1.4910  2.5248  0.9048
15488TIP3    H267880   4.945   5.037   5.493  0.5500 -0.2665 -0.0880
15489TIP3   OH267881   2.793   4.047  16.266  0.2055 -0.1058  0.2029
15489TIP3    H167882   2.706   4.028  16.230  0.9108  0.2866 -1.8535
15489TIP3    H267883   2.852   4.037  16.192  1.7015  1.4068  1.1170
15490TIP3   OH267884   6.527   2.822  13.968  0.6542  0.0024 -0.8250
15490TIP3    H167885   6.434   2.829  13.947  0.1052 -1.3456  0.8828
15490TIP3    H267886   6.561   2.761  13.902  0.1977  0.0692 -1.1285
15491TIP3   OH267887   3.225   5.819   3.460 -0.1163 -0.5094 -0.1609
15491TIP3    H167888   3.244   5.762   3.385  0.2602 -0.6493  0.0382
15491TIP3    H267889   3.255   5.906   3.433 -0.2661 -0.4961 -0.2888
15492TIP3   OH267890   5.289   3.476  17.226 -0.0404  0.5352 -0.4210
15492TIP3    H167891   5.212   3.532  17.237  0.7975  1.6149  0.1861
15492TIP3    H267892   5.353   3.512  17.287 -0.4234 -3.0022  2.3984
15493TIP3   OH267893   2.747   4.742  11.708 -0.2286 -0.2901 -0.2757
15493TIP3    H167894   2.830   4.752  11.662  1.1679 -0.7010  1.9690
15493TIP3    H267895   2.705   4.828  11.701  0.9756  0.3095 -0.4175
15494TIP3   OH267896   3.596   3.907  12.857 -0.3527  0.1175  0.1299
15494TIP3    H167897   3.568   3.854  12.931 -0.4392 -2.2122 -1.4607
15494TIP3    H267898   3.691   3.897  12.854 -0.5402 -1.7171 -1.3508
15495TIP3   OH267899   3.582   1.241   0.895  0.3476  0.1789 -0.0599
15495TIP3    H167900   3.492   1.270   0.904  0.2949 -0.0492  0.1634
15495TIP3    H267901   3.634   1.315   0.925  0.2613  0.5873 -0.8926
15496TIP3   OH267902   4.197   3.835   5.407 -0.2198 -0.1434  0.2920
15496TIP3    H167903   4.286   3.830   5.442 -0.1493 -1.0755 -0.0006
15496TIP3    H267904   4.208   3.825   5.312 -0.6015  0.1358  0.2176
15497TIP3   OH267905   2.154   3.693  15.299 -0.0435 -0.0432 -0.2739
15497TIP3    H167906   2.088   3.713  15.233  2.1760 -0.0184 -2.6160
15497TIP3    H267907   2.209   3.771  15.303 -0.2167  0.0327  1.8155
15498TIP3   OH267908   3.600   1.149   5.586 -0.3305  0.0345 -0.1827
15498TIP3    H167909   3.546   1.202   5.526 -2.8539 -1.9295  0.1883
15498TIP3    H267910   3.580   1.059   5.563  1.2757 -0.7819  1.4012
15499TIP3   OH267911   6.654   2.087  14.957 -0.0462 -0.2178  0.8766
15499TIP3    H167912   6.712   2.161  14.941 -0.3301 -0.1635  0.0739
15499TIP3    H267913   6.571   2.111  14.916  0.0838 -1.2891 -0.0596
15500TIP3   OH267914   2.120   2.350  14.619 -0.2960  0.5256 -0.0742
15500TIP3    H167915   2.154   2.414  14.681 -0.6431 -0.9632  1.7463
15500TIP3    H267916   2.071   2.287  14.673  0.6396 -1.6920 -1.6393
15501TIP3   OH267917   5.324   0.709   5.331 -0.1279 -0.0471  0.1634
15501TIP3    H167918   5.312   0.793   5.374  1.3606 -0.1855  0.8966
15501TIP3    H267919   5.419   0.699   5.323 -0.3142 -0.3475 -2.5633
15502TIP3   OH267920   5.263   2.944   0.435  0.1647 -0.2916 -0.0989
15502TIP3    H167921   5.193   2.946   0.501  1.3342  0.9150  1.1661
15502TIP3    H267922   5.220   2.971   0.354 -1.3500 -1.9924  0.0813
15503TIP3   OH267923   1.430   4.139  11.519 -0.2474 -0.4070  0.9293
15503TIP3    H167924   1.490   4.117  11.590  1.4591 -1.7999 -0.8385
15503TIP3    H267925   1.482   4.193  11.460 -1.3185 -0.1077  0.2433
15504TIP3   OH267926   3.757   1.876  13.691  0.3541 -0.0102 -0.5644
15504TIP3    H167927   3.670   1.861  13.730  0.1043  1.5955 -0.4407
15504TIP3    H267928   3.739   1.902  13.601  0.7782 -0.5958 -0.8275
15505TIP3   OH267929   0.467   5.177   3.439 -0.0553  0.0205 -0.2822
15505TIP3    H167930   0.473   5.204   3.348 -2.2111 -2.5461 -1.3164
15505TIP3    H267931   0.444   5.084   3.436 -2.1694  0.2465  2.7949
15506TIP3   OH267932   2.776   3.527  13.740  0.1828 -0.2929  0.2958
15506TIP3    H167933   2.774   3.622  13.741  0.4390 -0.2782 -0.1870
15506TIP3    H267934   2.762   3.503  13.648 -0.0363 -0.7253  0.4352
15507TIP3   OH267935   1.192   3.410  13.083  0.4765 -0.0418 -0.2714
15507TIP3    H167936   1.246   3.476  13.126  0.0427  0.7497 -0.9080
15507TIP3    H267937   1.153   3.361  13.155 -3.1516  3.5232  0.5732
15508TIP3   OH267938   6.296   0.891   0.616  0.1602  0.0370 -0.6116
15508TIP3    H167939   6.342   0.964   0.574 -2.8447  2.5461  0.1775
15508TIP3    H267940   6.323   0.895   0.708  0.2383 -0.1055 -0.6264
15509TIP3   OH267941   4.673   6.523   1.970  0.4739  0.0972 -0.5383
15509TIP3    H167942   4.700   6.612   1.992 -0.0487  0.1134  0.0585
15509TIP3    H267943   4.580   6.530   1.950  0.6240 -0.1687 -1.3554
15510TIP3   OH267944   4.092   5.237   3.338  0.0443 -0.0817 -0.4349
15510TIP3    H167945   4.140   5.319   3.325  0.3890 -0.2727 -0.3690
15510TIP3    H267946   4.158   5.169   3.325  0.1232 -0.3139  1.0816
15511TIP3   OH267947   2.864   0.604   2.864 -0.5010  0.7430 -0.5781
15511TIP3    H167948   2.898   0.639   2.946  0.5204 -1.2550 -0.0892
15511TIP3    H267949   2.927   0.538   2.838 -1.6033  0.2595 -2.1898
15512TIP3   OH267950   0.663   6.766  12.418  0.2837 -0.2029  0.5296
15512TIP3    H167951   0.576   6.789  12.452 -0.1471 -1.3543  0.2807
15512TIP3    H267952   0.707   6.724  12.492  0.9215  1.0199  0.8721
15513TIP3   OH267953   4.940   1.594   4.813 -0.1306 -0.0358  0.1708
15513TIP3    H167954   5.033   1.580   4.792 -0.4125 -1.5687 -0.1853
15513TIP3    H267955   4.903   1.631   4.733  0.0613  0.1133  0.1482
15514TIP3   OH267956   4.669   0.875  10.784 -0.6355  0.0532 -0.9338
15514TIP3    H167957   4.646   0.786  10.757 -0.8835 -1.3515  3.2872
15514TIP3    H267958   4.749   0.895  10.736 -0.2993 -2.6303 -1.6422
15515TIP3   OH267959   2.046   6.724   1.631 -0.3188 -0.0808 -0.2145
15515TIP3    H167960   2.127   6.680   1.606  0.7586  2.0645 -0.7957
15515TIP3    H267961   2.027   6.691   1.719 -0.0119 -2.1766 -0.8750
15516TIP3   OH267962   2.179   6.024  13.939 -0.0442  0.0261  0.1077
15516TIP3    H167963   2.121   6.031  14.014  0.5950  2.0786  0.4922
15516TIP3    H267964   2.124   5.989  13.869 -0.9185 -0.9265  1.2388
15517TIP3   OH267965   0.185   0.650   2.467  0.1190  0.4634 -0.0173
15517TIP3    H167966   0.100   0.661   2.423  0.0823 -2.1404 -0.7750
15517TIP3    H267967   0.171   0.684   2.555 -2.0370 -0.6819  0.1551
15518TIP3   OH267968   3.243   1.928   5.693  0.7531  0.5755 -0.2316
15518TIP3    H167969   3.261   2.021   5.709  1.6371  0.6722 -1.6370
15518TIP3    H267970   3.188   1.902   5.767  4.3636  1.0164  2.9256
15519TIP3   OH267971   6.142   4.248   0.869  0.2264  0.0968 -0.6533
15519TIP3    H167972   6.056   4.216   0.839  0.8961  0.3706 -3.1368
15519TIP3    H267973   6.140   4.342   0.852  0.9880  0.1192 -0.6606
15520TIP3   OH267974   4.627   5.391  17.186 -0.2345 -0.1120 -0.0157
15520TIP3    H167975   4.557   5.349  17.136  0.4067 -0.9558 -0.2246
15520TIP3    H267976   4.690   5.321  17.203  0.8468  0.7591 -0.3374
15521TIP3   OH267977   3.416   4.512   5.849 -0.4813  0.0186 -0.5129
15521TIP3    H167978   3.443   4.449   5.916  0.5060  0.1347 -0.7849
15521TIP3    H267979   3.343   4.469   5.804  0.0386 -0.8459 -0.5501
15522TIP3   OH267980   3.024   0.565   1.016 -0.2962  0.6103 -0.2447
15522TIP3    H167981   3.031   0.639   1.076  0.3061  0.4114 -0.0672
15522TIP3    H267982   3.013   0.489   1.072 -1.7156  0.6328 -0.4461
15523TIP3   OH267983   2.245   2.146  16.213  0.2524 -1.0125  0.6514
15523TIP3    H167984   2.169   2.198  16.188 -1.1372 -2.8074  0.9132
15523TIP3    H267985   2.314   2.210  16.229 -1.0281  0.6455 -0.1393
15524TIP3   OH267986   5.811   1.523  15.372 -0.7573 -0.2971  0.4715
15524TIP3    H167987   5.889   1.562  15.332 -1.2968 -1.5226 -1.9855
15524TIP3    H267988   5.842   1.490  15.457  0.6680  1.6895  0.8035
15525TIP3   OH267989   5.743   3.465  12.532  0.0130  0.4507  0.0457
15525TIP3    H167990   5.728   3.478  12.439 -1.5046  0.8048  0.3250
15525TIP3    H267991   5.669   3.413  12.562 -0.0417  1.1926  1.2549
15526TIP3   OH267992   3.630   3.945  16.549  0.3269 -0.0046  0.0932
15526TIP3    H167993   3.646   3.962  16.642  0.8433 -0.4724  0.0997
15526TIP3    H267994   3.591   4.025  16.516  2.5433  1.1754  0.1374
15527TIP3   OH267995   1.906   6.451  13.881  0.0736 -0.3983  0.2289
15527TIP3    H167996   1.855   6.372  13.862  1.2528 -1.0622 -0.2824
15527TIP3    H267997   1.933   6.482  13.795  0.8101 -0.2444  0.5153
15528TIP3   OH267998   6.562   6.473  12.501 -0.0500  0.7815  0.5388
15528TIP3    H167999   6.559   6.565  12.527  1.0427  0.7147  0.9817
15528TIP3    H268000   6.512   6.427  12.569  0.8752  0.8658  1.2898
15529TIP3   OH268001   4.827   4.635  12.427 -0.1448  0.2289 -0.0977
15529TIP3    H168002   4.838   4.649  12.521 -3.0718 -1.9674  0.7354
15529TIP3    H268003   4.890   4.693  12.386  4.0081 -1.4075  3.2466
15530TIP3   OH268004   3.106   2.292  12.310 -0.4221  0.3881  0.4589
15530TIP3    H168005   3.050   2.365  12.285  0.7011  0.9447 -0.5524
15530TIP3    H268006   3.189   2.333  12.334 -0.4654 -0.4020  2.1326
15531TIP3   OH268007   1.348   0.835  11.936 -0.0105  0.5071  0.1704
15531TIP3    H168008   1.353   0.927  11.962 -1.3590  0.8089 -0.5601
15531TIP3    H268009   1.323   0.837  11.844 -0.3698 -0.5929  0.2270
15532TIP3   OH268010   4.656   1.788   6.220 -0.6993  0.2424 -0.7420
15532TIP3    H168011   4.658   1.715   6.158 -0.0126 -0.3444 -0.0505
15532TIP3    H268012   4.690   1.751   6.301 -1.3056  1.0773 -0.0918
15533TIP3   OH268013   3.604   1.355  12.080 -0.4304 -0.0003  0.0674
15533TIP3    H168014   3.589   1.430  12.022 -1.0572  0.1999  0.4718
15533TIP3    H268015   3.696   1.332  12.068 -0.0273  1.3310  0.5207
15534TIP3   OH268016   4.871   4.856  10.961  0.2637 -0.9581 -0.3704
15534TIP3    H168017   4.945   4.904  10.924  0.8130 -0.2677  1.5288
15534TIP3    H268018   4.794   4.902  10.927  0.7623  0.3058  0.1574
15535TIP3   OH268019   3.734   5.642   2.078 -0.0392 -0.5290  0.1694
15535TIP3    H168020   3.768   5.609   2.161 -1.1130 -1.5777  0.2251
15535TIP3    H268021   3.741   5.568   2.018  1.8701  0.5852 -1.0489
15536TIP3   OH268022   5.300   3.653   2.116 -0.3751  0.3422 -0.2306
15536TIP3    H168023   5.254   3.731   2.085 -0.5010 -0.1913 -1.4256
15536TIP3    H268024   5.233   3.599   2.157 -0.6158  0.0841 -0.9537
15537TIP3   OH268025   1.533   1.055   3.607 -0.4503  0.1702  0.5024
15537TIP3    H168026   1.465   0.988   3.599 -0.7622  0.5184  0.1660
15537TIP3    H268027   1.584   1.047   3.527  0.3226 -0.5341  1.0575
15538TIP3   OH268028   2.324   3.156   3.896  0.1631  0.4517  0.1434
15538TIP3    H168029   2.384   3.201   3.956  0.6773  1.2994 -0.9786
15538TIP3    H268030   2.253   3.219   3.881 -1.1089 -0.5768  1.5390
15539TIP3   OH268031   6.561   2.895  12.685  0.4123  0.3801  0.1558
15539TIP3    H168032   6.470   2.866  12.687  0.3348  0.0309 -2.9155
15539TIP3    H268033   6.577   2.930  12.772 -2.2780 -0.6429  1.1728
15540TIP3   OH268034   4.656   4.572   4.200 -0.1362 -0.5919 -0.0264
15540TIP3    H168035   4.671   4.512   4.273  0.5174 -0.1900  0.1871
15540TIP3    H268036   4.657   4.517   4.122 -0.5185 -0.9840  0.2452
15541TIP3   OH268037   4.613   1.616  16.283  0.1328  0.5399 -0.1368
15541TIP3    H168038   4.663   1.665  16.218 -0.4487 -1.3975 -2.1836
15541TIP3    H268039   4.655   1.530  16.287  0.6256  0.8208  2.7208
15542TIP3   OH268040   3.713   6.254   2.387  1.2736 -0.6935  0.2753
15542TIP3    H168041   3.687   6.224   2.299  0.2635 -0.1722  0.3798
15542TIP3    H268042   3.636   6.238   2.441  1.9933 -1.2788  1.1454
15543TIP3   OH268043   0.794   3.708   4.078  0.9624  0.2648  0.0109
15543TIP3    H168044   0.718   3.727   4.133  1.3281 -1.4904  1.1772
15543TIP3    H268045   0.868   3.749   4.124  1.1720 -0.6432  0.4881
15544TIP3   OH268046   5.912   6.216  12.427  0.1555  0.4970 -0.1264
15544TIP3    H168047   5.892   6.131  12.387  0.0176  0.7078 -0.5074
15544TIP3    H268048   5.862   6.279  12.375  0.6301  0.8659 -0.1383
15545TIP3   OH268049   2.592   5.836   1.120  0.2583 -0.3059  0.1347
15545TIP3    H168050   2.535   5.911   1.108 -2.3885 -2.1719  0.2369
15545TIP3    H268051   2.534   5.766   1.151  2.5421 -2.4559 -0.1193
15546TIP3   OH268052   3.968   2.511   3.354  0.0802  0.0305 -0.0541
15546TIP3    H168053   4.009   2.564   3.286  0.9960 -0.0569  0.4192
15546TIP3    H268054   3.901   2.569   3.392 -0.6469 -0.0216 -1.2104
15547TIP3   OH268055   1.189   1.019   4.047 -0.7435  0.2583  0.4740
15547TIP3    H168056   1.180   1.091   3.985  1.0298 -0.7054 -0.9870
15547TIP3    H268057   1.278   1.026   4.080 -0.9658 -0.5207  1.2749
15548TIP3   OH268058   1.895   0.836  12.386 -0.8198  0.1445  0.2405
15548TIP3    H168059   1.951   0.796  12.453  0.0616  0.2449 -0.4056
15548TIP3    H268060   1.859   0.762  12.337  0.4683  0.0792 -0.6828
15549TIP3   OH268061   6.172   4.413  16.674 -0.3665 -0.1806 -0.1404
15549TIP3    H168062   6.134   4.420  16.762 -0.6027  0.9049 -0.3127
15549TIP3    H268063   6.157   4.499  16.635 -1.6534 -1.1190 -1.8301
15550TIP3   OH268064   4.303   4.590   5.906 -0.1004 -0.0922  0.1707
15550TIP3    H168065   4.353   4.508   5.898  0.9060  0.2452  2.2672
15550TIP3    H268066   4.234   4.569   5.968 -0.4036  0.4029 -0.0001
15551TIP3   OH268067   4.368   1.316  11.366 -0.7487 -0.0282  0.3079
15551TIP3    H168068   4.377   1.382  11.435 -0.2748 -0.7067  0.9180
15551TIP3    H268069   4.366   1.366  11.285 -1.4255  0.8050  0.8130
15552TIP3   OH268070   6.391   5.643   0.356 -0.8162 -0.1738  0.3686
15552TIP3    H168071   6.406   5.612   0.445  1.4804 -0.0250  0.0809
15552TIP3    H268072   6.471   5.688   0.332 -1.1965 -0.6112 -1.9444
15553TIP3   OH268073   4.201   2.840  13.741  0.0418  0.1492 -0.1334
15553TIP3    H168074   4.126   2.783  13.758  0.9632 -0.6639  1.4273
15553TIP3    H268075   4.276   2.794  13.779  1.0641  1.7082 -0.1540
15554TIP3   OH268076   2.474   2.316  16.273 -0.4206  0.1157 -0.3346
15554TIP3    H168077   2.511   2.338  16.188 -2.7534  0.2237 -1.4042
15554TIP3    H268078   2.549   2.289  16.326  1.2047  0.8485 -2.1412
15555TIP3   OH268079   1.277   0.785   4.358  0.3987  0.1478  0.9446
15555TIP3    H168080   1.341   0.825   4.417  0.0772 -1.6162  2.5862
15555TIP3    H268081   1.309   0.807   4.270  1.5525  1.8532  1.7235
15556TIP3   OH268082   4.877   3.078  10.824 -0.6367 -0.4966  0.3658
15556TIP3    H168083   4.958   3.071  10.774 -0.8812 -0.5144 -0.0270
15556TIP3    H268084   4.830   3.153  10.787 -0.6863 -0.3257  0.7604
15557TIP3   OH268085   3.328   4.147  12.610  0.0834  0.4505 -0.0215
15557TIP3    H168086   3.246   4.131  12.564 -0.0832 -0.9461  0.6994
15557TIP3    H268087   3.354   4.061  12.644  1.2912  1.0537  0.6689
15558TIP3   OH268088   2.404   4.948   1.932 -0.0455  0.3544 -0.6480
15558TIP3    H168089   2.491   4.970   1.899  0.5490  1.2156  1.3507
15558TIP3    H268090   2.365   5.032   1.958 -0.5670 -0.2174  0.5299
15559TIP3   OH268091   0.775   4.457  15.364  0.4003  0.3243  0.3301
15559TIP3    H168092   0.824   4.537  15.382  0.6192  0.5616 -1.2022
15559TIP3    H268093   0.689   4.487  15.336  0.2050 -0.0086  0.5695
15560TIP3   OH268094   2.818   5.674  14.784 -0.4202 -0.1622 -0.2545
15560TIP3    H168095   2.756   5.740  14.814  1.1664  0.9415  0.7728
15560TIP3    H268096   2.817   5.680  14.689 -0.7165  0.9551 -0.1873
15561TIP3   OH268097   4.115   3.032  11.473  0.5050 -0.1190 -0.5866
15561TIP3    H168098   4.099   3.059  11.564  3.3590  0.3608 -0.1568
15561TIP3    H268099   4.034   2.987  11.448 -0.5589  0.1347  2.0303
15562TIP3   OH268100   2.590   6.005   5.642  0.1834 -0.4867 -0.3346
15562TIP3    H168101   2.680   6.031   5.621  0.1337 -1.0520 -1.3215
15562TIP3    H268102   2.544   6.088   5.657  1.5323 -0.2515  3.3405
15563TIP3   OH268103   0.675   4.968  16.257 -0.3554  0.1322  0.1759
15563TIP3    H168104   0.616   4.972  16.332 -1.5840  1.2143 -0.7799
15563TIP3    H268105   0.659   5.050  16.210  4.5181  2.2847  1.6972
15564TIP3   OH268106   0.338   0.199   5.846 -0.2001  0.3830 -0.7303
15564TIP3    H168107   0.360   0.122   5.794  1.8753  0.8147 -0.6011
15564TIP3    H268108   0.397   0.267   5.813  0.9870  0.7563  1.9065
15565TIP3   OH268109   4.828   3.250   3.807  0.4970  0.2580  0.1444
15565TIP3    H168110   4.786   3.200   3.737  0.0564  0.6799  0.0997
15565TIP3    H268111   4.841   3.186   3.878 -2.4642  0.5754  1.1259
15566TIP3   OH268112   2.537   3.699   2.665  0.2690 -0.0556 -0.1799
15566TIP3    H168113   2.582   3.660   2.739 -0.6517 -2.8118 -0.9596
15566TIP3    H268114   2.598   3.689   2.592  1.4881  3.3201  0.1962
15567TIP3   OH268115   0.098   2.379   5.578 -0.4749 -0.2860 -0.5843
15567TIP3    H168116   0.014   2.407   5.542 -0.2694  2.0344  0.5085
15567TIP3    H268117   0.081   2.366   5.671  0.1811 -0.7134 -0.5182
15568TIP3   OH268118   1.483   0.239   5.394 -0.1304  0.1894 -0.3595
15568TIP3    H168119   1.393   0.271   5.395 -0.8619 -1.6459 -1.3565
15568TIP3    H268120   1.479   0.156   5.442  0.7974 -0.3899 -1.2332
15569TIP3   OH268121   2.537   6.153   1.347 -0.0755  0.2706 -0.3815
15569TIP3    H168122   2.608   6.094   1.375  1.7165  1.6164 -1.8133
15569TIP3    H268123   2.490   6.174   1.428  1.2774 -0.5452  0.6634
15570TIP3   OH268124   0.527   4.513   0.694  0.2603  0.4761  0.2834
15570TIP3    H168125   0.473   4.467   0.630  1.5392  0.1030 -0.5580
15570TIP3    H268126   0.552   4.595   0.650  0.1895  0.7552  0.7536
15571TIP3   OH268127   6.419   1.903   2.739 -0.4687  0.3475 -0.4680
15571TIP3    H168128   6.364   1.975   2.708 -0.2961  0.5200 -0.3776
15571TIP3    H268129   6.362   1.853   2.797 -0.8664 -0.1200 -1.2544
15572TIP3   OH268130   4.119   5.477   2.684  0.0693  0.0761  0.1863
15572TIP3    H168131   4.030   5.491   2.717  0.2621 -0.7506  1.0768
15572TIP3    H268132   4.166   5.557   2.707 -0.3349  0.3641  0.0392
15573TIP3   OH268133   2.005   2.983  15.096  0.3368  0.2944 -0.0083
15573TIP3    H168134   2.091   2.999  15.058  1.0066 -0.4284  1.1353
15573TIP3    H268135   1.944   3.020  15.033  1.4644  0.5126 -1.0158
15574TIP3   OH268136   2.484   1.952   2.768  1.0255 -0.1958  0.0039
15574TIP3    H168137   2.488   2.023   2.705 -0.9509  0.2692  0.3382
15574TIP3    H268138   2.415   1.894   2.735  0.4936 -0.3460  1.3004
15575TIP3   OH268139   3.896   1.900  13.140 -0.3680 -0.3723 -0.4401
15575TIP3    H168140   3.867   1.927  13.227  1.8771  0.1871  0.2031
15575TIP3    H268141   3.899   1.982  13.090  1.8150 -0.0621  0.0884
15576TIP3   OH268142   1.540   0.769   1.174 -0.2537 -0.0662 -0.1416
15576TIP3    H168143   1.607   0.702   1.189 -1.0340 -0.4589  2.0014
15576TIP3    H268144   1.587   0.844   1.138  0.9263 -1.1401 -0.9037
15577TIP3   OH268145   3.492   0.833  17.151  0.3889 -0.5637  0.5314
15577TIP3    H168146   3.442   0.893  17.206 -0.7960 -1.0450  0.0290
15577TIP3    H268147   3.432   0.759  17.137  1.0147 -0.8761 -0.6036
15578TIP3   OH268148   5.873   1.298  15.523 -0.2189 -0.1991 -0.1643
15578TIP3    H168149   5.781   1.277  15.539 -0.0413 -1.7441 -1.0437
15578TIP3    H268150   5.906   1.327  15.608 -1.0887 -1.2809  0.5683
15579TIP3   OH268151   1.104   0.257  16.188 -0.6019  0.4046 -0.0126
15579TIP3    H168152   1.128   0.255  16.096  0.1169 -2.1792  0.1389
15579TIP3    H268153   1.171   0.203  16.231 -2.6828 -1.1532  1.4904
15580TIP3   OH268154   3.005   1.507   4.196 -0.0032  0.2619  0.2986
15580TIP3    H168155   2.949   1.518   4.273 -0.1258  1.5957  0.0394
15580TIP3    H268156   3.050   1.591   4.187  2.2743 -0.8382  0.6603
15581TIP3   OH268157   6.219   6.303  15.196  0.7074 -0.6239  0.4154
15581TIP3    H168158   6.184   6.353  15.269 -0.6121 -0.9887  0.0528
15581TIP3    H268159   6.186   6.214  15.210  1.0463 -0.8601 -0.2408
15582TIP3   OH268160   2.588   5.839  16.800  0.4796  0.0649 -0.1594
15582TIP3    H168161   2.554   5.874  16.882  2.6007 -0.0062  0.8151
15582TIP3    H268162   2.601   5.746  16.817  3.1153  0.4444  0.2968
15583TIP3   OH268163   0.990   0.233   5.826 -0.1153  0.6062 -0.0687
15583TIP3    H168164   1.058   0.256   5.762  1.0371 -1.6939  0.2032
15583TIP3    H268165   1.039   0.198   5.901 -1.5599 -0.2816  0.4961
15584TIP3   OH268166   3.286   5.260   4.273  0.3764 -0.0302 -0.1015
15584TIP3    H168167   3.229   5.185   4.291 -0.7744  0.9518  0.4417
15584TIP3    H268168   3.298   5.258   4.178  0.7674 -1.1706 -0.0523
15585TIP3   OH268169   5.484   1.033   1.867 -0.4977  0.5762 -0.1893
15585TIP3    H168170   5.465   0.947   1.905 -1.7494  0.6850 -0.5170
15585TIP3    H268171   5.438   1.095   1.923  0.0082  0.9964 -0.2327
15586TIP3   OH268172   1.056   0.492   1.895  0.2842  0.7037 -0.2462
15586TIP3    H168173   1.111   0.565   1.867  0.0365  0.5404 -1.1873
15586TIP3    H268174   1.109   0.446   1.960 -0.0960  2.5062  1.4438
15587TIP3   OH268175   3.809   3.175   6.114 -0.0029  0.4016  0.3930
15587TIP3    H168176   3.798   3.099   6.058 -0.1908  1.9534 -1.8050
15587TIP3    H268177   3.878   3.150   6.176  0.1171 -1.4338 -0.4305
15588TIP3   OH268178   5.070   2.124   1.694  0.0080 -0.0199  0.2787
15588TIP3    H168179   5.001   2.124   1.761 -1.0255  1.6352 -0.7254
15588TIP3    H268180   5.118   2.042   1.709 -1.1958 -0.4584  2.0022
15589TIP3   OH268181   3.323   0.769  12.820  0.1845  0.0323  0.1079
15589TIP3    H168182   3.370   0.752  12.739 -1.6405 -2.2710 -0.5914
15589TIP3    H268183   3.392   0.775  12.887  1.5825 -0.7490 -1.1980
15590TIP3   OH268184   5.686   5.540   1.004  0.2955  0.1130 -0.0562
15590TIP3    H168185   5.650   5.629   1.010  2.9354  1.3079 -0.6635
15590TIP3    H268186   5.711   5.517   1.093  1.1777  0.7226 -0.1325
15591TIP3   OH268187   6.439   0.802   5.365 -0.2222  0.1930  0.3996
15591TIP3    H168188   6.484   0.745   5.303 -1.3684 -0.4660  0.1653
15591TIP3    H268189   6.510   0.846   5.412  0.6651 -0.0607 -0.6630
15592TIP3   OH268190   0.727   2.323   2.295 -0.4548 -0.2973 -0.2630
15592TIP3    H168191   0.639   2.311   2.258 -0.7439 -0.0299  0.3347
15592TIP3    H268192   0.751   2.237   2.330 -0.6024 -0.2936 -0.1538
15593TIP3   OH268193   3.872   0.933   3.423 -0.4038  0.3530  0.1171
15593TIP3    H168194   3.785   0.967   3.443 -0.6210 -1.9771  4.2344
15593TIP3    H268195   3.858   0.843   3.396  0.6722  0.8013 -2.2230
15594TIP3   OH268196   1.312   0.193  15.322  0.0189  0.2139 -0.3012
15594TIP3    H168197   1.329   0.143  15.242 -0.5118  0.9568 -0.8834
15594TIP3    H268198   1.380   0.260  15.323 -0.6105  0.8710 -0.6965
15595TIP3   OH268199   3.806   1.422   3.062 -0.2722  0.3753  0.3926
15595TIP3    H168200   3.797   1.511   3.096 -1.1825  0.6468 -0.4951
15595TIP3    H268201   3.795   1.431   2.968  1.2032 -0.4814  0.1099
15596TIP3   OH268202   1.937   0.758  14.967 -0.4681 -0.3552 -0.4093
15596TIP3    H168203   1.972   0.756  15.055 -0.2966  1.3140 -0.4017
15596TIP3    H268204   2.004   0.802  14.915 -1.8840  1.6361 -0.6698
15597TIP3   OH268205   1.609   5.544   6.686  0.5204 -0.6783 -0.0408
15597TIP3    H168206   1.624   5.604   6.613  1.9808 -0.3549  0.4987
15597TIP3    H268207   1.646   5.461   6.657  1.1773 -0.5278  0.3593
15598TIP3   OH268208   2.733   6.033   3.981 -0.4314 -0.4786  0.1022
15598TIP3    H168209   2.713   6.059   3.891 -0.3251 -0.8536 -0.0306
15598TIP3    H268210   2.815   6.078   4.001 -1.7119  1.6867  0.9108
15599TIP3   OH268211   3.084   0.893   2.397 -0.3433  0.2919  0.3190
15599TIP3    H168212   3.149   0.958   2.425 -1.4789  1.0810  1.2122
15599TIP3    H268213   3.090   0.825   2.464 -0.0613  0.1001  0.1002
15600TIP3   OH268214   6.782   0.367   3.321  0.2779  0.1298  0.2259
15600TIP3    H168215   6.847   0.377   3.251 -0.2199 -0.6840 -0.3774
15600TIP3    H268216   6.805   0.434   3.385  0.1906  1.5374 -1.1537
15601TIP3   OH268217   5.928   6.441  12.641 -0.2669  0.0325  0.4254
15601TIP3    H168218   6.020   6.450  12.666 -0.5207  0.1215  1.3416
15601TIP3    H268219   5.929   6.378  12.568  0.4391 -0.6355  0.9972
15602TIP3   OH268220   0.026   3.146  16.246  0.0213 -0.0267 -0.2655
15602TIP3    H168221  -0.019   3.066  16.271  1.4609 -0.8818 -0.3176
15602TIP3    H268222   0.089   3.161  16.315  0.9655  0.0812 -1.1258
15603TIP3   OH268223   6.725   4.450   3.428  0.6774 -0.0038  0.1278
15603TIP3    H168224   6.738   4.363   3.467  0.6532  0.4315  1.1579
15603TIP3    H268225   6.637   4.448   3.391  1.0394 -0.7260 -0.7124
15604TIP3   OH268226   6.579   5.152   1.066 -0.5028  0.4893 -0.5827
15604TIP3    H168227   6.609   5.119   1.151  2.7738  2.0732 -0.9841
15604TIP3    H268228   6.521   5.225   1.088  2.2104  2.4981  0.4752
15605TIP3   OH268229   3.280   2.490   5.992  0.2246  0.1203 -0.0899
15605TIP3    H168230   3.320   2.529   6.070 -0.3083  0.2304  0.1288
15605TIP3    H268231   3.296   2.396   6.002  0.7647  0.1948 -0.1960
15606TIP3   OH268232   0.017   3.917  16.683 -0.2399 -0.1400 -0.1312
15606TIP3    H168233   0.035   3.878  16.597  0.8520  1.1540 -0.5187
15606TIP3    H268234  -0.048   3.985  16.665  0.8281  0.8954 -0.1319
15607TIP3   OH268235   6.270   0.111   3.012 -0.2191  0.1725  0.3242
15607TIP3    H168236   6.242   0.177   2.949  0.0263  0.3798  0.4330
15607TIP3    H268237   6.340   0.153   3.062 -0.9083  0.2652  1.2245
15608TIP3   OH268238   3.846   2.236   1.033 -0.5976 -0.4166  0.3990
15608TIP3    H168239   3.843   2.322   0.990  0.2030  0.9851  2.9712
15608TIP3    H268240   3.791   2.246   1.110  1.0343 -1.5785  1.7776
15609TIP3   OH268241   2.187   2.428  14.989  1.2734 -0.5078  0.2136
15609TIP3    H168242   2.238   2.479  14.926  0.6563 -0.8242 -0.5711
15609TIP3    H268243   2.096   2.441  14.961  1.1371 -2.5415 -0.4066
15610TIP3   OH268244   5.156   3.847   2.729  0.0538 -0.4627 -0.9074
15610TIP3    H168245   5.235   3.878   2.685 -0.2316  0.4856 -0.7654
15610TIP3    H268246   5.158   3.752   2.717  1.7403 -0.5739 -0.0185
15611TIP3   OH268247   3.011   5.968   1.528  0.7172  0.3275  0.3012
15611TIP3    H168248   3.027   5.956   1.621 -0.4205  0.2342  0.4895
15611TIP3    H268249   3.026   6.061   1.512 -0.6761  0.6807  0.9144
15612TIP3   OH268250   5.344   5.661  13.945 -0.1735  0.2252  0.1645
15612TIP3    H168251   5.367   5.629  13.857 -1.3454 -0.7539  0.1779
15612TIP3    H268252   5.300   5.586  13.986 -0.6274  1.0350  1.1874
15613TIP3   OH268253   0.358   2.366  12.449  0.7681  0.0649  0.5563
15613TIP3    H168254   0.394   2.413  12.524 -1.1258  0.4760  1.2671
15613TIP3    H268255   0.271   2.404  12.436 -1.1543 -3.5573  1.5534
15614TIP3   OH268256   3.749   1.508  16.580  0.4644 -0.2376  0.6724
15614TIP3    H168257   3.839   1.489  16.608 -0.3429 -2.0093  2.3466
15614TIP3    H268258   3.739   1.460  16.498  0.9162 -0.3613  0.6850
15615TIP3   OH268259   3.655   0.431   2.643 -0.2306  0.2707 -0.0458
15615TIP3    H168260   3.630   0.413   2.552  0.1109  1.4845 -0.3951
15615TIP3    H268261   3.684   0.522   2.642  1.2451 -0.1462  0.9669
15616TIP3   OH268262   3.141   1.931  13.469  0.5273 -0.4336  0.2166
15616TIP3    H168263   3.236   1.942  13.466  0.8310 -2.1398  2.1446
15616TIP3    H268264   3.114   1.939  13.378  2.5011  0.0570 -0.3837
15617TIP3   OH268265   2.965   4.810   1.138 -0.0812 -0.4744  0.0891
15617TIP3    H168266   2.980   4.741   1.073 -0.7282 -0.0595 -0.5135
15617TIP3    H268267   3.043   4.807   1.194  0.4931 -0.8440 -0.6985
15618TIP3   OH268268   1.683   0.906  16.378 -0.4912 -0.0439 -0.5066
15618TIP3    H168269   1.628   0.954  16.440 -1.0483  1.0470 -1.7947
15618TIP3    H268270   1.725   0.838  16.431 -0.9206  0.8541  1.0584
15619TIP3   OH268271   1.862   5.649   2.266 -0.2270  0.0525  0.2482
15619TIP3    H168272   1.878   5.679   2.177 -0.6337  0.5152  0.3258
15619TIP3    H268273   1.922   5.702   2.320 -0.0009 -0.2070  0.2537
15620TIP3   OH268274   2.945   5.158  13.249 -0.3499  0.3474 -0.2653
15620TIP3    H168275   2.962   5.118  13.163  1.0438 -0.4531  0.3564
15620TIP3    H268276   3.024   5.207  13.269 -0.5936  0.3815  0.6432
15621TIP3   OH268277   4.813   5.537  11.655 -0.2550 -0.3216  0.2223
15621TIP3    H168278   4.861   5.466  11.699 -0.7351 -1.0370 -0.3860
15621TIP3    H268279   4.877   5.575  11.595  0.3984  0.6459  1.4880
15622TIP3   OH268280   4.539   6.182   0.687 -0.0794  0.2219  0.6866
15622TIP3    H168281   4.486   6.261   0.675 -0.0015  0.0943 -0.7214
15622TIP3    H268282   4.477   6.110   0.676  0.2824  0.0789 -0.5518
15623TIP3   OH268283   5.770   0.675   4.435  0.4408 -0.1264 -0.6430
15623TIP3    H168284   5.780   0.608   4.367  4.3619  0.2335 -0.6761
15623TIP3    H268285   5.696   0.646   4.488  2.1362 -4.7571 -0.4178
15624TIP3   OH268286   0.781   0.124  15.755  0.8285 -0.1719  0.2666
15624TIP3    H168287   0.833   0.089  15.828  0.8037  1.6113  1.1753
15624TIP3    H268288   0.810   0.214  15.745 -1.5059  0.6442  0.2606
15625TIP3   OH268289   0.591   1.370   2.371  0.2353 -0.3337  0.1793
15625TIP3    H168290   0.640   1.435   2.422  0.1553 -0.1928  0.0793
15625TIP3    H268291   0.549   1.315   2.437 -0.5680  0.3773  0.2796
15626TIP3   OH268292   4.438   2.485  11.038  0.2622 -0.2326 -0.1083
15626TIP3    H168293   4.469   2.422  10.972 -0.8116  0.7483 -1.6052
15626TIP3    H268294   4.347   2.503  11.013  0.2794  1.2549  0.7969
15627TIP3   OH268295   1.640   1.108   0.882 -0.7835 -0.0466  0.5404
15627TIP3    H168296   1.640   1.144   0.793  1.4972 -0.8224  0.1404
15627TIP3    H268297   1.729   1.125   0.913 -0.8190 -1.9161  1.7641
15628TIP3   OH268298   1.879   6.403  11.924  0.4631 -0.5331  0.2702
15628TIP3    H168299   1.848   6.430  12.010  1.3352  2.4309 -0.2271
15628TIP3    H268300   1.804   6.418  11.865  0.8388  0.5775  0.0498
15629TIP3   OH268301   6.527   1.497  11.404 -0.2488  0.2712 -0.0658
15629TIP3    H168302   6.503   1.408  11.429 -0.4750  0.1108 -0.8381
15629TIP3    H268303   6.619   1.490  11.377  0.3737  0.6633  1.7598
15630TIP3   OH268304   4.360   4.639   4.305 -0.0999 -0.4175  0.0863
15630TIP3    H168305   4.454   4.656   4.311 -0.0239 -0.9525  0.5418
15630TIP3    H268306   4.325   4.712   4.254 -0.0238  1.9076  3.0870
15631TIP3   OH268307   6.070   4.993   5.267  0.4009 -0.1207  0.2592
15631TIP3    H168308   6.112   4.918   5.224 -1.6423 -1.0618 -0.2037
15631TIP3    H268309   6.006   5.023   5.203 -1.7237 -0.6341  2.0449
15632TIP3   OH268310   1.657   3.391   4.174  0.0806  0.5584  0.4028
15632TIP3    H168311   1.629   3.481   4.157  2.2653  0.9332 -1.6456
15632TIP3    H268312   1.610   3.338   4.110  3.1417  1.1012 -2.5479
15633TIP3   OH268313   2.494   2.175  13.365  0.3535  0.1232  0.1246
15633TIP3    H168314   2.467   2.214  13.448  0.0636 -1.0559  0.5926
15633TIP3    H268315   2.574   2.222  13.342  0.8754 -0.0653  1.4669
15634TIP3   OH268316   2.348   1.928  10.737  0.7501  0.4956 -0.5908
15634TIP3    H168317   2.342   1.892  10.826  1.9075  2.2549  0.2546
15634TIP3    H268318   2.257   1.941  10.711  0.3891  0.0560  0.3753
15635TIP3   OH268319   6.489   3.537   3.157  0.1520 -0.6361  0.1485
15635TIP3    H168320   6.419   3.588   3.198  0.8002 -0.1754  0.6937
15635TIP3    H268321   6.567   3.592   3.164  0.3318 -0.6446 -1.5219
15636TIP3   OH268322   3.675   0.608   4.184  0.2849  0.2170  0.6950
15636TIP3    H168323   3.764   0.593   4.215  1.1280  1.4336 -1.0303
15636TIP3    H268324   3.664   0.703   4.188 -0.6794  0.1371  0.1960
15637TIP3   OH268325   3.024   2.504  15.214  0.1798 -0.3177 -0.3636
15637TIP3    H168326   2.946   2.522  15.162  0.1568  0.8684  0.0357
15637TIP3    H268327   2.996   2.442  15.280 -1.5406  2.9235  2.2344
15638TIP3   OH268328   3.659   1.752  16.640  0.0341 -0.5390  0.3596
15638TIP3    H168329   3.712   1.743  16.720  0.9810  0.3041 -0.1496
15638TIP3    H268330   3.676   1.671  16.591  0.4495 -0.5049  0.4425
15639TIP3   OH268331   2.070   0.585  16.045  0.4054 -0.0747  0.7331
15639TIP3    H168332   2.136   0.555  15.982 -2.8205 -2.7679 -1.7659
15639TIP3    H268333   2.029   0.661  16.003  0.3011  0.0482  1.0563
15640TIP3   OH268334   1.958   1.783  11.932  0.2367  0.2216 -0.1284
15640TIP3    H168335   1.952   1.689  11.948 -0.0686  0.1754 -0.5078
15640TIP3    H268336   1.933   1.823  12.016 -2.2061 -0.0098 -0.6592
15641TIP3   OH268337   0.893   3.965  12.346 -0.1263  0.0277 -0.0537
15641TIP3    H168338   0.986   3.980  12.333  0.4603 -0.8981  2.5920
15641TIP3    H268339   0.882   3.962  12.441 -2.2934 -3.0807 -0.2635
15642TIP3   OH268340   0.269   2.141  12.957  0.5969 -0.1395  0.2329
15642TIP3    H168341   0.249   2.174  12.869 -0.8170 -0.3424  0.4471
15642TIP3    H268342   0.313   2.214  13.001  1.5758 -0.1378 -0.7255
15643TIP3   OH268343   3.940   5.282   1.774 -0.2769  0.5055  0.0226
15643TIP3    H168344   4.021   5.327   1.748  0.0256  0.8658  1.5166
15643TIP3    H268345   3.968   5.193   1.794  0.0846  1.0167  2.0386
15644TIP3   OH268346   0.537   5.548   1.597 -1.2459  0.8886  0.9492
15644TIP3    H168347   0.533   5.453   1.609 -2.9936  0.8460  0.3894
15644TIP3    H268348   0.568   5.581   1.681 -1.6324 -0.1260  1.5193
15645TIP3   OH268349   4.056   2.736  11.403 -0.1070 -0.0369  0.0999
15645TIP3    H168350   4.142   2.742  11.363  0.3096  0.3162  1.0210
15645TIP3    H268351   4.012   2.666  11.355  0.9668 -0.7402  0.1127
15646TIP3   OH268352   4.688   3.726   2.006 -0.3985  0.2278 -0.2135
15646TIP3    H168353   4.672   3.807   2.053 -0.4034 -0.0287  0.2366
15646TIP3    H268354   4.609   3.673   2.021  0.6709 -0.9432  1.8071
15647TIP3   OH268355   1.953   0.973   3.881  0.2200 -0.6196 -0.4782
15647TIP3    H168356   1.901   0.894   3.894 -2.4867  1.0897 -0.2585
15647TIP3    H268357   1.939   1.025   3.960 -1.2418  1.7283 -2.1552
15648TIP3   OH268358   3.257   0.135   4.787  0.1605  0.0634 -0.0801
15648TIP3    H168359   3.183   0.128   4.848 -0.2061  3.3161  0.0494
15648TIP3    H268360   3.216   0.154   4.703  0.7854  1.1890 -0.1479
15649TIP3   OH268361   6.615   5.359   5.487  0.1276 -0.0489  0.3079
15649TIP3    H168362   6.637   5.268   5.507  1.4653  0.4245  1.1337
15649TIP3    H268363   6.529   5.354   5.444  0.0047 -1.6522  0.6680
15650TIP3   OH268364   2.785   2.510  15.676  0.2492  0.4427 -0.0474
15650TIP3    H168365   2.842   2.492  15.751  1.8934  2.3603 -0.7478
15650TIP3    H268366   2.697   2.509  15.713  0.7422 -1.6367  1.2755
15651TIP3   OH268367   0.418   3.667  16.491 -0.4907 -0.1870  0.5722
15651TIP3    H168368   0.508   3.690  16.471 -0.2390 -1.0747  0.6199
15651TIP3    H268369   0.377   3.749  16.520  0.0956  0.3677 -0.1565
15652TIP3   OH268370   4.614   5.910  15.170  0.3152  0.1700  0.5811
15652TIP3    H168371   4.583   5.988  15.216 -0.7865  0.0720  0.0454
15652TIP3    H268372   4.536   5.855  15.162  0.7395 -0.3124 -0.3766
15653TIP3   OH268373   6.645   1.249   1.977 -0.0479  0.2768  0.6561
15653TIP3    H168374   6.629   1.321   1.916  2.0586  0.1791 -0.1022
15653TIP3    H268375   6.566   1.245   2.031 -1.9182  0.5003 -1.9052
15654TIP3   OH268376   1.919   4.094   0.099 -0.6999  0.1404  0.4840
15654TIP3    H168377   1.937   4.058   0.012 -1.4223  0.7792  0.0599
15654TIP3    H268378   1.824   4.098   0.105 -0.6740  2.1808  0.3996
15655TIP3   OH268379   6.485   5.865   3.284 -0.0739  0.0880  0.1455
15655TIP3    H168380   6.450   5.950   3.313 -0.6056 -0.0022 -0.2124
15655TIP3    H268381   6.476   5.867   3.189 -1.7387 -1.0546  0.2277
15656TIP3   OH268382   1.713   0.037   1.906  0.1921  0.0968  0.1463
15656TIP3    H168383   1.687  -0.022   1.836  1.3045  1.2559 -1.3006
15656TIP3    H268384   1.633   0.049   1.958 -0.6016 -0.9353 -0.8037
15657TIP3   OH268385   4.584   6.218  14.380  0.4722  0.1502 -0.0247
15657TIP3    H168386   4.677   6.236  14.392  0.6775 -0.0462 -1.1817
15657TIP3    H268387   4.576   6.192  14.288 -0.9018  1.2769 -0.2637
15658TIP3   OH268388   4.894   1.377   2.376  0.0958  0.9631  0.5696
15658TIP3    H168389   4.878   1.470   2.362 -1.7308  0.8045  1.2746
15658TIP3    H268390   4.816   1.334   2.340  0.4899 -0.2106  1.0912
15659TIP3   OH268391   3.446   0.551  13.783  0.0676 -0.1245  0.6939
15659TIP3    H168392   3.475   0.460  13.776 -1.0915 -0.5640  1.5303
15659TIP3    H268393   3.392   0.554  13.861  0.0739  1.2947  0.6726
15660TIP3   OH268394   4.266   0.261   6.194 -0.5476  0.4305 -0.1286
15660TIP3    H168395   4.296   0.343   6.233 -0.7705 -0.2658  1.5960
15660TIP3    H268396   4.324   0.247   6.119  0.6930  1.2255  0.6511
15661TIP3   OH268397   0.131   5.118   3.532 -0.1990  0.2769 -0.8942
15661TIP3    H168398   0.036   5.123   3.531 -0.4405 -2.5379 -0.3514
15661TIP3    H268399   0.158   5.134   3.442 -1.2467  0.4263 -1.1863
15662TIP3   OH268400   4.987   3.947  15.576  0.3863  0.0135  1.0993
15662TIP3    H168401   5.040   3.897  15.514 -0.4146  0.1601  0.2656
15662TIP3    H268402   4.947   3.880  15.632  1.4131 -0.0966  1.7274
15663TIP3   OH268403   3.401   4.350   1.542  0.0200  0.5569 -0.6919
15663TIP3    H168404   3.450   4.287   1.489  0.4492  0.1687  0.1436
15663TIP3    H268405   3.360   4.298   1.611 -0.5996  1.0395 -0.6820
15664TIP3   OH268406   0.955   5.832  11.047 -0.9363 -0.2722  0.1184
15664TIP3    H168407   1.045   5.836  11.015 -0.3138  1.3576  1.8625
15664TIP3    H268408   0.922   5.747  11.016  0.5375 -0.0861 -2.1568
15665TIP3   OH268409   4.915   3.164   2.752  0.2688  0.2231  0.3491
15665TIP3    H168410   4.964   3.172   2.835 -0.4459  0.8545  0.7247
15665TIP3    H268411   4.939   3.078   2.718 -1.3200 -1.1322  2.4397
15666TIP3   OH268412   5.038   2.542  12.620  0.0033 -0.6728 -0.1924
15666TIP3    H168413   5.003   2.502  12.700 -0.6986 -2.1937 -1.2099
15666TIP3    H268414   4.971   2.605  12.594  0.8882  0.8803  1.1576
15667TIP3   OH268415   5.769   3.278  15.537  0.4012 -0.2641  1.0222
15667TIP3    H168416   5.826   3.201  15.536 -1.2951 -1.5550  0.1653
15667TIP3    H268417   5.729   3.278  15.624  0.4627 -0.3013  1.0506
15668TIP3   OH268418   3.340   0.047   6.595 -0.1956 -0.6096 -0.7058
15668TIP3    H168419   3.284  -0.014   6.642 -0.0504  0.5102  1.0316
15668TIP3    H268420   3.416   0.060   6.652  0.4267  0.1413 -1.6557
15669TIP3   OH268421   3.575   5.771   3.044  0.1445  0.3008 -0.4156
15669TIP3    H168422   3.581   5.831   2.970  1.1275  1.1901  0.3441
15669TIP3    H268423   3.525   5.820   3.110  1.4758  0.5602  0.4369
15670TIP3   OH268424   6.377   0.600  15.990 -0.2752 -0.2268  0.5659
15670TIP3    H168425   6.372   0.681  15.940  1.0925 -0.3762  0.1538
15670TIP3    H268426   6.429   0.541  15.936 -1.8992 -1.6691  0.5058
15671TIP3   OH268427   2.500   5.164  13.928 -0.3556  0.4174 -0.0319
15671TIP3    H168428   2.585   5.204  13.912 -0.5774  1.8743  2.0421
15671TIP3    H268429   2.437   5.234  13.910 -1.4261 -1.2226 -3.7173
15672TIP3   OH268430   6.561   4.863   2.986 -0.0928 -0.1776 -0.5152
15672TIP3    H168431   6.535   4.936   2.930 -0.8843  0.8080  1.0665
15672TIP3    H268432   6.543   4.785   2.933 -2.7754  0.6184 -0.9346
15673TIP3   OH268433   4.476   1.567   5.669  0.2792  0.6783  0.4664
15673TIP3    H168434   4.381   1.555   5.670  0.1958  1.0479 -1.0501
15673TIP3    H268435   4.504   1.544   5.758 -0.8954 -2.0563  0.2274
15674TIP3   OH268436   4.357   2.578  12.307  0.3716  0.5702 -0.5464
15674TIP3    H168437   4.267   2.603  12.327  1.6067  3.5888  1.9736
15674TIP3    H268438   4.376   2.506  12.368 -0.0649  0.4264 -0.5734
15675TIP3   OH268439   0.407   0.628  11.990  0.4381  0.0665  0.3308
15675TIP3    H168440   0.420   0.671  11.905 -2.0905  1.4035  0.5148
15675TIP3    H268441   0.393   0.536  11.968  1.0822  0.1689 -0.5735
15676TIP3   OH268442   1.325   2.120   3.846  0.2621  0.0323  0.4675
15676TIP3    H168443   1.285   2.103   3.761 -0.9413 -2.0132  1.3793
15676TIP3    H268444   1.418   2.128   3.827 -0.2034  2.4392 -1.3803
15677TIP3   OH268445   2.993   5.318   0.890  0.4618 -1.0769 -0.3693
15677TIP3    H168446   2.942   5.262   0.832  0.1727 -0.9985 -0.1954
15677TIP3    H268447   3.025   5.388   0.833 -2.4564  0.7984  0.0706
15678TIP3   OH268448   2.912   6.089  12.748 -0.1329  0.4471  0.0838
15678TIP3    H168449   3.001   6.067  12.775 -1.0118 -2.3113  1.0278
15678TIP3    H268450   2.909   6.069  12.655 -0.2992 -1.5366  0.4854
15679TIP3   OH268451   0.019   2.343  14.923 -0.2252  0.8157 -0.5395
15679TIP3    H168452   0.075   2.397  14.978 -1.2136  0.5795  0.7463
15679TIP3    H268453  -0.012   2.402  14.854 -1.6934  2.0805  1.1230
15680TIP3   OH268454   4.133   6.220  13.764 -0.8979  0.0971 -0.2984
15680TIP3    H168455   4.096   6.265  13.840 -2.7984 -0.4510 -0.8523
15680TIP3    H268456   4.212   6.270  13.743 -1.7252  1.8031  0.4777
15681TIP3   OH268457   5.917   5.828  15.322  0.7798 -0.5939  0.0074
15681TIP3    H168458   5.913   5.844  15.416  0.4731 -0.5346 -0.0129
15681TIP3    H268459   5.835   5.783  15.302  0.4856  0.0912 -0.3591
15682TIP3   OH268460   5.383   2.441  12.794  0.0481 -0.2244  0.6545
15682TIP3    H168461   5.425   2.484  12.719 -1.1131 -0.3107 -0.0788
15682TIP3    H268462   5.293   2.425  12.764 -0.8136  0.8709  2.5362
15683TIP3   OH268463   0.116   6.208  13.802 -0.3167  1.0517  0.3314
15683TIP3    H168464   0.124   6.113  13.809  0.7830  0.9307 -1.7104
15683TIP3    H268465   0.147   6.241  13.886  0.4505 -0.3587  0.6402
15684TIP3   OH268466   5.868   2.613   1.409  0.1357  0.0604 -0.5809
15684TIP3    H168467   5.888   2.628   1.316  1.2500 -1.7240 -0.6791
15684TIP3    H268468   5.773   2.598   1.411 -0.0319  0.9430 -1.2886
15685TIP3   OH268469   4.937   5.531  16.481 -0.3307  0.1204  0.0144
15685TIP3    H168470   4.921   5.455  16.537 -1.3239 -0.1104 -0.5574
15685TIP3    H268471   4.896   5.604  16.529 -0.7615  0.0068 -0.1744
15686TIP3   OH268472   5.352   2.606   2.508  0.0823  0.3061  0.6209
15686TIP3    H168473   5.313   2.641   2.428  1.5272 -2.0335 -1.2095
15686TIP3    H268474   5.295   2.640   2.578 -1.0489  2.7151 -1.2798
15687TIP3   OH268475   1.248   5.752  16.320 -0.3236  0.0739 -0.0003
15687TIP3    H168476   1.297   5.762  16.238  0.0887  1.3104  0.3690
15687TIP3    H268477   1.219   5.661  16.320 -1.6274  0.4097 -2.2395
15688TIP3   OH268478   2.439   4.994   5.988  0.0869 -0.0701 -0.5297
15688TIP3    H168479   2.452   5.015   6.080 -0.6476  0.5746 -0.5621
15688TIP3    H268480   2.357   4.945   5.985 -0.7090  1.2201 -0.9792
15689TIP3   OH268481   4.668   3.294   4.906  0.1635  0.3255 -0.2976
15689TIP3    H168482   4.709   3.344   4.976 -0.2458  0.8608 -0.4292
15689TIP3    H268483   4.737   3.236   4.874  1.5261  2.6426 -1.9313
15690TIP3   OH268484   4.546   3.027  15.651  0.4164  0.2485 -0.2904
15690TIP3    H168485   4.562   2.936  15.625  0.9374 -0.0900  1.1054
15690TIP3    H268486   4.479   3.021  15.719 -0.2780  1.0123 -0.8911
15691TIP3   OH268487   2.965   4.536   3.522 -0.1351 -0.1589  0.5182
15691TIP3    H168488   2.927   4.449   3.509 -1.7230  0.0968  2.7799
15691TIP3    H268489   2.961   4.578   3.436 -2.8926 -0.9955  0.1571
15692TIP3   OH268490   5.767   3.269  17.314  0.3374  0.8241 -0.5586
15692TIP3    H168491   5.693   3.256  17.255  0.3178  0.4757 -0.4570
15692TIP3    H268492   5.758   3.359  17.344 -0.7704  0.4069  0.4481
15693TIP3   OH268493   1.934   0.243   3.880 -1.0416  0.1381 -0.1709
15693TIP3    H168494   1.931   0.272   3.972 -0.2508  0.3632 -0.2060
15693TIP3    H268495   2.027   0.242   3.859 -1.0659 -1.9162 -0.3424
15694TIP3   OH268496   1.180   0.949  15.947 -0.0274  0.4504 -0.0242
15694TIP3    H168497   1.115   1.011  15.912 -2.6345 -1.3959  1.2165
15694TIP3    H268498   1.200   0.982  16.035  0.0490  0.5437 -0.0762
15695TIP3   OH268499   0.835   6.466   2.331  0.2015 -0.1008  0.2948
15695TIP3    H168500   0.811   6.456   2.423  1.0425  0.0709  0.5389
15695TIP3    H268501   0.869   6.381   2.305  0.6366  0.0533  0.3492
15696TIP3   OH268502   2.883   5.681   0.589 -0.0538 -0.4041  0.3134
15696TIP3    H168503   2.880   5.725   0.674  1.5727 -0.5465  0.4932
15696TIP3    H268504   2.926   5.597   0.608  1.2381 -0.0204 -0.7949
15697TIP3   OH268505   0.878   6.473   6.087 -0.2122  0.3590  0.2906
15697TIP3    H168506   0.926   6.419   6.024 -1.5175  0.4567 -0.8375
15697TIP3    H268507   0.816   6.413   6.128 -2.4352  1.0828 -1.7506
15698TIP3   OH268508   0.416   0.805   1.716 -0.1750 -0.5574 -0.2078
15698TIP3    H168509   0.494   0.844   1.675  0.5425 -1.0563  0.6371
15698TIP3    H268510   0.353   0.877   1.722  1.0737  0.4830  1.1931
15699TIP3   OH268511   5.365   1.690   3.304  0.1095 -0.3668 -0.5060
15699TIP3    H168512   5.345   1.777   3.268 -0.9994 -1.3185 -2.2947
15699TIP3    H268513   5.439   1.659   3.253 -0.5002 -1.1067 -0.9543
15700TIP3   OH268514   4.240   5.537  14.617  0.1069  0.2305  0.0663
15700TIP3    H168515   4.160   5.553  14.668 -1.6018  1.1199 -2.6799
15700TIP3    H268516   4.282   5.622  14.611 -0.3455  0.4043 -0.9289
15701TIP3   OH268517   4.389   2.294  16.840 -0.1074 -0.2919  0.1020
15701TIP3    H168518   4.366   2.362  16.775  0.1306 -0.2038  0.1096
15701TIP3    H268519   4.323   2.305  16.909  0.3518  0.4035  0.4424
15702TIP3   OH268520   5.303   1.853  14.305 -0.0083 -0.2503  0.1099
15702TIP3    H168521   5.244   1.920  14.338  0.4991 -0.8773  2.4956
15702TIP3    H268522   5.250   1.773  14.303 -0.0214 -0.2283 -0.6053
15703TIP3   OH268523   2.828   2.372   5.804 -0.5115  1.1132 -0.4688
15703TIP3    H168524   2.886   2.435   5.761 -1.4217  1.6600 -0.9403
15703TIP3    H268525   2.786   2.422   5.873  0.4654  0.3999  0.6862
15704TIP3   OH268526   5.260   6.742   1.110 -0.1291  0.2449  0.1997
15704TIP3    H168527   5.227   6.827   1.078 -0.4586  1.3191  3.1301
15704TIP3    H268528   5.182   6.686   1.112 -0.0254  0.0189 -1.1782
15705TIP3   OH268529   0.291   6.119  15.040  0.7243  0.2935  0.1269
15705TIP3    H168530   0.363   6.133  14.978 -0.2300  1.7421 -0.7136
15705TIP3    H268531   0.220   6.083  14.986  0.5623 -0.4504  0.8102
15706TIP3   OH268532   0.049   3.952  17.096 -0.1322  0.6724 -0.4744
15706TIP3    H168533   0.080   3.861  17.095 -2.1222 -0.0849  0.4715
15706TIP3    H268534  -0.011   3.958  17.021  0.0400  1.2236 -0.5705
15707TIP3   OH268535   0.228   2.230   1.234 -0.2704 -0.4002  0.3759
15707TIP3    H168536   0.281   2.257   1.309 -0.8875  3.4057 -0.3635
15707TIP3    H268537   0.152   2.188   1.273  1.2275 -2.1486  1.6164
15708TIP3   OH268538   0.899   1.768   0.615  0.0953  0.1970  0.3055
15708TIP3    H168539   0.860   1.848   0.649 -0.5989 -0.1987  0.4690
15708TIP3    H268540   0.990   1.791   0.595 -0.4128  1.3344 -0.7788
15709TIP3   OH268541   5.691   5.162  13.473 -0.5626 -0.1039 -0.2076
15709TIP3    H168542   5.757   5.124  13.414  0.7188 -0.1518  1.1987
15709TIP3    H268543   5.725   5.248  13.495 -2.1391  0.8463 -1.2455
15710TIP3   OH268544   5.069   0.929   1.192 -0.2286  0.6675 -0.5499
15710TIP3    H168545   5.014   0.921   1.270 -0.9423 -0.7475 -1.1416
15710TIP3    H268546   5.025   0.994   1.138 -1.3265 -0.4112 -0.9895
15711TIP3   OH268547   2.476   0.677   3.373 -0.7460 -0.0581 -0.0376
15711TIP3    H168548   2.409   0.662   3.307 -1.9008  2.0161  0.5714
15711TIP3    H268549   2.431   0.724   3.443  1.4956  2.3550 -0.0457
15712TIP3   OH268550   0.233   6.748   4.249  0.1258 -0.3197 -0.4821
15712TIP3    H168551   0.255   6.703   4.330 -2.0261 -0.4911  0.0632
15712TIP3    H268552   0.143   6.723   4.231  0.2704  0.3997 -2.4791
15713TIP3   OH268553   6.765   2.192   2.661  0.4256  0.5556 -0.0541
15713TIP3    H168554   6.718   2.138   2.598  0.8371 -0.1968  0.2726
15713TIP3    H268555   6.696   2.235   2.712  0.0868 -0.2946  0.2155
15714TIP3   OH268556   3.336   0.378  12.684 -0.0143 -0.4303  0.1899
15714TIP3    H168557   3.262   0.319  12.670  0.6452 -1.5195  1.1080
15714TIP3    H268558   3.301   0.448  12.739  0.0914 -2.0482  2.4252
15715TIP3   OH268559   5.998   0.006   2.234  0.6163 -0.5928 -0.4471
15715TIP3    H168560   5.956   0.062   2.168  0.0536  0.6699  0.8976
15715TIP3    H268561   5.927  -0.016   2.295  1.0939 -1.7971 -0.3016
15716TIP3   OH268562   5.466   5.099   0.234 -0.8608 -0.0417  0.0891
15716TIP3    H168563   5.493   5.164   0.169  1.3570 -1.0920 -0.1357
15716TIP3    H268564   5.427   5.151   0.304 -0.1152  1.4507 -0.5514
15717TIP3   OH268565   1.824   6.557  17.317  0.1740 -0.2584 -0.0030
15717TIP3    H168566   1.824   6.587  17.226 -0.2180 -1.0208 -0.2610
15717TIP3    H268567   1.735   6.574  17.347 -0.2831 -1.8718 -0.3988
15718TIP3   OH268568   5.977   3.986  16.030  0.1734 -0.1399 -0.6578
15718TIP3    H168569   6.008   4.072  16.056  0.3103 -0.6081  0.8273
15718TIP3    H268570   5.883   3.999  16.013 -0.0196  0.1360  0.4973
15719TIP3   OH268571   3.106   2.874   5.060 -0.6497  0.4307 -0.0424
15719TIP3    H168572   3.163   2.950   5.048 -0.6009  0.5059  0.6645
15719TIP3    H268573   3.093   2.840   4.971  0.3913  0.4890 -0.2280
15720TIP3   OH268574   4.257   3.261  11.390 -0.0014 -0.1845  0.4259
15720TIP3    H168575   4.216   3.181  11.422 -0.1357 -0.5858 -0.7257
15720TIP3    H268576   4.326   3.232  11.331 -1.1064  0.5315 -1.3044
15721TIP3   OH268577   5.646   3.977   3.661  0.2231  0.1573 -0.4606
15721TIP3    H168578   5.592   4.049   3.694  1.3139  0.2304  1.3341
15721TIP3    H268579   5.604   3.950   3.579 -1.3411  1.5190 -0.1560
15722TIP3   OH268580   5.339   5.487   4.668  0.2566  0.3719 -0.9404
15722TIP3    H168581   5.377   5.575   4.675  1.0807 -0.0772  0.9186
15722TIP3    H268582   5.414   5.428   4.675 -0.5163 -0.5071  0.6171
15723TIP3   OH268583   3.308   1.230   5.674 -0.2560  0.4763 -0.5628
15723TIP3    H168584   3.387   1.180   5.653 -0.2657 -0.2998  1.0710
15723TIP3    H268585   3.307   1.235   5.769 -1.0525  2.3725 -0.6192
15724TIP3   OH268586   4.624   2.320  14.221  0.1932  0.6316  0.5294
15724TIP3    H168587   4.576   2.402  14.220 -1.8115 -0.4707  1.0749
15724TIP3    H268588   4.582   2.268  14.290  1.5036 -0.7987  0.3207
15725TIP3   OH268589   6.546   5.298   3.383 -0.3625  0.4373 -0.2675
15725TIP3    H168590   6.531   5.391   3.365  0.3901  0.9220  1.3545
15725TIP3    H268591   6.565   5.295   3.477 -0.7799 -1.4230 -0.2020
15726TIP3   OH268592   0.550   0.625   6.179 -0.1994 -0.5106  0.1624
15726TIP3    H168593   0.519   0.634   6.269 -0.1854 -0.9471  0.2103
15726TIP3    H268594   0.603   0.546   6.179  1.3058  0.4687  0.1838
15727TIP3   OH268595   4.880   1.099  11.507 -0.2453 -0.8025  0.3659
15727TIP3    H168596   4.875   1.180  11.558 -0.3794 -0.5025 -0.1182
15727TIP3    H268597   4.790   1.082  11.480 -0.5000 -2.0527  1.9055
15728TIP3   OH268598   0.154   4.374  13.339 -0.3113  0.1308 -0.6321
15728TIP3    H168599   0.166   4.459  13.297 -1.1535  0.2092 -0.7377
15728TIP3    H268600   0.098   4.324  13.279  0.5319 -0.6605 -0.7773
15729TIP3   OH268601   0.432   5.238   4.253 -0.3282 -0.4839  0.2044
15729TIP3    H168602   0.456   5.322   4.214 -0.5866  0.4007  1.8877
15729TIP3    H268603   0.442   5.175   4.181 -0.5165  1.0247 -1.2081
15730TIP3   OH268604   5.466   3.690   2.810  0.4373 -0.3289 -0.3388
15730TIP3    H168605   5.376   3.722   2.819  0.1227 -1.4559  1.0085
15730TIP3    H268606   5.471   3.655   2.721 -0.7993 -1.1869 -0.0963
15731TIP3   OH268607   5.336   6.772   3.555 -0.0101  0.0157  0.0245
15731TIP3    H168608   5.288   6.841   3.600 -1.2008 -0.3472 -0.6257
15731TIP3    H268609   5.288   6.692   3.577 -0.9226 -0.1209 -2.2036
15732TIP3   OH268610   3.148   3.987  15.725  0.4793  0.3735 -0.2136
15732TIP3    H168611   3.158   4.071  15.680  0.0392  0.3629 -0.3324
15732TIP3    H268612   3.213   3.930  15.683  1.4878  0.9183  0.5430
15733TIP3   OH268613   0.478   2.479  16.389 -1.0240  0.3182  0.1079
15733TIP3    H168614   0.542   2.550  16.390 -1.1796  0.4471  0.9785
15733TIP3    H268615   0.396   2.521  16.362 -0.7739  0.1602 -0.9689
15734TIP3   OH268616   4.267   1.494   1.610  0.2644  0.1616 -0.2907
15734TIP3    H168617   4.248   1.462   1.698 -1.1215  1.0904 -0.2229
15734TIP3    H268618   4.310   1.579   1.624  1.0115 -0.1753 -0.5053
15735TIP3   OH268619   6.718   5.508  10.630  0.6230  0.3290  0.3512
15735TIP3    H168620   6.792   5.452  10.653 -0.3996 -1.5392 -0.6305
15735TIP3    H268621   6.648   5.480  10.689  0.3831  1.3884  0.5956
15736TIP3   OH268622   6.105   5.628   4.814 -0.2968  0.1226  0.8876
15736TIP3    H168623   6.119   5.537   4.841 -1.3828  0.3003  2.1195
15736TIP3    H268624   6.061   5.621   4.729  0.9476 -0.4639  0.2597
15737TIP3   OH268625   5.879   0.357  12.772  0.2345  0.4075  0.5751
15737TIP3    H168626   5.936   0.375  12.847 -0.3183  0.4075  0.9977
15737TIP3    H268627   5.936   0.367  12.696  0.8540  0.2007  1.0033
15738TIP3   OH268628   4.369   0.791  15.788  0.2693 -0.5353  0.2682
15738TIP3    H168629   4.438   0.730  15.814 -0.0771 -0.1992  2.1015
15738TIP3    H268630   4.412   0.877  15.789  0.2137 -0.5002 -0.1657
15739TIP3   OH268631   1.812   3.964  13.421  0.6748 -0.5274  0.2793
15739TIP3    H168632   1.797   3.883  13.374 -0.3332  0.8569 -1.9270
15739TIP3    H268633   1.725   3.997  13.442  1.0307  0.3695  0.4155
15740TIP3   OH268634   1.095   4.206  12.537 -0.3460  0.4090  0.6139
15740TIP3    H168635   1.147   4.238  12.463 -2.1441 -0.1966 -0.9911
15740TIP3    H268636   1.088   4.282  12.595  0.1359  1.2594 -0.4051
15741TIP3   OH268637   3.471   3.050   6.023  0.3537  0.2990 -0.0437
15741TIP3    H168638   3.405   3.071   6.089 -0.8425  0.0650 -1.1121
15741TIP3    H268639   3.518   3.132   6.009  0.3707  0.4396  0.8214
15742TIP3   OH268640   3.957   6.567   2.044 -0.2754 -0.3717 -0.1744
15742TIP3    H168641   3.899   6.634   2.008 -0.0647 -0.4885 -0.7355
15742TIP3    H268642   3.899   6.509   2.094 -0.5792 -0.2517 -0.3834
15743TIP3   OH268643   2.664   5.787   4.256 -0.0000  0.5753  0.2785
15743TIP3    H168644   2.671   5.730   4.180  1.3969  2.0798 -0.7906
15743TIP3    H268645   2.692   5.733   4.330  0.3896 -0.3894 -0.5571
15744TIP3   OH268646   6.020   2.947  12.007 -0.1276 -0.2644  0.3574
15744TIP3    H168647   6.110   2.958  12.036 -0.7055 -1.1849  2.7530
15744TIP3    H268648   5.991   2.865  12.047 -1.5105 -0.9524 -1.8332
15745TIP3   OH268649   3.917   2.795  15.600 -0.1250  0.3180 -0.3015
15745TIP3    H168650   3.882   2.724  15.653  0.0864  0.2383 -0.2673
15745TIP3    H268651   3.843   2.853  15.584  0.2980  1.6794  2.1827
15746TIP3   OH268652   5.046   1.125  16.149  0.7955  0.2729  0.2301
15746TIP3    H168653   4.999   1.042  16.138  0.0664  0.6341  0.5768
15746TIP3    H268654   5.123   1.116  16.093  0.2111 -0.2579 -0.5160
15747TIP3   OH268655   2.049   4.711   6.325 -0.2617 -0.0135 -0.3206
15747TIP3    H168656   2.020   4.622   6.348 -1.0090  0.5721  1.1457
15747TIP3    H268657   1.975   4.767   6.350  0.6859  1.1508 -0.0557
15748TIP3   OH268658   4.614   0.743   5.191  0.0041 -0.0073  0.2159
15748TIP3    H168659   4.664   0.733   5.271  0.3935  1.1920  0.1427
15748TIP3    H268660   4.573   0.829   5.199 -1.9342 -0.8656  0.1998
15749TIP3   OH268661   2.549   4.342   4.532  0.2693  0.4662  0.0343
15749TIP3    H168662   2.611   4.318   4.463 -0.2535  1.1981 -0.7063
15749TIP3    H268663   2.464   4.345   4.488  0.0806  2.0155  0.4498
15750TIP3   OH268664   0.234   3.355  17.079 -0.5010 -0.1388  0.0558
15750TIP3    H168665   0.305   3.400  17.033 -1.6023  1.5889 -0.0320
15750TIP3    H268666   0.161   3.358  17.017 -1.2182 -0.1556  0.8926
15751TIP3   OH268667   4.049   5.991  13.933  0.0607  0.1991 -0.0602
15751TIP3    H168668   4.046   6.029  14.021 -0.2512  2.2397 -0.8964
15751TIP3    H268669   4.074   6.064  13.876  0.5259 -1.1339 -1.6451
15752TIP3   OH268670   2.548   2.238  16.919  0.3748  0.3450  0.0654
15752TIP3    H168671   2.500   2.184  16.857 -1.3150 -1.1365  2.4982
15752TIP3    H268672   2.627   2.188  16.938  0.5725  0.4878 -0.3605
15753TIP3   OH268673   0.731   2.384   0.241 -0.0314 -0.6636 -0.2219
15753TIP3    H168674   0.697   2.442   0.172  0.7869  0.4768  0.3073
15753TIP3    H268675   0.655   2.331   0.266 -0.8495  0.2728 -0.6258
15754TIP3   OH268676   1.184   1.832  11.057 -0.2251  0.5583  0.0809
15754TIP3    H168677   1.276   1.809  11.046 -0.3753  0.5916 -1.3865
15754TIP3    H268678   1.137   1.752  11.033 -0.6136  0.9144 -0.3525
15755TIP3   OH268679   4.638   3.360  17.165 -0.1828 -0.2568  0.1873
15755TIP3    H168680   4.651   3.428  17.099 -0.9026  0.4887  0.7867
15755TIP3    H268681   4.574   3.398  17.226 -1.4611 -1.9099 -0.0685
15756TIP3   OH268682   4.156   1.749  16.555  0.2701  0.3671  0.5191
15756TIP3    H168683   4.145   1.785  16.643  0.0896 -0.3741  0.8039
15756TIP3    H268684   4.093   1.799  16.501 -0.1720  0.2942  0.9608
15757TIP3   OH268685   0.576   1.787   5.967 -0.0665 -0.3642  0.3603
15757TIP3    H168686   0.534   1.844   5.904  0.5748  2.1370  2.0560
15757TIP3    H268687   0.504   1.737   6.006 -1.1113  1.5494  0.9906
15758TIP3   OH268688   1.750   6.284  17.253  0.3373 -0.0385  0.1675
15758TIP3    H168689   1.768   6.373  17.283 -0.8288 -0.2591  1.6746
15758TIP3    H268690   1.714   6.240  17.330 -1.0356 -1.2301 -1.0814
15759TIP3   OH268691   0.288   5.774  15.074 -0.4857 -0.1513 -0.1303
15759TIP3    H168692   0.333   5.845  15.028  0.6373  0.6136  2.0547
15759TIP3    H268693   0.353   5.705  15.081 -0.9136 -0.5879 -0.3935
15760TIP3   OH268694   5.536   4.862  15.912  0.0257  0.3545  0.6255
15760TIP3    H168695   5.525   4.907  15.996  1.0235  2.8585 -0.4775
15760TIP3    H268696   5.461   4.890  15.860  0.9689  1.2928 -0.2771
15761TIP3   OH268697   2.793   3.607  16.161  0.7826  0.4597  0.1269
15761TIP3    H168698   2.768   3.515  16.156  2.7901 -0.0978 -0.8633
15761TIP3    H268699   2.859   3.611  16.231  2.2535  0.6932 -1.2081
15762TIP3   OH268700   2.978   0.391   4.831 -0.1297  0.4632 -0.3482
15762TIP3    H168701   3.001   0.332   4.760  1.8188 -0.0151  0.5947
15762TIP3    H268702   2.966   0.334   4.907 -1.8909  0.9856 -0.2012
15763TIP3   OH268703   1.682   3.242  15.608 -0.1188 -0.5147 -0.3650
15763TIP3    H168704   1.662   3.328  15.644 -1.7936 -0.8469 -0.3822
15763TIP3    H268705   1.691   3.185  15.685  0.4926 -0.4234 -0.3666
15764TIP3   OH268706   4.711   0.769   2.589  0.0660  0.2416  0.2092
15764TIP3    H168707   4.737   0.688   2.546 -0.9289  0.5298 -1.0129
15764TIP3    H268708   4.789   0.799   2.634  0.9600 -0.4641 -0.8187
15765TIP3   OH268709   3.716   2.661   4.410 -0.2429  0.4340 -0.3504
15765TIP3    H168710   3.743   2.572   4.387 -2.7468 -0.0581 -1.8349
15765TIP3    H268711   3.796   2.713   4.406  1.1942 -1.6168  0.0006
15766TIP3   OH268712   5.260   6.379  15.399  0.1263 -0.4837 -0.6035
15766TIP3    H168713   5.273   6.343  15.486 -0.2307 -1.0667 -0.7857
15766TIP3    H268714   5.171   6.353  15.374 -0.3694  1.0001 -0.5247
15767TIP3   OH268715   4.313   4.880  15.603 -0.4723 -0.4683  0.0971
15767TIP3    H168716   4.406   4.900  15.614 -0.5203 -0.8289  1.3365
15767TIP3    H268717   4.282   4.942  15.537  0.7399 -0.6572 -0.6832
15768TIP3   OH268718   0.999   1.123   6.099  0.2924 -0.3299 -0.2481
15768TIP3    H168719   1.044   1.207   6.106 -2.4945  1.3501 -0.9552
15768TIP3    H268720   0.906   1.146   6.094 -0.6821 -3.5549  0.8295
15769TIP3   OH268721   6.028   5.908   0.409  0.1607  0.0416 -0.3300
15769TIP3    H168722   6.099   5.844   0.414 -1.0921 -1.3826  0.0384
15769TIP3    H268723   5.959   5.863   0.360  0.0937  1.9907 -2.1353
15770TIP3   OH268724   1.014   3.233   1.362  0.1882  0.5382  0.5672
15770TIP3    H168725   1.040   3.144   1.339 -0.6911  0.2788  0.5264
15770TIP3    H268726   0.970   3.224   1.447 -0.0042  0.9128  0.5125
15771TIP3   OH268727   3.259   1.215   0.886  0.0577  0.3203 -0.2531
15771TIP3    H168728   3.243   1.261   0.804 -0.3464 -1.2289 -1.0855
15771TIP3    H268729   3.194   1.145   0.887  0.7473 -0.3299  0.8940
15772TIP3   OH268730   6.659   0.948   1.903  0.5216  0.5736 -0.0068
15772TIP3    H168731   6.638   1.042   1.904  3.5971  1.3729  0.0165
15772TIP3    H268732   6.602   0.910   1.969 -1.4342  2.2241 -0.6066
15773TIP3   OH268733   6.387   5.388  11.054  0.1319  0.2104 -0.0625
15773TIP3    H168734   6.379   5.365  10.961  1.4140 -0.9710  0.0884
15773TIP3    H268735   6.355   5.312  11.101  0.5798  0.3400  0.4608
15774TIP3   OH268736   1.155   0.178   0.030  0.1084 -0.0303 -0.6554
15774TIP3    H168737   1.178   0.250  -0.028 -0.0374 -0.0132 -0.6905
15774TIP3    H268738   1.185   0.206   0.117  1.1934 -0.4475 -0.8707
15775TIP3   OH268739   6.529   0.291   1.950 -0.5638 -0.6808 -0.8317
15775TIP3    H168740   6.585   0.285   2.028  1.9794 -2.2651 -2.6353
15775TIP3    H268741   6.467   0.219   1.959  0.3530 -1.4602 -0.7330
15776TIP3   OH268742   3.578   6.682  14.643  0.1822  0.8399  0.1977
15776TIP3    H168743   3.666   6.720  14.643  2.2464 -3.1872  2.9131
15776TIP3    H268744   3.582   6.613  14.577 -0.6334  0.1145  0.8718
15777TIP3   OH268745   5.398   5.353  10.751 -0.1314 -0.4560  0.7295
15777TIP3    H168746   5.369   5.416  10.686  0.2102 -0.1491  0.8704
15777TIP3    H268747   5.444   5.286  10.701  0.8298  0.1867  0.7241
15778TIP3   OH268748   6.088   6.296   4.543  0.2075  0.1770  0.1764
15778TIP3    H168749   6.176   6.307   4.509  0.5173  1.7425  1.4016
15778TIP3    H268750   6.039   6.370   4.507 -0.4010 -0.2099  0.1862
15779TIP3   OH268751   4.643   2.452   0.692  0.1808 -0.4588  0.0814
15779TIP3    H168752   4.697   2.503   0.752  1.0715 -0.7556 -0.4432
15779TIP3    H268753   4.604   2.384   0.747  0.4339 -0.3087  0.4504
15780TIP3   OH268754   6.330   0.489  15.183 -0.2923  0.0171  0.3307
15780TIP3    H168755   6.327   0.555  15.113 -2.9708 -1.0865 -0.7304
15780TIP3    H268756   6.248   0.501  15.230  0.4869 -0.7129  1.9413
15781TIP3   OH268757   3.636   0.247  15.271  0.2877  0.0774 -0.4098
15781TIP3    H168758   3.652   0.184  15.341  1.4049  1.4197  0.5948
15781TIP3    H268759   3.706   0.232  15.208 -0.7447 -1.1629 -1.3220
15782TIP3   OH268760   4.948   5.744   2.522 -0.1459 -0.0409  0.0659
15782TIP3    H168761   4.887   5.818   2.516  0.9006  0.8937  0.5917
15782TIP3    H268762   4.978   5.731   2.432 -1.1969 -0.5986 -0.2220
15783TIP3   OH268763   0.686   5.832   3.014 -0.4049 -0.1581  0.2960
15783TIP3    H168764   0.651   5.756   3.061 -0.8181  0.6936  1.3926
15783TIP3    H268765   0.696   5.900   3.081  0.9605  0.4352 -0.4696
15784TIP3   OH268766   5.119   2.725   4.247  0.2730  0.3561 -0.2594
15784TIP3    H168767   5.141   2.817   4.255 -0.4733  0.6289 -1.2102
15784TIP3    H268768   5.158   2.698   4.163  0.4722 -0.1921  0.0036
15785TIP3   OH268769   1.161   2.484  11.886  0.0464 -0.4398 -0.0633
15785TIP3    H168770   1.092   2.445  11.939  0.2424 -1.2352 -0.3733
15785TIP3    H268771   1.238   2.429  11.902  0.9091  1.0123  1.0622
15786TIP3   OH268772   0.385   0.393   5.058 -0.0690 -0.3512  0.6356
15786TIP3    H168773   0.349   0.462   5.114  0.1298  1.1766 -1.0166
15786TIP3    H268774   0.440   0.341   5.115  1.4311  2.1091  1.5661
15787TIP3   OH268775   6.393   5.277   2.104  0.5992 -0.3332  0.1571
15787TIP3    H168776   6.363   5.351   2.157 -0.5486 -1.9721  1.9042
15787TIP3    H268777   6.384   5.308   2.013 -1.7945  0.9994  0.7628
15788TIP3   OH268778   1.711   6.560  14.057  0.0888  0.2545  0.2990
15788TIP3    H168779   1.776   6.516  14.002  0.2394 -0.8312  1.3032
15788TIP3    H268780   1.634   6.504  14.052 -0.4669  1.0352 -0.1218
15789TIP3   OH268781   4.481   5.959  16.287  0.0148 -0.0172  0.3944
15789TIP3    H168782   4.493   5.865  16.300 -1.9136 -0.3498  0.1021
15789TIP3    H268783   4.476   5.995  16.376 -2.6850 -0.7584  0.6529
15790TIP3   OH268784   5.059   6.712  14.716 -0.0798  0.4827  0.1762
15790TIP3    H168785   5.129   6.655  14.747 -0.0136  1.2463  1.5132
15790TIP3    H268786   4.979   6.661  14.729  0.1055  0.1021 -0.1436
15791TIP3   OH268787   0.816   5.458  13.669  0.5362  0.8570 -0.8087
15791TIP3    H168788   0.861   5.384  13.710 -0.3672  1.2023  0.9312
15791TIP3    H268789   0.868   5.478  13.592 -0.3705 -2.9979 -2.6934
15792TIP3   OH268790   2.187   2.755   1.262 -0.3260  0.2685 -0.1936
15792TIP3    H168791   2.264   2.701   1.279 -1.2560 -1.7697 -2.0505
15792TIP3    H268792   2.212   2.842   1.294  1.6250 -0.9488  1.9455
15793TIP3   OH268793   3.970   2.449   4.794  0.2046 -0.0151  0.5144
15793TIP3    H168794   3.931   2.486   4.715  1.9278  0.0670 -0.3508
15793TIP3    H268795   3.925   2.493   4.867 -0.1803  1.2169 -0.4424
15794TIP3   OH268796   2.890   3.996  11.004 -0.1225  0.3280  0.4677
15794TIP3    H168797   2.834   4.071  10.982  0.5795  1.0948  1.2027
15794TIP3    H268798   2.868   3.975  11.095  0.2459  0.1547  0.5212
15795TIP3   OH268799   6.250   1.164   4.123  0.1661  0.1422 -0.3671
15795TIP3    H168800   6.188   1.098   4.092 -1.7026  1.2848  0.7711
15795TIP3    H268801   6.244   1.161   4.218  2.1632  0.0618 -0.1990
15796TIP3   OH268802   5.628   0.344  12.638  0.2324 -0.2495  0.1608
15796TIP3    H168803   5.711   0.342  12.686  0.2710 -0.3438  0.0908
15796TIP3    H268804   5.652   0.323  12.548  0.0800 -0.6857  0.2188
15797TIP3   OH268805   5.804   0.717  15.834  0.3423  0.0274  0.1424
15797TIP3    H168806   5.882   0.669  15.809 -2.1656 -3.4891 -1.8342
15797TIP3    H268807   5.759   0.660  15.896 -0.7674  1.8808  1.1323
15798TIP3   OH268808   0.661   0.751   4.899 -0.0128  0.0080 -0.0179
15798TIP3    H168809   0.685   0.738   4.991 -1.1471 -0.2607  0.2477
15798TIP3    H268810   0.685   0.669   4.856  0.4820  0.1192  0.0325
15799TIP3   OH268811   0.509   1.909   1.112  0.4395  0.2028 -0.2206
15799TIP3    H168812   0.518   2.002   1.131  0.0940 -0.2139  2.2444
15799TIP3    H268813   0.418   1.900   1.080  0.5519  0.7221 -0.6973
15800TIP3   OH268814   5.355   4.123   1.978 -0.0348  0.4957  0.3250
15800TIP3    H168815   5.406   4.204   1.971  1.9999 -0.7872 -0.9200
15800TIP3    H268816   5.361   4.099   2.070  0.8450  0.8755  0.3776
15801TIP3   OH268817   0.351   1.904   4.673  0.2063 -0.3482 -0.4420
15801TIP3    H168818   0.438   1.906   4.632  0.3422  1.9430 -0.1257
15801TIP3    H268819   0.312   1.989   4.652 -0.6657 -0.0198  2.1516
15802TIP3   OH268820   1.054   4.728  12.216 -0.1107  0.3190  0.5202
15802TIP3    H168821   0.982   4.687  12.264 -1.4922 -0.3830 -1.9509
15802TIP3    H268822   1.120   4.659  12.208 -1.2690 -0.6519 -1.2872
15803TIP3   OH268823   5.036   3.849   5.738  0.0685  0.3359 -0.2008
15803TIP3    H168824   5.053   3.776   5.679 -2.5411  0.8482 -1.7497
15803TIP3    H268825   4.962   3.820   5.791  0.4740  1.0118  0.7575
15804TIP3   OH268826   6.772   3.838   2.375  0.1468 -0.0251  0.2072
15804TIP3    H168827   6.719   3.764   2.405 -0.6578  1.0364  1.5094
15804TIP3    H268828   6.809   3.808   2.292 -0.3714 -1.7806  0.5597
15805TIP3   OH268829   2.780   0.638   2.587  0.4548  0.1591  0.2350
15805TIP3    H168830   2.761   0.589   2.667 -0.2668  0.2512  0.1308
15805TIP3    H268831   2.838   0.708   2.614 -0.5632  0.7766  0.8730
15806TIP3   OH268832   1.472   0.716  12.975 -0.2119  0.1260  0.4164
15806TIP3    H168833   1.404   0.674  13.027 -0.8342  0.9636  0.2938
15806TIP3    H268834   1.459   0.681  12.886 -1.4187  1.3581  0.0824
15807TIP3   OH268835   3.418   5.868   6.743 -0.0787 -0.0926 -0.1194
15807TIP3    H168836   3.422   5.777   6.771  0.1576  0.0638  0.3631
15807TIP3    H268837   3.331   5.878   6.705  0.2141 -0.7581 -1.0133
15808TIP3   OH268838   5.734   2.222   2.855 -0.4914  0.2118  0.5098
15808TIP3    H168839   5.749   2.188   2.766  1.8260  1.0678  0.4855
15808TIP3    H268840   5.670   2.162   2.893  0.3501 -1.7081 -0.8854
15809TIP3   OH268841   4.506   0.416  10.855  0.0251  0.4760  0.3046
15809TIP3    H168842   4.538   0.407  10.765 -1.3491 -0.7604 -0.1045
15809TIP3    H268843   4.418   0.453  10.845 -0.7878 -1.2052  1.0129
15810TIP3   OH268844   3.566   0.713   4.580  0.3738 -0.5487 -0.1190
15810TIP3    H168845   3.598   0.623   4.578  1.4840 -0.2262 -3.2383
15810TIP3    H268846   3.635   0.764   4.537 -0.4645  1.7247  1.0352
15811TIP3   OH268847   4.346   3.699  15.688  0.4618  0.6092 -0.5135
15811TIP3    H168848   4.295   3.678  15.767  3.5710  3.5551  2.6415
15811TIP3    H268849   4.291   3.760  15.639 -0.9720 -0.1154  0.1354
15812TIP3   OH268850   5.167   0.609  16.344 -0.2564  0.4076 -0.2599
15812TIP3    H168851   5.141   0.561  16.423  0.3019 -2.4304 -1.6741
15812TIP3    H268852   5.263   0.609  16.347 -0.2272  0.0923 -1.0222
15813TIP3   OH268853   3.435   5.062  12.808  0.0741  0.2071 -0.2244
15813TIP3    H168854   3.483   5.122  12.751 -2.1356  3.4374  1.0399
15813TIP3    H268855   3.357   5.038  12.759  0.3297 -0.6223 -0.2341
15814TIP3   OH268856   3.698   6.703  13.891 -0.4304  0.2434 -0.1770
15814TIP3    H168857   3.695   6.760  13.967  1.3517  0.4344 -0.2204
15814TIP3    H268858   3.787   6.669  13.889 -1.1382 -1.7454 -0.7479
15815TIP3   OH268859   1.200   1.318   1.839  0.4216  0.0124 -0.0097
15815TIP3    H168860   1.190   1.228   1.806 -0.8957 -0.4929  1.6414
15815TIP3    H268861   1.154   1.318   1.923 -0.2820  2.4393 -0.3251
15816TIP3   OH268862   4.387   4.792  12.356 -0.0722  0.0015  0.8511
15816TIP3    H168863   4.307   4.741  12.364 -0.0692  0.0099  0.9336
15816TIP3    H268864   4.362   4.868  12.305 -0.0126 -0.2223  0.4848
15817TIP3   OH268865   1.427   4.380  10.958 -0.5029  0.3160 -0.1828
15817TIP3    H168866   1.517   4.362  10.984  0.5849  1.7736 -2.5574
15817TIP3    H268867   1.392   4.294  10.933  0.4791 -0.1646  0.0362
15818TIP3   OH268868   2.396   2.827   5.807 -0.5466 -0.4756 -0.1435
15818TIP3    H168869   2.383   2.774   5.886 -1.7389  0.0123  0.0140
15818TIP3    H268870   2.388   2.765   5.735  0.3344 -0.8870  0.1051
15819TIP3   OH268871   2.192   4.146  17.232  0.1511 -0.3335 -0.3191
15819TIP3    H168872   2.284   4.151  17.256  0.1745 -1.1305 -0.2184
15819TIP3    H268873   2.145   4.172  17.311  0.2827 -0.3242 -0.2440
15820TIP3   OH268874   1.894   6.414  11.351  0.3080 -0.0228 -0.3854
15820TIP3    H168875   1.806   6.379  11.361 -0.2922  1.8059  1.5030
15820TIP3    H268876   1.882   6.496  11.302  1.1731 -0.4404 -1.3472
15821TIP3   OH268877   0.560   3.948  13.134  0.1745 -0.7112  0.0968
15821TIP3    H168878   0.543   3.883  13.203  1.2007 -1.4179 -0.2951
15821TIP3    H268879   0.656   3.949  13.126  0.0542 -0.8984 -1.5683
15822TIP3   OH268880   2.613   6.349   4.730  0.4527  0.5523  0.0953
15822TIP3    H168881   2.706   6.340   4.710  0.9205  1.0816  1.8210
15822TIP3    H268882   2.607   6.335   4.824 -1.3681 -0.3707 -0.1051
15823TIP3   OH268883   1.681   2.460   0.379 -0.3716 -0.0329  0.2634
15823TIP3    H168884   1.639   2.545   0.393  2.2831  1.1577  1.5927
15823TIP3    H268885   1.727   2.470   0.296 -1.3067 -0.7691 -0.3680
15824TIP3   OH268886   4.288   2.893   4.420  0.0129 -0.4575  0.1164
15824TIP3    H168887   4.285   2.803   4.388  0.4199 -0.0854 -1.0190
15824TIP3    H268888   4.381   2.916   4.418  0.1498 -0.6124  2.2150
15825TIP3   OH268889   2.728   3.691   0.166  0.0360 -0.0360  0.9199
15825TIP3    H168890   2.661   3.757   0.146 -1.2914 -1.1168  1.6327
15825TIP3    H268891   2.755   3.658   0.081 -1.7338 -0.8933  0.6412
15826TIP3   OH268892   5.008   0.324   3.694  0.0810 -0.3232  0.2790
15826TIP3    H168893   5.067   0.255   3.725  2.2535  1.8755  1.3833
15826TIP3    H268894   5.065   0.383   3.644 -1.4712  1.1880  0.2241
15827TIP3   OH268895   6.107   1.283  14.640  0.1003 -0.2489  0.3452
15827TIP3    H168896   6.074   1.203  14.601 -1.3364  0.3616  0.2616
15827TIP3    H268897   6.064   1.354  14.592  1.1586  0.5831  0.5720
15828TIP3   OH268898   0.010   4.468  13.080  0.2135  0.0009 -0.1596
15828TIP3    H168899  -0.034   4.393  13.040  1.3016 -1.8195  1.8632
15828TIP3    H268900   0.083   4.486  13.021  0.5951 -1.3018 -0.1336
15829TIP3   OH268901   0.516   3.555   0.977 -0.2933  0.6533 -0.2869
15829TIP3    H168902   0.569   3.499   1.034 -0.6768  0.1581 -0.4114
15829TIP3    H268903   0.426   3.533   0.999 -0.4465  0.7858 -0.7760
15830TIP3   OH268904   6.001   5.997  17.077  0.5475  0.9388  0.4222
15830TIP3    H168905   6.092   6.027  17.080  0.7754  0.8393 -2.3103
15830TIP3    H268906   5.970   6.026  16.991 -1.4094 -0.6788  0.5086
15831TIP3   OH268907   0.251   6.740   1.482 -0.2606 -0.0612 -0.4379
15831TIP3    H168908   0.217   6.787   1.558  0.2049 -0.4941  0.0365
15831TIP3    H268909   0.333   6.702   1.511 -0.8409 -1.5549 -0.6750
15832TIP3   OH268910   2.501   0.436  14.962  0.0317 -0.3958 -0.2566
15832TIP3    H168911   2.444   0.407  15.032  0.4094  1.0626  0.7000
15832TIP3    H268912   2.459   0.405  14.881 -1.0332 -1.0479  0.5307
15833TIP3   OH268913   6.415   4.523  12.486 -0.4115 -0.4073  0.4430
15833TIP3    H168914   6.393   4.433  12.510  1.4369 -0.7402  0.9748
15833TIP3    H268915   6.413   4.524  12.390 -0.9681 -0.8636  0.4487
15834TIP3   OH268916   1.119   2.889   1.051  0.0059 -0.8115 -0.2052
15834TIP3    H168917   1.184   2.959   1.053 -0.4171 -0.4276  0.1828
15834TIP3    H268918   1.090   2.887   0.960 -0.3566 -0.1330 -0.1110
15835TIP3   OH268919   3.955   4.087  14.958  0.2262  0.3797 -0.3578
15835TIP3    H168920   4.011   4.042  15.022 -1.4567 -1.6986 -0.2141
15835TIP3    H268921   3.983   4.178  14.962  0.9406  0.1415  2.5434
15836TIP3   OH268922   0.206   3.844  12.412  0.1542  0.1538  0.3795
15836TIP3    H168923   0.278   3.781  12.401  0.0241  0.2341 -1.2383
15836TIP3    H268924   0.249   3.929  12.410  0.1327  0.1718  0.6434
15837TIP3   OH268925   5.486   3.160   1.676  0.1652  0.1376 -0.0540
15837TIP3    H168926   5.430   3.202   1.611 -0.3573  0.1112  0.3730
15837TIP3    H268927   5.489   3.068   1.651  1.0836  0.3645 -0.8294
15838TIP3   OH268928   3.170   2.426  14.339  0.0808  0.0122  0.2912
15838TIP3    H168929   3.118   2.350  14.313 -1.1094  0.2898  1.7725
15838TIP3    H268930   3.197   2.408  14.428  0.9462  0.7302  0.1878
15839TIP3   OH268931   0.194   5.474  15.167 -0.3893 -0.6938 -0.0288
15839TIP3    H168932   0.277   5.430  15.182  0.8408  0.9388 -1.5889
15839TIP3    H268933   0.170   5.511  15.252  0.5398 -1.0980  0.4141
15840TIP3   OH268934   3.812   3.745  16.729  0.0191 -0.1370  0.3105
15840TIP3    H168935   3.893   3.707  16.695  0.3711 -0.1806  1.1800
15840TIP3    H268936   3.789   3.813  16.666  1.5365  0.8772  0.8085
15841TIP3   OH268937   3.685   1.116  11.808 -0.0020 -0.5754  0.2363
15841TIP3    H168938   3.608   1.116  11.865 -1.2052 -2.3830 -1.2488
15841TIP3    H268939   3.750   1.066  11.855  0.5260  1.3842  1.7318
15842TIP3   OH268940   0.285   6.225   4.783 -0.1597 -0.0743  0.5433
15842TIP3    H168941   0.327   6.155   4.833  0.8015 -0.5330 -0.8260
15842TIP3    H268942   0.358   6.275   4.746 -0.7771 -0.6735 -1.6179
15843TIP3   OH268943   5.478   5.255   1.292  0.1923  0.3128 -0.7946
15843TIP3    H168944   5.553   5.195   1.289  0.1728  0.3037 -1.1768
15843TIP3    H268945   5.451   5.264   1.201 -2.0247 -1.8594 -0.4317
15844TIP3   OH268946   3.055   6.691  16.463 -0.0924  0.6145  0.5827
15844TIP3    H168947   3.142   6.697  16.503  0.3998  0.1401 -0.3862
15844TIP3    H268948   2.998   6.737  16.525  0.9405  1.4616  0.9499
15845TIP3   OH268949   3.420   3.340  12.124 -0.9405  0.0632  0.5551
15845TIP3    H168950   3.422   3.283  12.047  1.6696  1.0512 -0.2001
15845TIP3    H268951   3.358   3.297  12.184  0.7460 -3.5167  0.0004
15846TIP3   OH268952   5.850   6.568   4.232 -0.7497 -0.2434 -0.1326
15846TIP3    H168953   5.809   6.625   4.167 -0.8401  0.8327  0.8258
15846TIP3    H268954   5.942   6.565   4.206 -0.6583  0.6993  0.0224
15847TIP3   OH268955   1.300   0.876  16.947  0.0844 -0.3401 -0.4546
15847TIP3    H168956   1.344   0.799  16.913 -1.7057 -1.8751  0.5028
15847TIP3    H268957   1.370   0.928  16.987  1.1312 -2.3399  0.4455
15848TIP3   OH268958   4.493   1.654   5.386 -0.1921  0.1199  0.1452
15848TIP3    H168959   4.461   1.737   5.423 -0.0341  0.3157 -0.1599
15848TIP3    H268960   4.434   1.588   5.423 -1.4454  0.5550 -0.9872
15849TIP3   OH268961   1.568   6.740  13.389 -0.1462  0.7463  0.7446
15849TIP3    H168962   1.592   6.649  13.375 -1.4015  0.7073 -1.6369
15849TIP3    H268963   1.634   6.790  13.341  1.0756  1.2148  2.7856
15850TIP3   OH268964   1.073   5.490   5.621 -0.2896  0.8383  0.2274
15850TIP3    H168965   0.978   5.498   5.629 -0.1702  1.1004  1.6691
15850TIP3    H268966   1.107   5.546   5.691  0.8358 -1.8596  2.0029
15851TIP3   OH268967   0.356   1.825  16.062 -0.3138 -0.6439 -0.0987
15851TIP3    H168968   0.323   1.760  16.000  0.0995  1.0354 -2.1622
15851TIP3    H268969   0.432   1.864  16.019 -1.4071  2.2573  0.3804
15852TIP3   OH268970   0.913   1.282  12.379 -0.5165 -0.0141 -0.2463
15852TIP3    H168971   0.827   1.244  12.395 -0.5194  0.6131  1.4188
15852TIP3    H268972   0.933   1.330  12.459  0.9967  0.5951 -0.9563
15853TIP3   OH268973   2.875   5.032  16.483  0.2678  0.0019 -0.0753
15853TIP3    H168974   2.902   5.091  16.553  0.7812 -0.0682 -0.2107
15853TIP3    H268975   2.788   5.063  16.457 -0.6603 -0.9814  1.7055
15854TIP3   OH268976   6.265   5.287  15.657  0.8498 -0.2800  0.7147
15854TIP3    H168977   6.204   5.345  15.702 -1.9362 -2.4329  0.0051
15854TIP3    H268978   6.248   5.302  15.564  0.0295 -2.1899  0.5203
15855TIP3   OH268979   0.480   6.089  14.306  0.2451  0.6062 -0.3960
15855TIP3    H168980   0.505   6.089  14.398 -0.0284 -1.1892 -0.2724
15855TIP3    H268981   0.540   6.150  14.264  1.7420 -0.1094  0.6412
15856TIP3   OH268982   5.005   4.961  17.248 -0.5281  0.0731  0.1187
15856TIP3    H168983   4.959   5.044  17.263  3.7151  2.1470  4.5520
15856TIP3    H268984   5.088   4.987  17.208  0.6457 -2.1046  0.9740
15857TIP3   OH268985   2.581   3.938  11.071  0.0161 -0.6521  0.3776
15857TIP3    H168986   2.651   3.875  11.087  1.6024  0.6753 -0.9506
15857TIP3    H268987   2.595   3.967  10.981 -0.6342  1.5894  0.9450
15858TIP3   OH268988   5.760   1.541  11.024  0.0250 -0.2698  0.7758
15858TIP3    H168989   5.681   1.553  10.972 -0.7638 -0.3522  1.9082
15858TIP3    H268990   5.821   1.607  10.992 -0.7141  0.1784  0.2767
15859TIP3   OH268991   2.019   0.245  13.852  0.0996  0.8272 -0.0190
15859TIP3    H168992   2.015   0.157  13.890  2.1465  1.0343  0.8110
15859TIP3    H268993   1.929   0.265  13.828 -0.1796 -2.1764 -1.8782
15860TIP3   OH268994   6.409   4.905   4.097 -0.1112  0.0056  0.1582
15860TIP3    H168995   6.443   4.836   4.039  0.7067  2.2203 -2.1982
15860TIP3    H268996   6.484   4.928   4.152 -0.1736 -0.4708  0.4513
15861TIP3   OH268997   5.874   3.914   1.971  0.3888  0.4659 -0.0369
15861TIP3    H168998   5.813   3.985   1.950  0.8978  0.9354  0.0422
15861TIP3    H268999   5.818   3.837   1.981  0.0573  0.2879 -2.6334
15862TIP3   OH269000   3.785   5.877  13.550  0.2286 -0.1656  0.0105
15862TIP3    H169001   3.723   5.818  13.508  1.6891 -0.4280 -1.9133
15862TIP3    H269002   3.812   5.937  13.480  1.1488  0.7643  1.1243
15863TIP3   OH269003   5.255   6.502   5.007 -0.3587 -0.4187  0.0444
15863TIP3    H169004   5.248   6.429   4.947 -0.0346  0.0900 -0.6192
15863TIP3    H269005   5.295   6.465   5.086  0.3501 -0.8189 -0.5034
15864TIP3   OH269006   3.526   6.538  11.832  0.0805 -0.0343  0.5170
15864TIP3    H169007   3.545   6.525  11.925  0.0013  1.7217  0.8074
15864TIP3    H269008   3.468   6.614  11.830 -0.0939 -0.1917 -0.9635
15865TIP3   OH269009   3.464   0.763   6.152 -0.7826  0.2088  0.5325
15865TIP3    H169010   3.403   0.717   6.210 -1.5555  0.4350 -0.0923
15865TIP3    H269011   3.414   0.838   6.119  0.6788  2.0677  2.2009
15866TIP3   OH269012   0.095   5.770  17.010  0.8971  0.3600  0.1854
15866TIP3    H169013   0.179   5.794  17.052  2.3576 -0.5108 -2.0765
15866TIP3    H269014   0.074   5.846  16.955  0.2371  0.5182  0.6435
15867TIP3   OH269015   6.694   4.585   5.393 -0.0399  0.3336 -0.0260
15867TIP3    H169016   6.726   4.605   5.481  1.2831  1.5618 -0.7345
15867TIP3    H269017   6.681   4.671   5.352  0.1146 -0.2062 -1.2619
15868TIP3   OH269018   2.048   3.922  11.425  0.3979 -0.0343  0.2805
15868TIP3    H169019   2.122   3.964  11.382 -0.3105 -1.1839 -2.2788
15868TIP3    H269020   1.992   3.994  11.455  2.2005  0.8360  1.7586
15869TIP3   OH269021   6.597   0.559  11.107 -0.7044 -0.0654  0.6902
15869TIP3    H169022   6.539   0.546  11.032 -0.5001  0.1292  0.4971
15869TIP3    H269023   6.594   0.475  11.154  1.0841 -1.0775 -0.8749
15870TIP3   OH269024   6.779   2.457   0.238 -0.3982  0.2552 -0.7319
15870TIP3    H169025   6.836   2.387   0.206 -1.8013 -0.8233 -0.9917
15870TIP3    H269026   6.703   2.456   0.178 -1.2068  0.8977  0.2398
15871TIP3   OH269027   5.623   1.122   5.093 -0.1087 -0.0858 -0.1275
15871TIP3    H169028   5.616   1.078   5.177 -2.2563  1.2208  0.4593
15871TIP3    H269029   5.692   1.187   5.105 -0.5464  0.2395  0.7368
15872TIP3   OH269030   4.736   0.579   5.700 -0.5759 -0.0659 -0.2227
15872TIP3    H169031   4.800   0.520   5.660  0.9909  1.2520  0.2338
15872TIP3    H269032   4.674   0.520   5.745  0.4338 -1.3740 -0.4842
15873TIP3   OH269033   0.898   5.038   6.299  0.2032  0.0906 -0.5663
15873TIP3    H169034   0.809   5.024   6.330  0.0142  1.2850 -0.5241
15873TIP3    H269035   0.934   5.105   6.358  1.3625 -0.8523 -0.1649
15874TIP3   OH269036   4.388   6.369  11.476 -0.1055  0.1154 -0.9300
15874TIP3    H169037   4.306   6.417  11.472  0.0630  0.7568  1.6605
15874TIP3    H269038   4.442   6.408  11.407 -1.4785  0.6046 -1.7690
15875TIP3   OH269039   1.949   0.645  12.190  0.1578  0.3873  0.0171
15875TIP3    H169040   1.962   0.737  12.166  1.9938  0.1288 -0.1746
15875TIP3    H269041   1.919   0.604  12.109 -0.5483  0.7974  0.0678
15876TIP3   OH269042   6.541   2.798   4.598  0.0587 -0.1135  0.7456
15876TIP3    H169043   6.498   2.713   4.608 -0.0826 -0.5838 -2.7036
15876TIP3    H269044   6.634   2.778   4.596 -0.0061 -0.3912 -1.0225
15877TIP3   OH269045   3.563   3.397   3.053  0.1365  0.2393  0.1782
15877TIP3    H169046   3.565   3.471   3.114 -1.8228 -1.1804  2.1231
15877TIP3    H269047   3.620   3.331   3.094  0.9099  0.1822 -0.9307
15878TIP3   OH269048   3.889   3.057  17.230 -0.2155 -0.2080  0.5524
15878TIP3    H169049   3.950   3.042  17.302 -0.7805  1.7616  1.5335
15878TIP3    H269050   3.824   2.988  17.238  2.4376 -3.1690 -1.3096
15879TIP3   OH269051   4.858   6.287  16.107 -0.0300 -0.2410 -0.3955
15879TIP3    H169052   4.881   6.240  16.187  0.2879  1.9358  0.8911
15879TIP3    H269053   4.877   6.379  16.127 -1.2217  0.5473 -2.5183
15880TIP3   OH269054   3.948   4.928   5.055 -0.2548  0.0989  0.7201
15880TIP3    H169055   3.948   4.889   4.967  1.1920  0.2032  0.6485
15880TIP3    H269056   3.921   5.019   5.041 -0.2461  0.0556  0.4109
15881TIP3   OH269057   0.020   1.044  16.321  0.3907  0.2848 -0.5449
15881TIP3    H169058  -0.032   1.053  16.401  0.5479 -0.9819 -0.2757
15881TIP3    H269059   0.036   1.134  16.292 -0.8355  0.7213  0.0797
15882TIP3   OH269060   0.072   6.520  15.369  0.1323  0.2873 -0.2305
15882TIP3    H169061   0.164   6.545  15.372  0.4175 -0.5553 -1.3859
15882TIP3    H269062   0.069   6.446  15.308 -1.1923 -0.2279  0.4256
15883TIP3   OH269063   5.596   1.283  16.925 -0.0558 -0.2406 -0.1394
15883TIP3    H169064   5.549   1.366  16.928  0.6492  0.1606  2.3097
15883TIP3    H269065   5.534   1.219  16.961 -0.2717 -0.6256 -1.1558
15884TIP3   OH269066   0.765   0.446   5.626 -0.1986  0.0372 -0.0420
15884TIP3    H169067   0.781   0.540   5.623 -0.9706  0.1845  0.1411
15884TIP3    H269068   0.851   0.406   5.619  0.0577  0.7449 -1.1344
15885TIP3   OH269069   5.411   2.102   5.127 -0.4066 -0.4102  0.5570
15885TIP3    H169070   5.327   2.058   5.139 -1.4220  1.2951  0.0939
15885TIP3    H269071   5.394   2.169   5.060  0.9179  0.9603  1.5146
15886TIP3   OH269072   2.045   1.987  14.443 -0.0491  0.2481  0.0869
15886TIP3    H169073   1.995   2.067  14.425  2.6703  2.8025  2.6606
15886TIP3    H269074   2.018   1.963  14.532 -0.9165 -1.8669 -0.7004
15887TIP3   OH269075   6.074   5.710   5.263 -0.0415  0.1188 -0.2592
15887TIP3    H169076   6.013   5.762   5.315  0.2059 -1.2576  1.4957
15887TIP3    H269077   6.064   5.621   5.296  1.4455 -0.4909 -1.3513
15888TIP3   OH269078   4.107   3.236   5.353 -0.0775  0.3523 -0.1230
15888TIP3    H169079   4.012   3.222   5.350 -0.1063  0.7013 -1.3840
15888TIP3    H269080   4.117   3.331   5.342  0.4625  0.1443 -1.6282
15889TIP3   OH269081   2.445   0.167   5.951  0.4125 -0.1494 -0.2831
15889TIP3    H169082   2.474   0.237   6.010  2.4255 -0.3238 -0.9642
15889TIP3    H269083   2.401   0.213   5.880  0.1698  0.2803  0.1376
15890TIP3   OH269084   0.980   1.540  13.855 -0.0223  0.2071 -0.6434
15890TIP3    H169085   1.047   1.554  13.921 -0.9841  1.8212  0.0724
15890TIP3    H269086   1.027   1.538  13.772  0.9464  0.8933 -0.1225
15891TIP3   OH269087   6.361   2.102  13.176  0.3725 -0.9171  0.7955
15891TIP3    H169088   6.442   2.064  13.143  1.3486  0.9830  0.8449
15891TIP3    H269089   6.367   2.092  13.271 -0.1766 -2.0896  0.7248
15892TIP3   OH269090   0.682   5.290  15.138  0.2594 -0.1929  0.0441
15892TIP3    H169091   0.692   5.374  15.182 -2.5342  0.3435 -0.1659
15892TIP3    H269092   0.719   5.303  15.051  0.0767  0.7667  0.1061
15893TIP3   OH269093   3.573   2.037   5.564 -0.4834  0.0155 -0.0568
15893TIP3    H169094   3.641   2.047   5.498 -1.1694 -0.8714 -0.9221
15893TIP3    H269095   3.492   2.030   5.514 -1.1834  0.6773  0.9375
15894TIP3   OH269096   0.369   4.650   3.915 -0.3880 -0.2144  0.3385
15894TIP3    H169097   0.349   4.675   4.005 -1.1489  2.4080 -0.4944
15894TIP3    H269098   0.392   4.731   3.871  2.2123 -1.7231 -1.3412
15895TIP3   OH269099   1.218   6.113   3.364 -0.0317  0.4505 -0.6007
15895TIP3    H169100   1.205   6.070   3.279  1.6583  0.5126 -0.9314
15895TIP3    H269101   1.302   6.159   3.354  0.6267 -0.2469  1.3712
15896TIP3   OH269102   4.750   5.821  11.340  0.3149 -0.0115 -0.2696
15896TIP3    H169103   4.720   5.910  11.359  0.1521 -0.3096  0.9846
15896TIP3    H269104   4.675   5.779  11.299  0.1573  0.2391 -0.2431
15897TIP3   OH269105   2.807   2.422   1.410  0.3541  0.0823  0.3812
15897TIP3    H169106   2.879   2.360   1.402 -1.0821 -1.6469 -0.0491
15897TIP3    H269107   2.822   2.467   1.492  1.0286 -1.4919  1.1621
15898TIP3   OH269108   2.267   1.126  13.199  0.6657  0.2199  0.0963
15898TIP3    H169109   2.361   1.119  13.214  0.4784  2.1623  3.1035
15898TIP3    H269110   2.249   1.220  13.200 -1.0530  0.0452 -2.9798
15899TIP3   OH269111   2.887   4.032  15.794  0.0551  0.0613 -0.3645
15899TIP3    H169112   2.866   4.018  15.887  1.4137  1.8164  0.2635
15899TIP3    H269113   2.980   4.012  15.788  0.7841  3.0646 -0.5665
15900TIP3   OH269114   5.588   6.392  15.181 -0.5327  0.0472 -0.7344
15900TIP3    H169115   5.616   6.469  15.132 -0.2384  0.0357 -0.5867
15900TIP3    H269116   5.651   6.324  15.158 -0.4368  0.0202 -0.3993
15901TIP3   OH269117   1.112   0.929  15.271  0.2253 -0.6329  0.7852
15901TIP3    H169118   1.067   0.845  15.278 -0.8566 -0.1455  0.0219
15901TIP3    H269119   1.098   0.971  15.356 -0.4917 -0.6220  0.6657
15902TIP3   OH269120   4.827   0.323  16.462  0.2218  0.2298 -0.3014
15902TIP3    H169121   4.809   0.311  16.369  0.9328  2.2463 -0.7438
15902TIP3    H269122   4.767   0.392  16.489  0.4091  0.0433  0.6106
15903TIP3   OH269123   2.796   0.773   0.973  0.5508  0.0861  0.5698
15903TIP3    H169124   2.772   0.866   0.973  0.6563  0.1245 -0.3466
15903TIP3    H269125   2.874   0.768   0.918  0.6200 -0.5336  0.7113
15904TIP3   OH269126   3.361   5.320  13.141 -0.8458  0.0545 -0.0385
15904TIP3    H169127   3.313   5.275  13.211 -0.7268 -0.3251 -0.2004
15904TIP3    H269128   3.440   5.267  13.128 -0.8461  0.1476 -0.4314
15905TIP3   OH269129   3.745   6.387   1.832  0.0573 -0.1667  0.2673
15905TIP3    H169130   3.657   6.351   1.841 -0.0323  0.3778  2.1352
15905TIP3    H269131   3.785   6.374   1.918  0.9290  1.7896  0.2187
15906TIP3   OH269132   5.706   5.393  16.213 -0.1188  0.3500  0.1246
15906TIP3    H169133   5.658   5.310  16.211 -1.4650  1.0882 -1.1642
15906TIP3    H269134   5.726   5.410  16.121  0.2934  1.3705  0.3967
15907TIP3   OH269135   0.111   1.952  11.839  0.2969 -0.2539  0.4603
15907TIP3    H169136   0.134   1.925  11.928  0.0777 -0.9372  0.3105
15907TIP3    H269137   0.096   1.871  11.792  0.7488  0.0934 -0.3018
15908TIP3   OH269138   5.959   2.240   3.667  1.3174  0.2415 -0.6180
15908TIP3    H169139   5.915   2.168   3.712  0.1603  0.3469 -1.5191
15908TIP3    H269140   6.052   2.217   3.669  0.9494 -1.3687 -1.0644
15909TIP3   OH269141   6.054   5.979  13.768  0.5537  0.0936  0.1056
15909TIP3    H169142   6.024   6.008  13.854  0.7765  0.3243  0.1042
15909TIP3    H269143   6.135   6.027  13.753 -0.3254  1.2989 -0.9459
15910TIP3   OH269144   0.210   0.772  15.004 -0.1072  0.2994 -0.2101
15910TIP3    H169145   0.289   0.781  14.951  0.1011 -0.8151 -0.1298
15910TIP3    H269146   0.145   0.735  14.944 -0.6561  1.4274 -0.3393
15911TIP3   OH269147   5.023   4.955   3.442  0.1644 -0.5939 -0.3823
15911TIP3    H169148   4.932   4.978   3.456  0.0797  0.6241 -2.6307
15911TIP3    H269149   5.024   4.859   3.445 -1.1012 -0.6050  0.0795
15912TIP3   OH269150   3.460   1.652   3.213 -0.6788 -0.7244  0.3797
15912TIP3    H169151   3.542   1.660   3.164 -1.5938  1.3563 -0.9803
15912TIP3    H269152   3.392   1.664   3.147 -2.0227  0.1064  1.8475
15913TIP3   OH269153   0.599   5.251   1.831  0.4937  0.1062  0.9555
15913TIP3    H169154   0.560   5.268   1.745  0.8904  0.1135  0.7718
15913TIP3    H269155   0.619   5.157   1.830  2.7862  0.5264  0.0416
15914TIP3   OH269156   6.116   2.462   6.226  0.5805 -0.2176 -0.1640
15914TIP3    H169157   6.130   2.557   6.236 -0.2799  0.0226 -1.0438
15914TIP3    H269158   6.196   2.422   6.262  1.4105  0.8875 -0.7049
15915TIP3   OH269159   0.335   2.516  14.340  0.6975 -0.0774 -0.0910
15915TIP3    H169160   0.282   2.441  14.315  1.6326 -0.3111 -1.4895
15915TIP3    H269161   0.414   2.477  14.379  1.4442  0.1287 -1.3451
15916TIP3   OH269162   5.169   6.463  16.266 -0.8509  0.1292 -0.1557
15916TIP3    H169163   5.249   6.476  16.216 -0.7974  0.8553  0.0980
15916TIP3    H269164   5.188   6.501  16.352 -1.0533 -0.8031  0.3067
15917TIP3   OH269165   4.666   2.076  13.270 -0.0342  0.2440  0.8700
15917TIP3    H169166   4.761   2.075  13.264 -0.0357 -0.0506  0.8613
15917TIP3    H269167   4.636   2.051  13.182 -0.2150  5.0330 -0.7139
15918TIP3   OH269168   4.662   4.659  13.727 -0.0028 -0.3051  0.6852
15918TIP3    H169169   4.573   4.641  13.699 -0.3040 -0.3084  1.6068
15918TIP3    H269170   4.715   4.591  13.685 -0.0007  1.1957 -1.9975
15919TIP3   OH269171   5.161   4.481  13.677 -0.0031 -0.3165  0.8504
15919TIP3    H169172   5.178   4.454  13.767  0.6184  0.0830  0.8638
15919TIP3    H269173   5.199   4.412  13.623 -0.0187 -0.3551  0.8884
15920TIP3   OH269174   2.364   0.077   3.158 -0.0270 -0.0818 -0.0181
15920TIP3    H169175   2.324   0.043   3.078  0.8055  1.4742 -1.1525
15920TIP3    H269176   2.386  -0.001   3.210 -1.4913 -1.0768 -0.8268
15921TIP3   OH269177   0.544   0.239   6.451  0.3559  0.2012  0.1347
15921TIP3    H169178   0.519   0.146   6.454  0.0074  0.3144  0.8095
15921TIP3    H269179   0.508   0.271   6.369  0.1964 -0.1816  0.0524
15922TIP3   OH269180   5.253   3.273   3.132 -0.3361  0.3876  0.3996
15922TIP3    H169181   5.166   3.305   3.111 -0.5071 -1.2684 -1.8041
15922TIP3    H269182   5.312   3.342   3.103 -0.8555  0.7830  0.2835
15923TIP3   OH269183   1.711   3.926   2.029  0.7319  0.0744 -0.0571
15923TIP3    H169184   1.662   3.862   1.977  0.7223  0.5011 -0.5869
15923TIP3    H269185   1.769   3.968   1.966  0.7996  0.5255  0.3023
15924TIP3   OH269186   4.765   6.697  13.248  0.1383  0.3417 -0.6212
15924TIP3    H169187   4.790   6.778  13.202  0.3767  0.5120 -0.1975
15924TIP3    H269188   4.845   6.645  13.248  0.7691  1.2133  1.4385
15925TIP3   OH269189   5.513   0.556   5.604 -0.8892  0.1555 -0.3700
15925TIP3    H169190   5.557   0.528   5.684  0.0172 -0.7563 -1.1645
15925TIP3    H269191   5.508   0.651   5.612  1.2418  0.3143 -0.2160
15926TIP3   OH269192   1.916   5.068  10.900  0.1910  0.8935  0.7186
15926TIP3    H169193   2.003   5.084  10.937  3.3373 -2.4734 -4.0444
15926TIP3    H269194   1.913   5.121  10.820 -1.8307  0.2863  0.3277
15927TIP3   OH269195   0.700   6.473  12.313  0.4530  0.6164  0.0131
15927TIP3    H169196   0.752   6.524  12.375 -0.4520 -0.1600  1.4610
15927TIP3    H269197   0.610   6.500  12.329  0.2203  0.6542 -1.2376
15928TIP3   OH269198   6.621   4.461  13.574 -0.6281 -0.3365  1.1356
15928TIP3    H169199   6.666   4.378  13.590  0.7629  0.4198  1.3382
15928TIP3    H269200   6.530   4.444  13.597  0.0378 -1.2123  3.4211
15929TIP3   OH269201   2.685   2.636  12.488  0.1884  0.1521 -0.1789
15929TIP3    H169202   2.729   2.652  12.571 -0.6625 -0.4401  0.4066
15929TIP3    H269203   2.635   2.715  12.471  1.3136  0.7612 -0.7643
15930TIP3   OH269204   5.668   6.416   1.670 -0.1241  0.2498  0.6157
15930TIP3    H169205   5.587   6.434   1.718 -1.2545 -0.1175 -1.0619
15930TIP3    H269206   5.662   6.473   1.593  1.6553  0.8592  0.8989
15931TIP3   OH269207   0.046   4.004  15.484 -0.2828  0.0631 -0.1023
15931TIP3    H169208  -0.043   3.969  15.491 -1.9009  3.7329  0.0204
15931TIP3    H269209   0.033   4.095  15.454  3.5464  0.2464 -1.7271
15932TIP3   OH269210   5.423   5.261  13.418  0.0053  0.8352  0.9702
15932TIP3    H169211   5.512   5.240  13.391 -0.7179 -0.9303 -0.2369
15932TIP3    H269212   5.410   5.210  13.499 -0.8157 -1.3817 -0.4514
15933TIP3   OH269213   0.783   3.805  11.177  0.3072  0.4794  0.0880
15933TIP3    H169214   0.718   3.875  11.171 -0.2355 -0.1300 -2.4371
15933TIP3    H269215   0.731   3.724  11.171  1.1970 -0.0265 -1.6535
15934TIP3   OH269216   5.968   2.289   2.514 -0.0219  0.3740  0.1414
15934TIP3    H169217   6.018   2.371   2.524  1.2411 -0.4180  0.5386
15934TIP3    H269218   6.011   2.228   2.574 -1.3762 -0.4052  0.3514
15935TIP3   OH269219   1.012   2.884   3.773  0.4870 -0.0166  1.1001
15935TIP3    H169220   1.045   2.909   3.860  1.9965  0.0938  0.5319
15935TIP3    H269221   1.005   2.966   3.725 -0.3355 -0.0790  1.0990
15936TIP3   OH269222   3.220   0.713   2.805  0.2453 -0.4798  0.1426
15936TIP3    H169223   3.174   0.678   2.882 -1.1462  0.2197 -0.3365
15936TIP3    H269224   3.160   0.697   2.732  0.0185  1.8883 -0.2592
15937TIP3   OH269225   4.173   0.585   3.307  0.2550 -0.0017 -0.4186
15937TIP3    H169226   4.142   0.562   3.394  1.5693 -1.1356 -0.2215
15937TIP3    H269227   4.226   0.663   3.321 -2.4647  2.0742 -0.7851
15938TIP3   OH269228   0.889   0.567  13.662  0.3352  0.3854  0.2696
15938TIP3    H169229   0.951   0.516  13.714  0.8712 -0.0444 -0.7539
15938TIP3    H269230   0.942   0.604  13.592 -0.1485  1.9245  0.6782
15939TIP3   OH269231   3.747   2.014  16.677  0.1907  0.7448  0.0341
15939TIP3    H169232   3.709   1.929  16.653 -0.4091  0.9674  0.1655
15939TIP3    H269233   3.776   2.051  16.594  0.5192  0.3818 -0.0166
15940TIP3   OH269234   1.621   6.155  14.093  0.0655 -0.2224 -0.6152
15940TIP3    H169235   1.696   6.142  14.035  0.4045 -0.2977 -0.1635
15940TIP3    H269236   1.660   6.173  14.178 -0.4291 -0.4162 -0.3458
15941TIP3   OH269237   2.266   1.069   4.636 -0.4182  0.2052  0.9093
15941TIP3    H169238   2.211   1.134   4.593 -0.2952 -0.3556 -0.1100
15941TIP3    H269239   2.307   1.020   4.565 -0.1410 -0.6876  1.6538
15942TIP3   OH269240   0.314   6.379   4.409 -0.3102 -0.2662 -0.2234
15942TIP3    H169241   0.258   6.310   4.445 -0.1166  0.6663  1.9787
15942TIP3    H269242   0.254   6.439   4.366 -0.8410 -0.0440  0.8254
15943TIP3   OH269243   5.086   1.153   4.891  0.1046  0.1980 -0.0390
15943TIP3    H169244   5.167   1.115   4.925 -0.0665 -0.5763 -0.4631
15943TIP3    H269245   5.050   1.202   4.965  0.7416  0.1917  0.2848
15944TIP3   OH269246   5.806   2.601   1.996 -0.7815  0.7154 -0.4658
15944TIP3    H169247   5.717   2.568   1.990 -0.0717 -1.0188 -2.9599
15944TIP3    H269248   5.811   2.669   1.929 -0.1292  0.5920 -0.5501
15945TIP3   OH269249   0.789   5.789   1.012  0.4807 -0.2344 -0.6279
15945TIP3    H169250   0.713   5.842   1.033  1.4295  0.7322  0.5443
15945TIP3    H269251   0.829   5.831   0.936  2.1118  1.8274  1.2053
15946TIP3   OH269252   5.549   1.397  15.486  0.5388  0.7190  0.2053
15946TIP3    H169253   5.602   1.388  15.565  1.3021 -0.3401 -0.4045
15946TIP3    H269254   5.570   1.319  15.434 -2.3019 -0.2599  0.3450
15947TIP3   OH269255   1.547   4.926   0.098  0.2089 -0.1655  0.6094
15947TIP3    H169256   1.635   4.940   0.063 -0.1288 -0.5116 -0.4036
15947TIP3    H269257   1.536   4.996   0.163  0.4702  1.1466 -0.7042
15948TIP3   OH269258   4.843   5.326   5.284  0.2499  0.0077  0.4149
15948TIP3    H169259   4.860   5.234   5.302 -0.3405  0.0886  1.4762
15948TIP3    H269260   4.800   5.359   5.363 -0.6470  0.8953 -0.4039
15949TIP3   OH269261   2.771   0.975  17.251 -0.6741 -0.4080  0.1265
15949TIP3    H169262   2.769   0.975  17.156  0.1556 -3.3675  0.0159
15949TIP3    H269263   2.862   0.952  17.273 -0.9861 -0.3280  1.6271
15950TIP3   OH269264   3.736   5.300  10.860 -0.1164 -0.6136  0.1825
15950TIP3    H169265   3.789   5.379  10.873 -0.2976 -0.7269  1.8833
15950TIP3    H269266   3.744   5.252  10.943 -2.7162 -0.7337  0.4539
15951TIP3   OH269267   1.566   0.778  11.709  0.0502  0.2084  0.3502
15951TIP3    H169268   1.526   0.861  11.682 -1.0769  0.5475  2.8391
15951TIP3    H269269   1.618   0.800  11.786  0.1693 -1.3062  0.7334
15952TIP3   OH269270   1.289   2.224  12.244 -0.4032  0.2860  0.0140
15952TIP3    H169271   1.330   2.278  12.177 -0.5705  1.7153  1.0245
15952TIP3    H269272   1.358   2.208  12.308 -0.0085 -1.7544 -0.8105
15953TIP3   OH269273   6.430   6.041   4.664 -0.3244 -0.7964  0.2374
15953TIP3    H169274   6.414   5.974   4.731 -0.2934  0.3877  1.4575
15953TIP3    H269275   6.357   6.032   4.602 -0.9707 -1.1611  1.0400
15954TIP3   OH269276   2.700   1.388   0.266 -0.3393  0.1647  0.1472
15954TIP3    H169277   2.713   1.321   0.199 -2.6635  0.1254 -0.3427
15954TIP3    H269278   2.787   1.401   0.304  0.5050 -1.8206 -0.9580
15955TIP3   OH269279   3.646   3.345   1.786 -0.1022 -0.5061 -0.1430
15955TIP3    H169280   3.579   3.411   1.768  0.2211 -0.3566 -0.8060
15955TIP3    H269281   3.676   3.365   1.875  0.4182  0.6236 -0.5511
15956TIP3   OH269282   3.712   0.254  12.698 -0.4520 -0.5105  0.2635
15956TIP3    H169283   3.617   0.249  12.682 -0.4688 -0.2069  0.2685
15956TIP3    H269284   3.737   0.341  12.667  0.5183 -1.8885 -3.4155
15957TIP3   OH269285   1.023   6.278   1.564 -0.3394 -0.7080  0.6832
15957TIP3    H169286   1.053   6.250   1.650  1.7189  1.9603  0.9579
15957TIP3    H269287   1.094   6.254   1.504  0.4479  1.6002  0.5805
15958TIP3   OH269288   6.395   0.149  12.475 -0.1773  0.1976 -0.1582
15958TIP3    H169289   6.369   0.222  12.419 -2.0198 -0.4435 -0.1917
15958TIP3    H269290   6.379   0.180  12.564 -3.3075 -0.9204 -0.2296
15959TIP3   OH269291   4.786   4.309  15.512  0.1209 -0.6010 -0.0343
15959TIP3    H169292   4.826   4.350  15.435  2.0102 -1.3908  0.4540
15959TIP3    H269293   4.694   4.297  15.488  0.6700 -0.9415 -2.2419
15960TIP3   OH269294   6.780   0.725   5.899  0.0974 -0.1824 -0.4173
15960TIP3    H169295   6.846   0.679   5.848  0.2773  0.7200 -1.0246
15960TIP3    H269296   6.828   0.794   5.945  0.0145 -1.2936  1.3920
15961TIP3   OH269297   1.002   0.904   5.427 -0.4514 -0.4237 -0.1765
15961TIP3    H169298   0.987   0.979   5.369 -0.2727  1.1577  1.6966
15961TIP3    H269299   0.970   0.934   5.513 -0.7322 -2.6600  0.5597
15962TIP3   OH269300   2.094   3.374  16.442  0.3219 -0.1644  0.6314
15962TIP3    H169301   2.078   3.364  16.348 -1.2329  0.8859  0.7475
15962TIP3    H269302   2.021   3.329  16.483 -0.9270  2.2703  1.2530
15963TIP3   OH269303   1.755   2.718  12.695 -0.2823 -0.2444 -1.1809
15963TIP3    H169304   1.839   2.672  12.694 -0.4477 -0.5756 -0.5589
15963TIP3    H269305   1.744   2.745  12.786 -2.3862 -3.1298 -0.4347
15964TIP3   OH269306   2.310   6.442  14.484 -0.3722  0.0730  0.0706
15964TIP3    H169307   2.237   6.412  14.538 -0.5083 -2.2762 -1.2654
15964TIP3    H269308   2.275   6.445  14.395  1.2882 -2.0203 -0.7524
15965TIP3   OH269309   0.129   4.565  10.930 -0.4110 -0.5726  0.3623
15965TIP3    H169310   0.141   4.589  10.837  0.4814  1.0271  0.8471
15965TIP3    H269311   0.153   4.473  10.934 -4.8865 -2.1392 -1.8066
15966TIP3   OH269312   4.353   2.907  16.141  0.4105 -0.0084  0.5020
15966TIP3    H169313   4.320   2.920  16.230  0.9009 -0.3111  0.7336
15966TIP3    H269314   4.352   2.994  16.102 -0.7838 -0.0195  0.4484
15967TIP3   OH269315   1.103   4.634  15.839 -0.2173 -0.0761 -0.4959
15967TIP3    H169316   1.124   4.589  15.758 -0.2799 -0.5235 -0.2682
15967TIP3    H269317   1.008   4.647  15.837 -0.0144  1.5853 -1.3380
15968TIP3   OH269318   3.483   5.249   1.994  0.4388 -0.7771 -0.0903
15968TIP3    H169319   3.470   5.252   2.089 -0.2772 -3.3059 -0.0491
15968TIP3    H269320   3.575   5.274   1.981  0.0868  1.3352  1.0653
15969TIP3   OH269321   3.297   6.354  13.738  0.5708  0.4041 -0.3489
15969TIP3    H169322   3.301   6.313  13.651  0.3760  1.7563 -1.0249
15969TIP3    H269323   3.371   6.317  13.785  1.3316  0.4533 -1.4641
15970TIP3   OH269324   1.218   1.489  13.668  0.0429 -0.0847 -0.2511
15970TIP3    H169325   1.308   1.503  13.699  0.8053 -2.5432 -1.1139
15970TIP3    H269326   1.213   1.539  13.586  0.4456  0.4994  0.0734
15971TIP3   OH269327   1.639   4.705  16.047  0.6575  0.2093  0.5901
15971TIP3    H169328   1.551   4.719  16.013  0.9446 -0.3323 -0.4223
15971TIP3    H269329   1.681   4.791  16.041  0.3885  0.3360  0.5203
15972TIP3   OH269330   6.596   2.415   4.112  0.0346  0.0503 -0.2958
15972TIP3    H169331   6.547   2.424   4.030 -1.0770  1.9893  0.5115
15972TIP3    H269332   6.550   2.347   4.160  0.8359 -1.2734 -1.3224
15973TIP3   OH269333   5.045   1.087   3.521  0.3585  0.2286  0.0030
15973TIP3    H169334   4.996   1.133   3.589 -1.6201  1.4329 -2.0778
15973TIP3    H269335   5.093   1.156   3.476  2.4625 -0.6862  0.7310
15974TIP3   OH269336   4.492   0.190   1.244  0.7434 -0.2521 -0.3611
15974TIP3    H169337   4.433   0.258   1.278  0.1039 -0.1747 -1.5930
15974TIP3    H269338   4.434   0.120   1.216  1.0746  0.4239 -2.9797
15975TIP3   OH269339   1.818   1.436  14.111  0.5696  0.2980 -0.1343
15975TIP3    H169340   1.788   1.416  14.199 -1.3506 -1.1578 -1.0415
15975TIP3    H269341   1.841   1.351  14.073  0.9836  0.8487 -1.1749
15976TIP3   OH269342   1.392   2.334  11.945  0.2200 -0.0229  0.0534
15976TIP3    H169343   1.415   2.245  11.919  0.2694  0.1158 -0.4015
15976TIP3    H269344   1.440   2.349  12.026 -2.0000 -1.4118  1.7309
15977TIP3   OH269345   2.465   1.541   4.415  0.1588  0.5577  0.3702
15977TIP3    H169346   2.404   1.475   4.383 -0.6860  1.2626  0.4862
15977TIP3    H269347   2.526   1.554   4.342 -1.3829  1.7020 -0.7820
15978TIP3   OH269348   3.694   3.171   3.146  0.0102 -0.1734 -0.1687
15978TIP3    H169349   3.764   3.147   3.206  0.7232  1.3272 -0.3642
15978TIP3    H269350   3.615   3.170   3.200  0.5416  0.4919  0.6523
15979TIP3   OH269351   6.483   5.437   1.491 -0.2539  0.2524  0.7097
15979TIP3    H169352   6.430   5.515   1.512 -2.0779 -0.8846  0.5158
15979TIP3    H269353   6.572   5.470   1.487 -1.1207  2.6798 -0.9746
15980TIP3   OH269354   3.668   3.010  11.908  0.3320 -0.3995  0.1840
15980TIP3    H169355   3.630   3.092  11.876  1.9138  0.8664  1.3977
15980TIP3    H269356   3.705   3.032  11.993  1.7915 -2.1091  0.0464
15981TIP3   OH269357   3.604   5.927   5.206 -0.6047 -0.2833 -0.2638
15981TIP3    H169358   3.654   5.966   5.277 -1.4125 -0.5660  0.4807
15981TIP3    H269359   3.670   5.903   5.141 -0.0495  2.1102 -0.6846
15982TIP3   OH269360   2.877   3.740  15.569 -0.2701  0.4807 -0.3060
15982TIP3    H169361   2.932   3.695  15.633  1.4623  1.0781 -1.3119
15982TIP3    H269362   2.788   3.717  15.594  0.4373 -0.9651  1.0658
15983TIP3   OH269363   1.055   1.409  15.398  0.3681  1.2360  0.3160
15983TIP3    H169364   1.013   1.349  15.461 -0.7896  0.7525 -0.8642
15983TIP3    H269365   1.020   1.383  15.313  1.4648  2.2469 -0.4815
15984TIP3   OH269366   0.703   6.538  11.600 -0.1965  0.8787  0.1940
15984TIP3    H169367   0.646   6.590  11.542  1.0102  1.1125 -0.8334
15984TIP3    H269368   0.776   6.513  11.544  0.4330  0.1039  1.3400
15985TIP3   OH269369   0.814   4.524  14.561  0.0090  0.0227 -1.0638
15985TIP3    H169370   0.738   4.489  14.515 -0.4527  0.0785 -0.3659
15985TIP3    H269371   0.788   4.523  14.654 -0.1974  2.5511 -1.0146
15986TIP3   OH269372   5.448   0.781   1.933  0.2724 -0.2711  0.0077
15986TIP3    H169373   5.454   0.686   1.928 -1.9789 -0.4740  0.1431
15986TIP3    H269374   5.485   0.803   2.019  1.7411 -0.8842 -0.4387
15987TIP3   OH269375   0.417   3.358   6.613  0.4016 -0.1445 -0.2558
15987TIP3    H169376   0.323   3.346   6.598  0.2588  0.6001  0.0434
15987TIP3    H269377   0.450   3.269   6.627 -0.4122 -0.3292  0.5472
15988TIP3   OH269378   0.604   0.034  13.174 -0.0832  0.4227 -0.2347
15988TIP3    H169379   0.534   0.096  13.153 -1.1572 -0.8687 -0.5667
15988TIP3    H269380   0.627   0.053  13.265 -1.1069  0.6218 -0.0112
15989TIP3   OH269381   0.894   5.878  14.957  0.0345 -0.2342 -0.2244
15989TIP3    H169382   0.830   5.812  14.930 -2.4297  2.1369 -0.5717
15989TIP3    H269383   0.942   5.899  14.877 -0.7576  0.0231 -0.6420
15990TIP3   OH269384   4.083   6.289  12.233  0.0569 -0.0325  0.4977
15990TIP3    H169385   4.095   6.256  12.322  0.0598 -1.0937  0.1223
15990TIP3    H269386   4.008   6.240  12.199  0.6583 -0.3651 -0.4059
15991TIP3   OH269387   1.273   0.990   1.008 -0.4359  0.6163 -0.1422
15991TIP3    H169388   1.230   1.040   0.939 -0.8602  0.9647  0.3712
15991TIP3    H269389   1.247   0.899   0.990 -2.7302  0.9660  1.0711
15992TIP3   OH269390   3.747   3.154  15.975  0.8094  0.1096  0.2285
15992TIP3    H169391   3.782   3.069  16.001  1.5549  0.7464  1.4002
15992TIP3    H269392   3.674   3.169  16.036  1.9745  1.1955  1.4217
15993TIP3   OH269393   2.652   2.659   2.128  0.3558 -0.0572  0.1471
15993TIP3    H169394   2.667   2.684   2.219  0.8234 -0.1469  0.0964
15993TIP3    H269395   2.657   2.742   2.079  1.4996 -0.1828  0.0309
15994TIP3   OH269396   4.469   4.661  14.034  0.1529  0.0685  0.2755
15994TIP3    H169397   4.489   4.571  14.060 -0.4924  0.2518  1.4929
15994TIP3    H269398   4.374   4.668  14.040  0.2481  1.0712  1.1182
15995TIP3   OH269399   2.678   4.899  15.885 -0.5680  0.0501  0.0330
15995TIP3    H169400   2.614   4.841  15.844 -0.9413  0.8128 -0.4848
15995TIP3    H269401   2.641   4.987  15.875  1.6239  0.8442 -2.4588
15996TIP3   OH269402   6.488   6.353  15.142  0.0990  0.1161  0.5321
15996TIP3    H169403   6.505   6.273  15.093  0.9159  0.1537  0.7304
15996TIP3    H269404   6.410   6.334  15.194  0.5039 -0.6783  0.8533
15997TIP3   OH269405   1.643   3.360   5.491 -0.1397 -0.5542 -0.4542
15997TIP3    H169406   1.677   3.271   5.496 -1.8683 -1.1844  1.8576
15997TIP3    H269407   1.551   3.349   5.464 -0.4320  0.4947  0.0453
15998TIP3   OH269408   2.633   5.858  15.442  0.2495  0.1850  0.3020
15998TIP3    H169409   2.586   5.820  15.367  1.5132  1.3968 -1.1778
15998TIP3    H269410   2.631   5.952  15.427  1.6385  0.3814  1.0990
15999TIP3   OH269411   1.626   1.345  13.130  0.6142 -0.4593  0.0645
15999TIP3    H169412   1.631   1.278  13.198 -0.3978 -0.8614 -0.2296
15999TIP3    H269413   1.541   1.331  13.089  0.0573  1.4466  0.4425
16000TIP3   OH269414   5.281   2.973  17.109 -0.0448 -0.2619 -0.3403
16000TIP3    H169415   5.373   2.964  17.134 -0.3869 -0.0342  1.0922
16000TIP3    H269416   5.233   2.927  17.177 -0.9755 -1.0139 -1.4659
16001TIP3   OH269417   1.687   3.799   1.121  0.6411  0.0294 -0.5515
16001TIP3    H169418   1.640   3.751   1.189  1.0976 -0.5392 -0.6321
16001TIP3    H269419   1.772   3.820   1.161  0.0075  1.8803 -0.0589
16002TIP3   OH269420   3.995   3.745  15.755 -0.1740 -0.2838 -0.0719
16002TIP3    H169421   4.005   3.811  15.824 -1.6115 -0.1294  0.0022
16002TIP3    H269422   4.044   3.670  15.788 -0.4193 -0.0388  0.9002
16003TIP3   OH269423   1.772   4.724   4.032 -0.3035  0.0942  0.1225
16003TIP3    H169424   1.858   4.707   3.993  0.0050  0.7863  0.4832
16003TIP3    H269425   1.777   4.686   4.119 -0.4949 -0.1904  0.0098
16004TIP3   OH269426   5.805   3.103  16.345 -0.1265 -1.0900 -0.3348
16004TIP3    H169427   5.761   3.074  16.265 -0.3336 -0.5228 -0.4315
16004TIP3    H269428   5.893   3.127  16.316  0.1611 -1.9631 -0.1880
16005TIP3   OH269429   0.369   4.454   0.169 -0.0423 -0.0431  0.2403
16005TIP3    H169430   0.407   4.381   0.121  1.5759  0.5672  0.5045
16005TIP3    H269431   0.276   4.451   0.149  0.4249 -0.3317 -2.2452
16006TIP3   OH269432   5.456   5.160  12.143 -0.2644 -0.3594  0.4141
16006TIP3    H169433   5.489   5.119  12.064 -0.3840 -0.7396  0.5610
16006TIP3    H269434   5.442   5.252  12.119  2.0928  0.1339  0.6902
16007TIP3   OH269435   2.138   2.583  15.199  0.0034 -0.3539 -0.5953
16007TIP3    H169436   2.042   2.583  15.202  0.0063 -1.4108  0.3684
16007TIP3    H269437   2.159   2.571  15.107 -0.7508  1.7175 -1.0903
16008TIP3   OH269438   1.072   0.380   3.391  0.1779  0.6354 -0.3512
16008TIP3    H169439   1.033   0.373   3.304 -0.9275  2.4697 -0.0523
16008TIP3    H269440   1.075   0.289   3.423 -0.7470  0.0882 -1.7182
16009TIP3   OH269441   1.991   4.867  11.338 -0.4213  0.3971 -0.2191
16009TIP3    H169442   1.896   4.869  11.350 -0.6760 -1.7729 -1.4469
16009TIP3    H269443   2.016   4.776  11.353  1.6579  1.1003  1.0833
16010TIP3   OH269444   0.050   0.593   3.472 -0.3059 -0.1596  0.0433
16010TIP3    H169445   0.144   0.576   3.467 -0.3019  0.0713 -0.8538
16010TIP3    H269446   0.042   0.667   3.532  0.1814  0.4908 -0.6712
16011TIP3   OH269447   4.310   5.771  11.864  0.0763  0.3934 -0.1320
16011TIP3    H169448   4.381   5.776  11.929  1.1120 -2.8033 -0.8578
16011TIP3    H269449   4.344   5.820  11.789  1.0543 -0.1340 -0.0545
16012TIP3   OH269450   4.933   0.568  13.425  0.1802 -0.3329  0.2765
16012TIP3    H169451   4.953   0.661  13.415 -0.3603 -0.3529 -1.3287
16012TIP3    H269452   4.928   0.554  13.520  0.4521  1.2201  0.5453
16013TIP3   OH269453   2.665   2.378   2.067  0.4417  0.3143 -0.1518
16013TIP3    H169454   2.631   2.466   2.080  1.0003  0.5173 -0.0307
16013TIP3    H269455   2.678   2.344   2.156  0.1019  0.0552 -0.1968
16014TIP3   OH269456   3.162   6.061  13.712  0.2347  0.1098 -0.7956
16014TIP3    H169457   3.067   6.055  13.716  0.2654  0.0892  0.1995
16014TIP3    H269458   3.184   6.134  13.770  0.9181 -0.9787  0.3740
16015TIP3   OH269459   1.725   3.751  15.224  0.0334 -0.4342 -0.0783
16015TIP3    H169460   1.688   3.666  15.245 -0.0959 -0.2189  0.5900
16015TIP3    H269461   1.684   3.812  15.286 -0.3937  0.2357 -0.9910
16016TIP3   OH269462   3.038   3.553   2.591  0.5089 -0.0428  0.1104
16016TIP3    H169463   3.105   3.507   2.643 -0.5129 -1.6254  0.0762
16016TIP3    H269464   3.075   3.557   2.503  1.1800  0.4317  0.3991
16017TIP3   OH269465   6.727   1.071  10.797 -0.0659  0.6056  0.3518
16017TIP3    H169466   6.747   1.151  10.748 -0.2388 -0.4266 -1.4697
16017TIP3    H269467   6.712   1.004  10.730  1.1222 -1.2374  1.8170
16018TIP3   OH269468   2.621   3.862  14.416 -0.0121  0.4654 -0.3832
16018TIP3    H169469   2.553   3.839  14.353  0.6425 -0.5355 -0.7614
16018TIP3    H269470   2.616   3.794  14.484  0.6101  0.3579 -0.4309
16019TIP3   OH269471   4.083   2.643  16.402 -0.0977  0.2976  0.0515
16019TIP3    H169472   3.992   2.646  16.373 -0.7206  0.0378  1.8833
16019TIP3    H269473   4.082   2.589  16.480  1.3593  1.6202  1.0540
16020TIP3   OH269474   6.595   3.668  15.937 -0.1198 -0.6558  0.4094
16020TIP3    H169475   6.550   3.670  16.022 -0.1663 -3.5830  0.5558
16020TIP3    H269476   6.666   3.604  15.949  0.7291 -0.1284 -1.3971
16021TIP3   OH269477   4.822   6.002   2.457 -0.3734 -0.1579 -0.2786
16021TIP3    H169478   4.733   6.032   2.475 -0.0747  0.6903 -0.1898
16021TIP3    H269479   4.839   6.027   2.367 -0.1489 -0.1401 -0.2318
16022TIP3   OH269480   6.048   6.400   2.803 -0.1784  0.6462 -0.2502
16022TIP3    H169481   6.066   6.457   2.878  0.2068  2.2516 -1.5124
16022TIP3    H269482   6.119   6.418   2.742 -0.3574 -0.8207 -0.9197
16023TIP3   OH269483   2.334   3.246   3.509  0.0989 -0.4836 -0.2459
16023TIP3    H169484   2.289   3.317   3.553  0.0568  0.0556 -1.1463
16023TIP3    H269485   2.269   3.208   3.450  0.5656 -0.2553 -0.9204
16024TIP3   OH269486   1.513   3.912  10.431 -0.0369  0.3873  0.2243
16024TIP3    H169487   1.593   3.868  10.461  0.1900  0.2377 -0.5715
16024TIP3    H269488   1.490   3.971  10.503  1.1050  0.8458  0.2448
16025TIP3   OH269489   6.696   6.364   4.487  0.2431  0.5493  0.5023
16025TIP3    H169490   6.749   6.406   4.419  0.1075 -0.9624 -0.5850
16025TIP3    H269491   6.630   6.430   4.510 -0.0188  0.9270 -1.1920
16026TIP3   OH269492   5.372   1.643   4.480 -0.1747 -0.5582 -0.0299
16026TIP3    H169493   5.390   1.618   4.389 -0.9010 -1.8568  0.1667
16026TIP3    H269494   5.457   1.632   4.525 -0.0053 -0.7055 -0.3821
16027TIP3   OH269495   4.332   1.653   0.361  0.1359 -0.2893  0.0512
16027TIP3    H169496   4.339   1.583   0.296  0.8064 -1.2517  1.1123
16027TIP3    H269497   4.244   1.645   0.397  0.1980 -0.5784  0.1426
16028TIP3   OH269498   1.158   3.998  14.727 -0.7163  0.1719 -0.0639
16028TIP3    H169499   1.147   4.083  14.685 -1.4369 -1.0970 -2.6519
16028TIP3    H269500   1.069   3.970  14.749 -0.4603  0.1962  1.0558
16029TIP3   OH269501   4.564   0.354   3.394 -0.0323  0.4435 -0.4653
16029TIP3    H169502   4.608   0.360   3.479 -1.8078  0.0878  0.5208
16029TIP3    H269503   4.615   0.289   3.345 -0.4879 -1.3496  1.3147
16030TIP3   OH269504   3.163   5.648  17.117 -0.1944  0.0780  0.4154
16030TIP3    H169505   3.173   5.643  17.212 -1.9397 -3.1031  0.5929
16030TIP3    H269506   3.081   5.602  17.099  1.0059 -1.1469 -2.7602
16031TIP3   OH269507   5.073   5.213   3.680 -0.0340  0.1151 -0.1925
16031TIP3    H169508   5.044   5.150   3.746 -1.7558 -0.2909 -1.2517
16031TIP3    H269509   5.149   5.172   3.639 -1.2008 -1.4221 -0.9498
16032TIP3   OH269510   5.653   4.426  16.373  0.3754 -0.5705 -0.0562
16032TIP3    H169511   5.571   4.399  16.331  0.5194 -1.8717  0.4485
16032TIP3    H269512   5.641   4.519  16.391  0.1328 -0.0283 -2.5593
16033TIP3   OH269513   6.182   1.685  15.608 -0.5041  0.0363 -0.4413
16033TIP3    H169514   6.268   1.723  15.624  0.3420 -1.3505 -1.4850
16033TIP3    H269515   6.134   1.752  15.560 -0.3405  1.1635  0.9213
16034TIP3   OH269516   2.458   6.234   3.224 -0.6793  0.2075  0.0103
16034TIP3    H169517   2.439   6.150   3.181  0.2828  0.5838 -1.2041
16034TIP3    H269518   2.553   6.241   3.222 -0.7438  1.2847  0.1889
16035TIP3   OH269519   3.695   0.058   3.453 -0.3673 -0.6437  0.9827
16035TIP3    H169520   3.631   0.022   3.391  0.7827  0.1856 -0.7697
16035TIP3    H269521   3.780   0.026   3.422  0.2354 -0.4359  2.3190
16036TIP3   OH269522   1.515   0.516   2.080 -0.4456  0.1478  0.5628
16036TIP3    H169523   1.493   0.509   1.987 -0.9389  0.9926  0.6031
16036TIP3    H269524   1.554   0.603   2.089  0.6383 -0.3604  0.9539
16037TIP3   OH269525   3.431   0.026  11.621  0.2329 -0.0267  0.3701
16037TIP3    H169526   3.510   0.027  11.566  0.2430 -1.6602  0.3079
16037TIP3    H269527   3.421   0.117  11.650  1.1867  0.5368 -0.9618
16038TIP3   OH269528   5.095   2.487   4.457 -0.2835 -0.1502  0.2910
16038TIP3    H169529   5.071   2.510   4.367 -0.8011 -2.0926 -0.1031
16038TIP3    H269530   5.100   2.392   4.458 -0.3329 -0.1887  2.3439
16039TIP3   OH269531   1.764   4.813  13.317  0.1848 -0.7184  0.3137
16039TIP3    H169532   1.725   4.887  13.269 -0.8303 -1.9585 -0.8375
16039TIP3    H269533   1.693   4.749  13.325  1.8614 -2.9763 -1.6825
16040TIP3   OH269534   5.860   6.304   4.003 -0.1088 -0.0459 -1.0409
16040TIP3    H169535   5.798   6.282   4.072  1.5484 -1.3776  0.1143
16040TIP3    H269536   5.814   6.285   3.921 -1.4624 -0.2212 -0.2682
16041TIP3   OH269537   1.333   1.780   3.682 -0.8167  0.1038 -0.2813
16041TIP3    H169538   1.383   1.748   3.607  1.6202  0.1926  1.1795
16041TIP3    H269539   1.284   1.855   3.649  0.4457  0.3470 -1.7133
16042TIP3   OH269540   6.144   2.577  13.145 -0.2755 -0.4794 -0.5548
16042TIP3    H169541   6.141   2.631  13.224  0.2729 -1.5349  0.2100
16042TIP3    H269542   6.052   2.570  13.118 -0.7763 -2.0296  1.3516
16043TIP3   OH269543   3.571   2.667   6.661  0.3590 -0.3535  0.0225
16043TIP3    H169544   3.658   2.653   6.624  0.5665 -1.8645  1.0209
16043TIP3    H269545   3.537   2.579   6.676 -1.9574  0.1625 -1.6504
16044TIP3   OH269546   6.042   3.948   0.946 -0.3060  0.0885  0.2396
16044TIP3    H169547   5.999   3.947   0.861 -1.3333 -1.2821  0.7415
16044TIP3    H269548   6.123   3.898   0.932 -0.5487 -0.2709  0.0968
16045TIP3   OH269549   0.302   4.250  11.902  0.2788  0.7049  0.3730
16045TIP3    H169550   0.292   4.342  11.926 -1.3841  0.7087 -0.1997
16045TIP3    H269551   0.341   4.252  11.815 -0.4789  0.8992  0.0350
16046TIP3   OH269552   2.051   5.894   2.331  0.0159 -0.1093  0.1742
16046TIP3    H169553   2.135   5.905   2.287  0.0182 -2.8641 -0.6994
16046TIP3    H269554   1.987   5.927   2.268  0.3157  0.0852 -0.0286
16047TIP3   OH269555   3.359   1.989  16.130  0.3222  0.1382  0.0190
16047TIP3    H169556   3.427   1.969  16.194 -1.4141 -0.8317  1.6774
16047TIP3    H269557   3.372   1.924  16.061 -0.4127 -1.7986  1.5760
16048TIP3   OH269558   6.138   3.428  13.164  0.6629  0.5354 -0.5468
16048TIP3    H169559   6.095   3.509  13.138  0.8031  0.7474 -0.1276
16048TIP3    H269560   6.110   3.414  13.255 -0.0228 -0.3271 -0.8852
16049TIP3   OH269561   5.597   1.882  11.521 -0.1381  0.0417 -0.3188
16049TIP3    H169562   5.676   1.918  11.479  0.9142 -1.4982  0.2321
16049TIP3    H269563   5.546   1.846  11.449  1.2975 -1.9116 -0.4752
16050TIP3   OH269564   4.597   0.985  11.569 -0.0761 -0.1390  0.4263
16050TIP3    H169565   4.628   1.020  11.653  0.7926  0.5482 -0.1656
16050TIP3    H269566   4.580   1.062  11.515 -1.4025 -0.5501  0.2150
16051TIP3   OH269567   5.198   5.536  12.172  0.2345 -0.3492 -0.6596
16051TIP3    H169568   5.114   5.570  12.141 -0.4933 -1.9974 -0.6078
16051TIP3    H269569   5.179   5.498  12.258  1.1723 -0.1939 -0.3729
16052TIP3   OH269570   2.563   6.648  10.998  0.1005  0.0630  0.1847
16052TIP3    H169571   2.637   6.635  11.058  0.7870  0.0819 -0.6357
16052TIP3    H269572   2.567   6.741  10.975  0.1224 -0.0422 -0.2421
16053TIP3   OH269573   4.858   3.819  16.596  0.0595  0.1835 -0.3099
16053TIP3    H169574   4.769   3.790  16.579  0.0717  0.4593 -0.8469
16053TIP3    H269575   4.901   3.742  16.635 -0.5643  0.2321  0.5046
16054TIP3   OH269576   0.049   1.487  12.722 -0.3060 -0.4407 -0.2428
16054TIP3    H169577   0.105   1.564  12.724  0.1567 -0.7704 -0.3623
16054TIP3    H269578  -0.039   1.520  12.741  0.1035 -0.0641  1.1103
16055TIP3   OH269579   4.000   1.069  12.239 -0.4006  0.4950 -0.1211
16055TIP3    H169580   4.020   1.123  12.316 -0.6346 -0.4555  0.6115
16055TIP3    H269581   3.934   1.007  12.268  0.9387 -1.1943 -0.5210
16056TIP3   OH269582   1.700   5.538  15.173  0.9011  0.9519  0.3255
16056TIP3    H169583   1.670   5.520  15.262 -0.2030  0.8493 -0.0563
16056TIP3    H269584   1.686   5.632  15.161  3.0124  1.3990  0.9614
16057TIP3   OH269585   3.392   1.331  13.128 -0.1617  0.1442 -0.6219
16057TIP3    H169586   3.448   1.408  13.128 -0.6807  0.6194  2.0543
16057TIP3    H269587   3.305   1.365  13.148 -0.2869 -1.1303  1.2852
16058TIP3   OH269588   1.989   1.766   6.427  0.4070  0.1238 -0.0439
16058TIP3    H169589   2.079   1.776   6.459  0.9635  0.2569 -1.5573
16058TIP3    H269590   1.934   1.802   6.496  1.5947  1.1547  0.3869
16059TIP3   OH269591   6.202   0.055  11.527 -0.0833  0.1972 -0.4523
16059TIP3    H169592   6.168   0.052  11.438  1.3391  0.5156 -1.0264
16059TIP3    H269593   6.297   0.066  11.517  0.1276  0.0538  1.0936
16060TIP3   OH269594   4.522   3.949   3.390 -0.0251  0.5399 -0.5140
16060TIP3    H169595   4.543   3.880   3.453  0.1123  1.8152  0.8988
16060TIP3    H269596   4.442   3.989   3.425 -1.7492 -0.6834 -2.8336
16061TIP3   OH269597   4.683   2.327   2.333  0.3902  0.1961 -0.3488
16061TIP3    H169598   4.642   2.258   2.385  1.0343 -1.2078 -1.6237
16061TIP3    H269599   4.623   2.402   2.341  0.2027 -0.1170  1.9190
16062TIP3   OH269600   1.625   3.532   2.615 -0.2891  0.6493 -0.0614
16062TIP3    H169601   1.692   3.558   2.552 -0.8079  1.0356 -0.4549
16062TIP3    H269602   1.542   3.546   2.569 -0.6627  0.7732  0.6464
16063TIP3   OH269603   0.665   2.300  14.155  0.2150 -0.0757  0.3102
16063TIP3    H169604   0.642   2.352  14.232 -0.9843  1.3168 -0.9332
16063TIP3    H269605   0.593   2.315  14.093  1.7716 -0.0698 -1.6068
16064TIP3   OH269606   0.283   3.104  14.297 -0.1353  0.1493 -0.0140
16064TIP3    H169607   0.219   3.065  14.238 -0.7490  2.0536 -0.6845
16064TIP3    H269608   0.302   3.036  14.361 -0.0915 -1.7045 -1.8997
16065TIP3   OH269609   2.130   3.611  14.086 -0.0832  0.2978 -0.3818
16065TIP3    H169610   2.132   3.520  14.058 -0.6807  0.5888 -1.4325
16065TIP3    H269611   2.124   3.661  14.005  1.8851  1.3699  0.0527
16066TIP3   OH269612   4.698   1.005   2.384  0.2396  0.1620 -0.2178
16066TIP3    H169613   4.665   1.066   2.319 -2.4163 -2.5530 -1.7072
16066TIP3    H269614   4.676   1.045   2.468 -2.8393  0.7002 -1.1360
16067TIP3   OH269615   5.304   4.154  14.569  0.0131 -0.3849  0.1719
16067TIP3    H169616   5.357   4.076  14.580  0.9575  0.0464 -1.1049
16067TIP3    H269617   5.333   4.214  14.638  2.1870  0.3434 -1.2629
16068TIP3   OH269618   1.209   0.683  11.496 -0.3686  0.6772  0.1069
16068TIP3    H169619   1.140   0.648  11.439 -0.6985  0.8745  0.3863
16068TIP3    H269620   1.290   0.656  11.453 -0.6146  0.9401 -0.5360
16069TIP3   OH269621   3.063   3.212   0.214  0.5053 -0.2178 -0.1316
16069TIP3    H169622   2.982   3.262   0.212 -0.5102 -1.5370  2.4506
16069TIP3    H269623   3.067   3.168   0.129 -1.0614  0.5082 -0.6080
16070TIP3   OH269624   0.184   5.298   5.424 -0.7579 -0.4029  0.2298
16070TIP3    H169625   0.164   5.391   5.415 -0.1518 -0.2474  0.4303
16070TIP3    H269626   0.189   5.284   5.519  0.8554 -0.2460  0.2054
16071TIP3   OH269627   1.491   4.356  15.052 -0.2296 -0.4375 -0.4678
16071TIP3    H169628   1.528   4.412  14.984 -0.5495 -0.7435 -0.8968
16071TIP3    H269629   1.469   4.274  15.007 -4.5240  0.7964 -1.0700
16072TIP3   OH269630   3.725   3.900   0.134 -0.0549 -0.3873  0.7230
16072TIP3    H169631   3.644   3.936   0.096 -0.1539 -0.9927  0.3437
16072TIP3    H269632   3.792   3.965   0.112 -0.8993  1.7022  3.6619
16073TIP3   OH269633   3.791   5.429  10.492  0.6085  0.1290  0.0166
16073TIP3    H169634   3.760   5.499  10.550  1.2478  0.4458 -0.0177
16073TIP3    H269635   3.883   5.419  10.514  1.0970  0.8533 -1.5324
16074TIP3   OH269636   6.360   2.227   4.604  0.2475  0.1222  0.1120
16074TIP3    H169637   6.439   2.207   4.653  0.3035 -0.7318 -0.3147
16074TIP3    H269638   6.303   2.272   4.667  0.7350 -0.0096  0.6502
16075TIP3   OH269639   3.988   4.751   5.849  0.6776  0.3049  0.1378
16075TIP3    H169640   3.980   4.722   5.940  0.8934  0.9710  0.3761
16075TIP3    H269641   4.018   4.673   5.802 -1.3838 -0.6161  0.2502
16076TIP3   OH269642   0.314   5.843   2.863 -0.0143 -0.3296 -0.4165
16076TIP3    H169643   0.392   5.859   2.810  0.5467  0.8130  0.7047
16076TIP3    H269644   0.241   5.877   2.810  0.3751 -0.3796 -0.9910
16077TIP3   OH269645   6.376   5.184  11.745  0.7424 -0.3660 -0.0524
16077TIP3    H169646   6.347   5.152  11.660 -1.7379 -1.1821  1.0067
16077TIP3    H269647   6.444   5.121  11.772 -1.1102 -2.4066  0.1567
16078TIP3   OH269648   6.194   5.954  14.578 -0.3728 -0.1617 -0.5425
16078TIP3    H169649   6.223   5.957  14.487 -0.8231 -0.5992 -0.7028
16078TIP3    H269650   6.212   6.042  14.612 -0.9447  0.2524 -1.2872
16079TIP3   OH269651   1.714   2.833   4.450 -0.1341  0.1372 -0.1899
16079TIP3    H169652   1.726   2.800   4.539 -1.8163  2.3219  0.9369
16079TIP3    H269653   1.689   2.755   4.400 -2.4703 -0.6737  2.0042
16080TIP3   OH269654   2.233   2.676  13.105  0.3084 -0.5873 -0.2812
16080TIP3    H169655   2.297   2.621  13.060 -0.2095 -0.8787 -0.6758
16080TIP3    H269656   2.244   2.654  13.198  0.3384 -1.1131 -0.4048
16081TIP3   OH269657   6.685   0.021   4.762 -0.4218 -0.4649 -0.4915
16081TIP3    H169658   6.637   0.007   4.681 -0.4980  1.5140 -0.8391
16081TIP3    H269659   6.617   0.029   4.829 -0.6197  1.7278 -0.8873
16082TIP3   OH269660   1.141   0.069   0.722  0.0787 -0.3009  0.2677
16082TIP3    H169661   1.049   0.094   0.733  0.3624  1.7007 -1.3486
16082TIP3    H269662   1.190   0.138   0.766  0.8539 -1.6156  1.5572
16083TIP3   OH269663   3.060   3.086   5.353 -0.3356 -0.0518  0.4483
16083TIP3    H169664   3.082   3.047   5.268 -1.0485  1.7518 -0.6259
16083TIP3    H269665   3.063   3.181   5.337 -3.1679  0.3435  1.6881
16084TIP3   OH269666   3.162   2.319  13.588 -1.0084  0.5013  0.4395
16084TIP3    H169667   3.127   2.315  13.678 -0.2073 -0.6210  0.7296
16084TIP3    H269668   3.092   2.282  13.534 -0.3192 -1.8316  1.0297
16085TIP3   OH269669   6.157   1.200   4.390  0.3861 -0.8335  0.4943
16085TIP3    H169670   6.064   1.216   4.373  0.8421  1.0282 -0.6097
16085TIP3    H269671   6.164   1.197   4.486 -0.9869 -2.4736  0.5840
16086TIP3   OH269672   4.646   4.023   3.054  0.1674 -0.4186  0.5097
16086TIP3    H169673   4.614   3.936   3.077  0.7911 -0.6831  0.3987
16086TIP3    H269674   4.704   4.008   2.980 -1.3063  0.3511 -0.8658
16087TIP3   OH269675   3.861   0.434   5.483  0.4626 -0.6219 -0.0286
16087TIP3    H169676   3.851   0.462   5.392  2.3118  0.7377  0.1376
16087TIP3    H269677   3.903   0.348   5.477  0.9254 -0.3683 -0.4509
16088TIP3   OH269678   4.899   2.712   4.992  0.0678 -0.0419  0.1693
16088TIP3    H169679   4.957   2.700   4.917  0.7095  1.4770  0.3771
16088TIP3    H269680   4.813   2.731   4.953  0.0104 -0.9055 -0.1500
16089TIP3   OH269681   1.335   5.421   3.927 -0.4257 -0.2900  0.2441
16089TIP3    H169682   1.418   5.446   3.968 -0.7352  0.5723  0.3585
16089TIP3    H269683   1.287   5.374   3.996 -0.7381  0.7195  0.7373
16090TIP3   OH269684   3.497   6.672  15.985 -0.3592 -0.0350 -0.0560
16090TIP3    H169685   3.582   6.714  15.998  0.2303 -0.3140 -2.5098
16090TIP3    H269686   3.469   6.700  15.898 -1.5732 -1.9565 -0.3553
16091TIP3   OH269687   2.737   6.773   1.134 -0.6502  0.2654  0.2412
16091TIP3    H169688   2.810   6.798   1.077  0.7349 -1.1026  1.3174
16091TIP3    H269689   2.776   6.765   1.221 -2.9277  3.4649  1.7401
16092TIP3   OH269690   4.846   0.081  11.964 -0.3807  0.8972  0.5046
16092TIP3    H169691   4.768   0.085  12.019  0.0506 -1.5539  1.4135
16092TIP3    H269692   4.818   0.036  11.885 -0.1867  1.2360  0.2381
16093TIP3   OH269693   0.456   5.551   5.698  0.0248 -0.3875  0.0201
16093TIP3    H169694   0.474   5.637   5.737  0.5763 -0.7959  0.7040
16093TIP3    H269695   0.527   5.539   5.634 -0.0778 -0.3140 -0.1071
16094TIP3   OH269696   4.715   4.787  14.110  0.0572 -0.3941  0.2340
16094TIP3    H169697   4.768   4.806  14.032 -0.3424  0.2488  0.1080
16094TIP3    H269698   4.670   4.705  14.089 -0.0503 -0.2244 -0.2207
16095TIP3   OH269699   0.461   6.412  14.174 -0.6324 -0.1909  0.5171
16095TIP3    H169700   0.466   6.331  14.124  0.2029  0.1938 -0.0309
16095TIP3    H269701   0.400   6.391  14.245 -0.1441 -1.4169  0.6099
16096TIP3   OH269702   1.675   4.280  15.552 -0.0400 -0.0921  0.4901
16096TIP3    H169703   1.650   4.262  15.462 -0.3169 -1.9086  0.8937
16096TIP3    H269704   1.737   4.211  15.574  0.8707  0.9575  1.3683
16097TIP3   OH269705   4.996   3.160   0.880 -0.2467  0.3546  0.3340
16097TIP3    H169706   4.916   3.173   0.829 -1.4426  0.5246  2.1623
16097TIP3    H269707   4.982   3.212   0.960  0.1721 -2.3002  2.2848
16098TIP3   OH269708   1.841   6.647   5.080 -0.8567 -0.1210 -0.4189
16098TIP3    H169709   1.928   6.674   5.048 -1.7850  0.2110 -2.9586
16098TIP3    H269710   1.853   6.632   5.173  2.0190 -0.4472 -0.7466
16099TIP3   OH269711   3.951   1.936  11.894  0.2212  0.1887  0.0591
16099TIP3    H169712   3.860   1.964  11.905 -0.0299 -1.0062  1.1629
16099TIP3    H269713   3.950   1.842  11.910  1.5410  0.0263 -0.6553
16100TIP3   OH269714   5.982   0.626   6.448 -0.3831  0.1486  0.3718
16100TIP3    H169715   6.004   0.540   6.486  1.4138  0.2383 -0.3643
16100TIP3    H269716   5.894   0.645   6.481 -1.6285 -2.8076 -0.9024
16101TIP3   OH269717   6.722   3.409  16.247  0.1225  0.3854 -0.2238
16101TIP3    H169718   6.748   3.448  16.163  0.7869  0.6237  0.0833
16101TIP3    H269719   6.752   3.318  16.242  0.6994  0.5565 -0.0228
16102TIP3   OH269720   5.126   2.205  13.987  0.3053 -0.1991  0.2630
16102TIP3    H169721   5.184   2.275  14.016 -0.6583  0.0507  1.7039
16102TIP3    H269722   5.180   2.126  13.991  1.2558  0.3691 -0.9036
16103TIP3   OH269723   3.619   4.631  14.393 -0.0118  0.2067 -0.0483
16103TIP3    H169724   3.582   4.598  14.475  0.9658  0.3841  0.4783
16103TIP3    H269725   3.553   4.610  14.327 -1.5896  1.5578  1.0168
16104TIP3   OH269726   5.815   3.689   1.675 -0.3352  0.4798 -0.3821
16104TIP3    H169727   5.734   3.735   1.697  0.1098  2.0943 -1.9198
16104TIP3    H269728   5.812   3.680   1.580  0.3267 -1.3724 -0.2630
16105TIP3   OH269729   5.912   2.726   1.160  0.5516  0.0477 -0.5052
16105TIP3    H169730   5.828   2.686   1.140  0.1429  1.5251 -1.9599
16105TIP3    H269731   5.892   2.818   1.179  1.9373  0.9350 -2.8158
16106TIP3   OH269732   3.055   0.641  16.708  0.7166 -0.1743  0.4280
16106TIP3    H169733   3.145   0.632  16.677  0.9254 -4.1363  1.7410
16106TIP3    H269734   3.063   0.685  16.793  1.1553  0.9887 -0.1820
16107TIP3   OH269735   2.420   4.792   0.168  0.3295  0.0283  0.0202
16107TIP3    H169736   2.431   4.863   0.105  2.1812 -1.3875 -1.3863
16107TIP3    H269737   2.339   4.749   0.141  0.4348  0.2116 -0.6085
16108TIP3   OH269738   4.788   5.712   3.697  0.1532  0.0326 -0.7091
16108TIP3    H169739   4.773   5.804   3.715  1.3830 -0.0454  0.9362
16108TIP3    H269740   4.868   5.710   3.645  1.2510 -0.1545  0.9031
16109TIP3   OH269741   1.004   0.847  17.124  0.1756 -0.1724  0.2340
16109TIP3    H169742   1.004   0.925  17.069  0.7515  0.5152  1.1897
16109TIP3    H269743   0.977   0.878  17.210 -0.1896 -1.1393  0.4854
16110TIP3   OH269744   0.823   3.989  10.926 -0.1189  0.4310 -0.2874
16110TIP3    H169745   0.815   3.954  10.837 -0.9031 -1.1907  0.3798
16110TIP3    H269746   0.883   3.929  10.970 -1.1572  0.1226  0.7688
16111TIP3   OH269747   5.045   1.473   5.622  0.2242  0.1229 -0.2839
16111TIP3    H169748   5.060   1.380   5.635  1.9138  0.6396  2.0941
16111TIP3    H269749   4.953   1.480   5.598 -0.0121 -2.1067 -0.2099
16112TIP3   OH269750   6.621   0.724  16.093 -0.3021  0.0253  0.3182
16112TIP3    H169751   6.590   0.638  16.123 -0.2134  0.5122  1.8813
16112TIP3    H269752   6.575   0.738  16.011 -0.8505 -1.2205  0.3846
16113TIP3   OH269753   3.133   0.270  12.315 -0.0082  0.3945 -0.1025
16113TIP3    H169754   3.156   0.177  12.311 -0.7797  0.0431  2.0856
16113TIP3    H269755   3.214   0.316  12.293  0.1115 -0.7521 -2.2849
16114TIP3   OH269756   0.567   4.254  14.594  0.1309  0.3726 -0.0124
16114TIP3    H169757   0.518   4.333  14.619  1.4929  0.7017  1.7556
16114TIP3    H269758   0.609   4.225  14.674  1.9289 -0.5501 -1.2208
16115TIP3   OH269759   1.934   5.256  11.814  0.3974  0.3252  0.0992
16115TIP3    H169760   1.886   5.204  11.750  1.1394 -0.3817  0.0870
16115TIP3    H269761   1.870   5.318  11.849 -0.5782 -0.7488  0.2723
16116TIP3   OH269762   5.325   2.395  14.037  0.2346  0.1370 -0.4488
16116TIP3    H169763   5.321   2.466  14.101  1.8777  0.0847 -0.2517
16116TIP3    H269764   5.417   2.367  14.038 -0.4017 -2.1692 -0.3287
16117TIP3   OH269765   4.676   1.751  14.351  0.0050 -0.3319 -0.1418
16117TIP3    H169766   4.746   1.815  14.364  0.9314 -1.4938  0.7250
16117TIP3    H269767   4.659   1.717  14.439 -3.4236  1.6740  0.1596
16118TIP3   OH269768   6.302   5.854   2.797 -0.3014  0.0417  0.4093
16118TIP3    H169769   6.283   5.827   2.886  1.6018  1.0305  1.1811
16118TIP3    H269770   6.224   5.902   2.769 -1.3909 -1.3019  1.0824
16119TIP3   OH269771   0.410   4.651  17.028  0.3130  0.2859 -0.0554
16119TIP3    H169772   0.403   4.559  17.051  0.8148  0.0822 -0.6876
16119TIP3    H269773   0.325   4.688  17.049  0.1319 -0.3033  0.2725
16120TIP3   OH269774   2.602   1.699  14.376  0.2624 -0.6557 -0.1935
16120TIP3    H169775   2.576   1.776  14.325  1.1793  0.2882  0.7151
16120TIP3    H269776   2.559   1.625  14.332 -1.1508  0.4417 -0.7022
16121TIP3   OH269777   4.449   0.884   2.616  0.9260 -0.6454 -0.0964
16121TIP3    H169778   4.534   0.841   2.617  1.5245  0.4338 -1.3449
16121TIP3    H269779   4.469   0.976   2.595 -0.5952 -0.5552 -1.3403
16122TIP3   OH269780   4.162   4.226  10.449  0.0932 -0.5045  0.4499
16122TIP3    H169781   4.176   4.132  10.455  0.1879 -0.4734  0.7463
16122TIP3    H269782   4.069   4.238  10.466  0.0111 -0.5751  0.0513
16123TIP3   OH269783   3.508   3.692  11.007 -0.3416 -0.3121  0.3490
16123TIP3    H169784   3.580   3.632  11.027  0.0380  0.2116  0.5692
16123TIP3    H269785   3.514   3.706  10.912  0.2291  0.2074  0.4560
16124TIP3   OH269786   6.191   0.302  12.154 -0.5702 -0.1616  0.6276
16124TIP3    H169787   6.205   0.214  12.118 -1.5001  0.4847 -1.5360
16124TIP3    H269788   6.219   0.361  12.083 -0.6263  1.2739  1.7556
16125TIP3   OH269789   2.796   3.993   2.873 -0.1503  0.2229 -0.1425
16125TIP3    H169790   2.733   3.981   2.803 -2.1407  1.6285  1.2735
16125TIP3    H269791   2.882   3.984   2.831 -1.1464  3.1927 -3.2620
16126TIP3   OH269792   1.113   5.631   4.789 -0.2784  0.1496  0.0550
16126TIP3    H169793   1.086   5.540   4.782  0.6458 -0.3636  2.2642
16126TIP3    H269794   1.203   5.632   4.756  0.4177 -0.2056  1.7971
16127TIP3   OH269795   3.610   5.349   4.721  0.2947  0.8416  0.0509
16127TIP3    H169796   3.697   5.312   4.708 -0.5896 -0.4340 -3.1602
16127TIP3    H269797   3.566   5.339   4.637 -3.6549 -0.4148  1.9826
16128TIP3   OH269798   5.589   1.016   4.600 -0.5289 -0.1728  0.0135
16128TIP3    H169799   5.664   0.996   4.656 -0.1235  0.7133 -0.1893
16128TIP3    H269800   5.530   0.941   4.610 -0.0257 -0.4643  0.8708
16129TIP3   OH269801   2.294   1.545   5.903  0.5161 -0.4110  0.3673
16129TIP3    H169802   2.380   1.518   5.870  1.2981  2.2002  0.0747
16129TIP3    H269803   2.312   1.617   5.963 -1.3671 -1.0209  1.7734
16130TIP3   OH269804   3.218   1.674   5.281  0.3684 -0.1787 -0.0259
16130TIP3    H169805   3.300   1.705   5.319  0.1229  0.3571  0.0749
16130TIP3    H269806   3.172   1.754   5.255  0.7700 -0.5316 -1.9638
16131TIP3   OH269807   3.286   3.535  13.743 -0.3881  0.5252  0.6896
16131TIP3    H169808   3.206   3.506  13.785 -0.3957  0.2521  0.4874
16131TIP3    H269809   3.289   3.487  13.661 -0.4345  1.1417  0.3187
16132TIP3   OH269810   6.612   2.321  13.014 -0.1170 -0.0007  0.1818
16132TIP3    H169811   6.608   2.338  12.920  0.0123 -0.4988  0.0844
16132TIP3    H269812   6.615   2.225  13.021 -2.8778 -0.1330  0.7848
16133TIP3   OH269813   0.219   4.284  16.062 -0.5036  0.3916  0.0465
16133TIP3    H169814   0.246   4.312  15.975 -1.4348  1.1258 -0.0206
16133TIP3    H269815   0.201   4.191  16.053  0.0144  0.3286 -0.3882
16134TIP3   OH269816   2.656   1.142  12.578  0.0308 -0.3421  0.5923
16134TIP3    H169817   2.671   1.232  12.548  1.4610 -0.1266  1.8648
16134TIP3    H269818   2.655   1.091  12.497 -1.1747  0.8424 -0.1859
16135TIP3   OH269819   4.318   3.460   2.231  0.0971  0.4879 -0.2789
16135TIP3    H169820   4.347   3.464   2.322  3.5627 -0.7713 -1.2018
16135TIP3    H269821   4.318   3.367   2.210  0.4573  0.8333 -1.9026
16136TIP3   OH269822   5.452   4.703   4.070 -0.0122 -0.1956  0.0414
16136TIP3    H169823   5.434   4.744   4.155  0.8781 -0.1009  0.1843
16136TIP3    H269824   5.426   4.611   4.082 -1.8199  0.2360 -0.2208
16137TIP3   OH269825   5.195   2.888   4.487 -0.0829 -0.0868 -0.5381
16137TIP3    H169826   5.253   2.933   4.425  0.9463 -1.1605 -0.3954
16137TIP3    H269827   5.170   2.956   4.550  1.4693  0.3162 -0.2980
16138TIP3   OH269828   6.767   3.352   0.725  0.1115  0.2493  0.5286
16138TIP3    H169829   6.704   3.405   0.772 -2.8773 -3.8253  1.6916
16138TIP3    H269830   6.751   3.371   0.632 -0.6667  1.4497  0.8899
16139TIP3   OH269831   0.951   2.219  16.462 -0.2911  0.2863 -0.4984
16139TIP3    H169832   0.994   2.135  16.447  0.7118  0.7778 -0.4593
16139TIP3    H269833   0.969   2.240  16.553  1.0334  1.3851 -0.9782
16140TIP3   OH269834   1.807   2.975  12.535  0.4464 -0.2451  0.2946
16140TIP3    H169835   1.795   2.909  12.604 -1.4713  0.1258  0.3645
16140TIP3    H269836   1.730   2.967  12.480  1.3444  0.3339 -1.1083
16141TIP3   OH269837   4.882   5.174  13.708 -0.2861  0.1727  0.3054
16141TIP3    H169838   4.963   5.164  13.658 -0.9585  0.4244 -0.8690
16141TIP3    H269839   4.815   5.193  13.642 -1.1738  0.6911  1.3267
16142TIP3   OH269840   0.254   3.384  11.840 -0.5716 -0.2369  0.1513
16142TIP3    H169841   0.258   3.433  11.923 -1.5534 -0.6872  0.4689
16142TIP3    H269842   0.303   3.304  11.858  1.9490  0.9996 -0.6801
16143TIP3   OH269843   4.629   2.843  13.745  0.2762  0.3267 -0.0961
16143TIP3    H169844   4.588   2.920  13.706 -0.6547  0.2634  0.7016
16143TIP3    H269845   4.603   2.846  13.837 -3.1287 -2.9336 -0.6742
16144TIP3   OH269846   0.905   2.770  12.958  0.1848  0.2895 -0.4305
16144TIP3    H169847   0.993   2.749  12.989 -0.7245 -1.9718  0.8563
16144TIP3    H269848   0.866   2.819  13.030  0.6662  2.2068 -1.4179
16145TIP3   OH269849   4.222   0.875   6.402  0.8217 -0.2156  0.2535
16145TIP3    H169850   4.238   0.866   6.308  1.0645 -1.2774  0.3794
16145TIP3    H269851   4.309   0.883   6.440  0.7493 -0.2461  0.4263
16146TIP3   OH269852   3.094   3.313  16.525  0.1002 -0.3330  0.3208
16146TIP3    H169853   3.099   3.327  16.619  0.6834 -0.3163  0.2898
16146TIP3    H269854   3.149   3.237  16.509 -1.8800 -1.8418  0.2974
16147TIP3   OH269855   5.058   6.216   1.549  0.5792  0.2819  0.2985
16147TIP3    H169856   5.007   6.288   1.586  1.7399  1.0670  0.4301
16147TIP3    H269857   5.120   6.193   1.618  0.5447 -0.5174  0.0725
16148TIP3   OH269858   3.513   5.669  14.306 -0.2924 -0.1830  0.0134
16148TIP3    H169859   3.519   5.759  14.274 -0.0900  0.5272  1.9033
16148TIP3    H269860   3.596   5.629  14.279 -0.8403 -0.1719 -1.8043
16149TIP3   OH269861   4.213   1.248  11.697 -0.7467 -0.0914  0.6746
16149TIP3    H169862   4.285   1.186  11.689  0.3250  1.3189 -1.5468
16149TIP3    H269863   4.255   1.334  11.701 -2.2485  0.8237 -1.3566
16150TIP3   OH269864   3.528   0.222   1.768  0.3601 -0.2712  0.3707
16150TIP3    H169865   3.510   0.221   1.862  1.4626  0.4026  0.6211
16150TIP3    H269866   3.449   0.258   1.728  0.1528  0.1383  1.1308
16151TIP3   OH269867   2.895   4.773   0.757  0.2445  0.3692 -0.7231
16151TIP3    H169868   2.971   4.742   0.806 -0.9221 -1.5026  0.0387
16151TIP3    H269869   2.860   4.694   0.716 -1.7080  1.0297 -0.4267
16152TIP3   OH269870   2.816   1.681   4.348 -0.2567  0.7625 -0.0614
16152TIP3    H169871   2.870   1.754   4.318  1.3014  1.0577  3.0225
16152TIP3    H269872   2.786   1.708   4.435 -1.3082 -1.4656  0.3400
16153TIP3   OH269873   1.016   1.100   0.498 -0.1324  0.4675 -0.5543
16153TIP3    H169874   0.994   1.008   0.506  2.8180 -0.2128  0.9989
16153TIP3    H269875   0.971   1.129   0.418  0.1966 -2.7354 -2.0417
16154TIP3   OH269876   2.646   0.111  16.651  0.2123 -0.3419 -0.0368
16154TIP3    H169877   2.661   0.137  16.742 -0.3263  0.5542 -0.1956
16154TIP3    H269878   2.714   0.157  16.601 -1.2480  1.4976 -0.4154
16155TIP3   OH269879   5.406   5.157   5.318 -0.7046 -0.4007 -0.1381
16155TIP3    H169880   5.441   5.113   5.396 -2.3913 -2.0260 -0.2278
16155TIP3    H269881   5.477   5.155   5.255 -0.7624 -3.3676 -0.2412
16156TIP3   OH269882   0.509   0.860   2.573  0.0697  0.1204 -0.0467
16156TIP3    H169883   0.491   0.822   2.487 -1.8707 -0.3701  0.5256
16156TIP3    H269884   0.423   0.864   2.616  0.9909  0.2905  1.8866
16157TIP3   OH269885   2.098   5.616  14.921  0.0720  0.1644 -0.1141
16157TIP3    H169886   2.107   5.696  14.974 -0.0368  0.1793 -0.1181
16157TIP3    H269887   2.038   5.640  14.851  1.1762  0.5122 -0.9701
16158TIP3   OH269888   5.888   6.573  15.830 -0.1995  0.7956  0.1245
16158TIP3    H169889   5.842   6.631  15.890 -1.3192  3.2168 -2.8032
16158TIP3    H269890   5.819   6.528  15.782  0.6538 -0.8487  0.3532
16159TIP3   OH269891   2.759   2.984  14.467  0.4993  0.2663 -0.3995
16159TIP3    H169892   2.843   2.957  14.504  1.5395  3.3182 -0.2791
16159TIP3    H269893   2.713   3.026  14.540 -1.0948 -1.1461 -0.5275
16160TIP3   OH269894   2.711   3.321   4.167 -0.4854 -0.3504  0.4682
16160TIP3    H169895   2.795   3.304   4.211 -1.4612 -4.1556  1.1828
16160TIP3    H269896   2.646   3.318   4.237 -1.4109  1.1239 -0.2802
16161TIP3   OH269897   5.311   4.586   0.672 -0.3087  0.1102 -0.2898
16161TIP3    H169898   5.235   4.569   0.616 -0.0970 -0.8194 -0.3063
16161TIP3    H269899   5.332   4.678   0.656 -1.4963  0.4171 -0.1996
16162TIP3   OH269900   6.660   5.443   4.057 -0.2406  0.1053 -0.3009
16162TIP3    H169901   6.676   5.535   4.035  0.2221 -0.2009 -1.3010
16162TIP3    H269902   6.636   5.402   3.974 -2.2207 -0.3311  0.4363
16163TIP3   OH269903   6.154   4.960   3.483  0.5386 -0.1416  0.0561
16163TIP3    H169904   6.243   4.993   3.492  1.4509 -2.3267 -0.3632
16163TIP3    H269905   6.116   5.012   3.412  0.9998  1.6536  1.0415
16164TIP3   OH269906   0.712   3.695  14.382  0.4484  0.3921 -0.3277
16164TIP3    H169907   0.680   3.608  14.406  0.6405  0.6485  0.9744
16164TIP3    H269908   0.803   3.697  14.413  0.6123  0.8767 -0.8169
16165TIP3   OH269909   0.638   2.165   3.432 -0.0092 -0.3873  0.0785
16165TIP3    H169910   0.580   2.091   3.412 -0.4241  0.0911 -0.5151
16165TIP3    H269911   0.579   2.235   3.460  0.5467 -1.2246  3.8829
16166TIP3   OH269912   3.619   0.605  11.543  0.3558  0.6309  0.1217
16166TIP3    H169913   3.534   0.574  11.572  1.7611 -1.7670  2.0753
16166TIP3    H269914   3.631   0.566  11.456 -0.4109  0.8223 -0.0749
16167TIP3   OH269915   6.734   0.765   2.325  0.5661  0.7509 -0.1060
16167TIP3    H169916   6.707   0.847   2.366 -2.1715 -1.4555  3.0304
16167TIP3    H269917   6.687   0.764   2.242 -1.7185  1.2009  1.0889
16168TIP3   OH269918   0.721   5.924   2.246 -0.0135 -0.1174  0.3710
16168TIP3    H169919   0.804   5.878   2.255 -0.5842 -0.9294  1.9295
16168TIP3    H269920   0.660   5.874   2.301 -1.1068  1.4638  0.6661
16169TIP3   OH269921   4.755   1.944  10.613 -0.1124  0.0879 -0.4326
16169TIP3    H169922   4.764   2.027  10.659  0.8869 -1.3586  2.1528
16169TIP3    H269923   4.666   1.945  10.580 -0.8117  1.3299  1.3295
16170TIP3   OH269924   3.247   4.672   0.545 -0.0256 -0.0006  0.2292
16170TIP3    H169925   3.161   4.658   0.505 -0.6993 -1.6069  2.0747
16170TIP3    H269926   3.239   4.755   0.592 -0.8863 -0.5760  1.1195
16171TIP3   OH269927   2.005   2.619  11.105  0.1911 -0.7867 -0.0625
16171TIP3    H169928   2.072   2.618  11.036 -0.1083  0.6811 -0.4243
16171TIP3    H269929   1.922   2.622  11.058 -0.0687 -1.0670  0.3746
16172TIP3   OH269930   3.294   2.378  16.716 -0.2994 -0.1532  0.5391
16172TIP3    H169931   3.315   2.288  16.692 -2.0940  0.2386 -3.0747
16172TIP3    H269932   3.228   2.370  16.785  2.6440 -1.3822  3.5177
16173TIP3   OH269933   1.369   1.402  17.230 -0.1410 -0.3347  0.4859
16173TIP3    H169934   1.286   1.443  17.256 -0.9035 -0.6394 -1.3077
16173TIP3    H269935   1.344   1.315  17.200  1.1215 -1.1608  1.7148
16174TIP3   OH269936   3.799   6.233   0.940  0.1520 -0.1216  0.2356
16174TIP3    H169937   3.834   6.167   1.000  0.1921  0.5752  0.9989
16174TIP3    H269938   3.711   6.251   0.972 -0.4743 -0.9486 -0.9311
16175TIP3   OH269939   5.826   2.468   3.857 -0.2324  0.5319  0.2469
16175TIP3    H169940   5.870   2.393   3.816  1.0005  1.3766 -0.0215
16175TIP3    H269941   5.839   2.455   3.951 -0.3324  0.2277  0.2216
16176TIP3   OH269942   4.636   0.846  17.233  0.1430  0.1345 -0.3357
16176TIP3    H169943   4.731   0.843  17.236  0.1367 -0.8828 -0.6861
16176TIP3    H269944   4.616   0.895  17.153  0.3501  1.6915  0.5317
16177TIP3   OH269945   5.311   5.613   2.098 -0.0130 -0.0745  0.4286
16177TIP3    H169946   5.303   5.576   2.010 -0.5533 -0.4262  0.6227
16177TIP3    H269947   5.222   5.612   2.133 -0.1685  1.9820  0.2037
16178TIP3   OH269948   0.465   4.143  16.099  0.5725 -0.4352 -0.2767
16178TIP3    H169949   0.507   4.103  16.175  0.4339 -3.4294 -1.6088
16178TIP3    H269950   0.385   4.182  16.134  1.9256  0.8970  1.5005
16179TIP3   OH269951   6.104   2.510   3.433  0.4603 -0.5238  0.1212
16179TIP3    H169952   6.114   2.414   3.431  0.6483 -0.5576  1.7149
16179TIP3    H269953   6.094   2.534   3.341 -0.1205 -2.1342 -0.2799
16180TIP3   OH269954   1.984   6.238   5.886 -0.0440 -0.4194  0.4019
16180TIP3    H169955   2.050   6.213   5.951 -0.7431 -1.7184  0.6476
16180TIP3    H269956   1.987   6.168   5.820 -1.6055 -0.8896  0.7682
16181TIP3   OH269957   4.545   5.429  13.693  0.2878  0.0583 -0.0990
16181TIP3    H169958   4.526   5.400  13.604 -0.0013  1.6226 -0.5824
16181TIP3    H269959   4.618   5.373  13.721 -0.8586 -1.7620 -0.5639
16182TIP3   OH269960   6.471   1.409   5.288 -0.0107  0.3743  0.1932
16182TIP3    H169961   6.487   1.402   5.382  0.1589 -0.5704  0.0965
16182TIP3    H269962   6.516   1.489   5.262 -0.8464  1.1631  1.0770
16183TIP3   OH269963   4.439   3.387  14.908  0.1999  0.6490  0.2644
16183TIP3    H169964   4.399   3.303  14.887 -0.7465  1.4391 -1.2267
16183TIP3    H269965   4.404   3.409  14.995  0.0092 -0.2176  0.4139
16184TIP3   OH269966   2.048   0.192   3.078  0.4783  0.1874  0.2889
16184TIP3    H169967   2.042   0.098   3.098 -2.3450 -0.0152 -0.9632
16184TIP3    H269968   2.010   0.199   2.990 -0.0948  2.6163  0.6818
16185TIP3   OH269969   6.098   4.902  12.044 -0.6160  0.3112 -0.5284
16185TIP3    H169970   6.100   4.826  12.102 -0.2134  0.4430 -0.3619
16185TIP3    H269971   6.069   4.868  11.960 -0.0876 -0.1001 -0.5513
16186TIP3   OH269972   0.232   1.727   2.124  0.0029  0.2587 -0.1245
16186TIP3    H169973   0.158   1.708   2.181 -0.3890 -1.1619 -1.0494
16186TIP3    H269974   0.305   1.744   2.183 -0.5085 -0.6831  0.7951
16187TIP3   OH269975   6.211   4.221  17.089 -0.0103 -0.3734 -0.6365
16187TIP3    H169976   6.133   4.170  17.066  0.7141 -2.2085  0.7369
16187TIP3    H269977   6.254   4.170  17.158  0.7825  2.1307  0.8645
16188TIP3   OH269978   1.962   5.029   6.087 -0.3847  0.8505  0.7951
16188TIP3    H169979   1.876   4.987   6.091 -0.2117  0.3488 -0.4090
16188TIP3    H269980   1.950   5.112   6.134 -1.3982  0.5917  1.0263
16189TIP3   OH269981   0.831   0.252   4.923 -0.1400 -0.0152 -0.2131
16189TIP3    H169982   0.745   0.285   4.895  0.3554  1.3410 -0.2287
16189TIP3    H269983   0.891   0.280   4.853  0.5589  0.4508  0.5552
16190TIP3   OH269984   5.183   6.105  14.298 -0.0019 -0.3783  0.9046
16190TIP3    H169985   5.267   6.138  14.267  0.1872 -2.1255 -0.6446
16190TIP3    H269986   5.118   6.151  14.246  0.2322 -1.8839 -0.8286
16191TIP3   OH269987   1.483   4.454   0.640 -0.2378 -0.4133 -0.1004
16191TIP3    H169988   1.461   4.544   0.618  0.0550  0.3082  2.3220
16191TIP3    H269989   1.436   4.401   0.575  0.0952  1.4552 -1.9651
16192TIP3   OH269990   0.637   5.624  12.763 -0.2438 -0.5292  0.0090
16192TIP3    H169991   0.611   5.669  12.683 -0.3459 -1.0950 -0.2816
16192TIP3    H269992   0.565   5.564  12.781 -1.9258  1.9200  2.4151
16193TIP3   OH269993   6.306   1.366  16.395  0.2989 -0.4895  0.3200
16193TIP3    H169994   6.327   1.315  16.317 -0.9841  0.2756 -0.5588
16193TIP3    H269995   6.210   1.372  16.395  0.2678 -0.3712  1.9002
16194TIP3   OH269996   1.829   3.235  15.987 -0.1825  0.2147 -0.7982
16194TIP3    H169997   1.898   3.268  15.929  3.0672 -0.5766  2.2561
16194TIP3    H269998   1.804   3.311  16.039 -1.9016  0.5468 -2.0310
16195TIP3   OH269999   2.900   4.745   5.683  0.0539 -0.1474 -0.3232
16195TIP3    H170000   2.876   4.672   5.625  1.0334 -1.1936  0.5400
16195TIP3    H270001   2.970   4.790   5.637  2.1935 -2.1269  0.7940
16196TIP3   OH270002   1.517   0.269  14.785  0.2192 -0.0790  0.4556
16196TIP3    H170003   1.528   0.362  14.807  1.6265 -0.3628  1.0784
16196TIP3    H270004   1.534   0.264  14.691 -0.7018  0.4017  0.2523
16197TIP3   OH270005   1.937   3.738   3.350  0.1236 -0.4920  0.1809
16197TIP3    H170006   1.924   3.731   3.255 -0.3503 -0.4465  0.2389
16197TIP3    H270007   2.012   3.681   3.368  0.6770  0.0595 -0.3178
16198TIP3   OH270008   0.556   4.409   4.044  0.7054  0.3743  0.7022
16198TIP3    H170009   0.592   4.484   4.090 -0.5961  0.7303  1.1828
16198TIP3    H270010   0.517   4.447   3.964  0.0040  0.2355  0.9698
16199TIP3   OH270011   2.518   4.139   0.261  0.2536  0.7140 -0.5429
16199TIP3    H170012   2.440   4.117   0.312  1.2583 -0.8509  0.4103
16199TIP3    H270013   2.484   4.170   0.177 -1.3973 -0.1783 -0.2534
16200TIP3   OH270014   3.095   1.743  14.823  0.1777  0.1775  0.0493
16200TIP3    H170015   3.064   1.821  14.868  0.3576  0.4885 -0.3606
16200TIP3    H270016   3.185   1.764  14.798 -0.1640  0.3143 -1.1392
16201TIP3   OH270017   3.940   3.988  13.734 -0.0692 -0.5425  0.3438
16201TIP3    H170018   3.959   3.991  13.640  0.5432 -1.0176  0.4484
16201TIP3    H270019   3.847   3.967  13.739 -0.1805 -0.1826 -0.1578
16202TIP3   OH270020   3.927   6.256   0.066 -0.0802 -0.3929 -0.4724
16202TIP3    H170021   3.997   6.318   0.046  0.8132 -1.4119 -0.5331
16202TIP3    H270022   3.920   6.257   0.161 -0.5901  0.3456 -0.5043
16203TIP3   OH270023   2.166   2.139  17.062  0.5908  0.1293 -0.0055
16203TIP3    H170024   2.159   2.044  17.058  0.4441  0.0866  1.1105
16203TIP3    H270025   2.110   2.170  16.991  0.4527 -0.6037 -0.2210
16204TIP3   OH270026   0.773   4.198  14.243 -0.0060 -0.5155 -0.1900
16204TIP3    H170027   0.751   4.221  14.152  2.3416 -2.4292 -1.3637
16204TIP3    H270028   0.724   4.118  14.260  0.2341 -0.6460 -0.1066
16205TIP3   OH270029   6.099   1.967  11.109  0.1207  0.5360  0.4835
16205TIP3    H170030   6.113   2.029  11.038 -1.8558 -0.3716 -0.8004
16205TIP3    H270031   6.140   1.886  11.078  0.2268  0.4387  0.8759
16206TIP3   OH270032   0.256   6.378  12.957  0.0036  0.1145  0.3998
16206TIP3    H170033   0.202   6.359  12.881  0.5113  1.7541 -0.3998
16206TIP3    H270034   0.279   6.470  12.949  0.9327  0.0653  1.9951
16207TIP3   OH270035   4.494   4.046   0.694 -0.1860  0.3694  0.2732
16207TIP3    H170036   4.470   3.999   0.774 -1.6434  0.4656 -0.0798
16207TIP3    H270037   4.589   4.056   0.700  0.0034 -1.4916  0.9719
16208TIP3   OH270038   0.382   5.180  17.032 -0.4130  0.3813 -0.4350
16208TIP3    H170039   0.472   5.149  17.044 -0.0859  0.8296 -1.6001
16208TIP3    H270040   0.329   5.122  17.087  0.5958  0.1826  0.3553
16209TIP3   OH270041   6.446   3.269  14.103  0.2002 -0.0083  0.7227
16209TIP3    H170042   6.475   3.181  14.080  0.9019  0.4247 -0.1109
16209TIP3    H270043   6.493   3.290  14.183  2.3580  0.7131 -0.6555
16210TIP3   OH270044   4.419   1.198   6.663 -0.3692 -0.5928  0.2838
16210TIP3    H170045   4.347   1.260   6.660 -0.2863 -0.5141 -0.2138
16210TIP3    H270046   4.380   1.116   6.693 -0.6763 -0.5680 -0.0559
16211TIP3   OH270047   4.017   6.713   6.353 -0.0310  0.1488  0.0354
16211TIP3    H170048   4.093   6.735   6.407  0.9011  0.6226 -1.4228
16211TIP3    H270049   3.989   6.627   6.386  1.8584 -0.5873 -0.1652
16212TIP3   OH270050   4.795   3.744   0.661  0.0815  0.8278 -0.1661
16212TIP3    H170051   4.839   3.659   0.658 -2.6566 -0.7497  0.5413
16212TIP3    H270052   4.741   3.745   0.582 -1.6135  0.8468  0.9440
16213TIP3   OH270053   1.192   2.250  14.445 -0.4358  0.2234  0.4266
16213TIP3    H170054   1.123   2.311  14.419 -0.2810  0.0348 -0.4602
16213TIP3    H270055   1.152   2.195  14.512 -0.9567  0.5036  0.3519
16214TIP3   OH270056   1.499   4.403   3.437 -0.5998  0.1037 -0.2949
16214TIP3    H170057   1.524   4.457   3.513  3.8196 -0.2777 -1.1848
16214TIP3    H270058   1.530   4.315   3.459 -1.5265 -0.5745 -1.5640
16215TIP3   OH270059   1.539   0.176   0.526  0.5437  0.0989  0.0897
16215TIP3    H170060   1.528   0.083   0.505  0.4126  0.0893  0.1963
16215TIP3    H270061   1.479   0.191   0.599  1.1178  0.0883  0.5730
16216TIP3   OH270062   2.744   1.340   3.601 -0.5834 -0.4874  0.4017
16216TIP3    H170063   2.765   1.289   3.679  2.0700 -1.1432 -0.6338
16216TIP3    H270064   2.810   1.409   3.599 -1.0744 -0.0191 -0.8735
16217TIP3   OH270065   0.879   1.598  16.059  0.0593  0.2515 -0.3203
16217TIP3    H170066   0.849   1.511  16.084 -1.2201  1.2448  1.8117
16217TIP3    H270067   0.928   1.630  16.134 -0.8558  1.9881 -0.4036
16218TIP3   OH270068   1.264   2.234  14.863 -0.4528 -0.3187 -0.0382
16218TIP3    H170069   1.209   2.203  14.935  0.7102 -0.1266  0.9561
16218TIP3    H270070   1.202   2.258  14.794 -1.7014  0.9019  1.4343
16219TIP3   OH270071   3.798   5.911   5.004 -0.1497 -0.1818 -0.5449
16219TIP3    H170072   3.826   5.842   4.944  3.5350  0.1580  0.5764
16219TIP3    H270073   3.798   5.990   4.950 -0.5713 -0.4404 -0.9350
16220TIP3   OH270074   3.691   4.514   3.261 -0.1499 -0.7329  0.8575
16220TIP3    H170075   3.777   4.473   3.267  0.4326  0.5202  1.6563
16220TIP3    H270076   3.656   4.507   3.349  0.5904  1.6722  1.4263
16221TIP3   OH270077   3.980   2.587   6.211 -0.0630 -0.3233  0.2860
16221TIP3    H170078   4.029   2.531   6.270  1.9819  2.0245  1.0005
16221TIP3    H270079   3.981   2.673   6.253 -0.5293  0.9199 -2.0510
16222TIP3   OH270080   1.902   6.707  12.356 -0.0071 -0.1894  0.2123
16222TIP3    H170081   1.870   6.796  12.372 -2.1558 -0.7721 -0.5496
16222TIP3    H270082   1.958   6.716  12.279 -0.5452  0.4430 -0.1181
16223TIP3   OH270083   0.150   2.641  14.488  0.0200 -0.5888  0.3094
16223TIP3    H170084   0.232   2.597  14.465  0.5964 -0.1268  1.4011
16223TIP3    H270085   0.101   2.646  14.406  2.0570  1.1996 -0.9100
16224TIP3   OH270086   5.680   0.153   1.320 -0.7019 -0.1118 -0.2526
16224TIP3    H170087   5.758   0.128   1.271 -0.3871  0.3986 -0.0301
16224TIP3    H270088   5.613   0.091   1.293 -0.3652 -0.2171 -0.8603
16225TIP3   OH270089   6.222   3.727  13.372  0.1302 -0.8273  0.5989
16225TIP3    H170090   6.267   3.807  13.344  0.7452 -0.1761  3.2364
16225TIP3    H270091   6.285   3.657  13.353  1.7498 -0.0851  2.8262
16226TIP3   OH270092   4.911   1.153   1.041 -0.0406 -0.0201 -0.1061
16226TIP3    H170093   4.885   1.240   1.011 -1.8337 -0.8464 -1.0855
16226TIP3    H270094   4.835   1.121   1.089  0.1412 -1.4995 -0.7663
16227TIP3   OH270095   1.873   5.030  14.071  0.1685 -0.8638 -0.3529
16227TIP3    H170096   1.816   4.962  14.036  0.1362 -0.7318 -0.5578
16227TIP3    H270097   1.955   5.021  14.022 -0.4349  0.3901 -1.6635
16228TIP3   OH270098   1.310   3.097   0.996  0.0496 -0.3265 -0.3750
16228TIP3    H170099   1.282   3.186   0.975  1.7151  0.3919  0.2677
16228TIP3    H270100   1.361   3.070   0.920 -0.7324 -0.8717 -0.7120
16229TIP3   OH270101   6.179   6.317   5.359  0.4938 -0.2390 -0.0920
16229TIP3    H170102   6.261   6.344   5.318 -0.3769  0.6914 -1.2898
16229TIP3    H270103   6.134   6.266   5.292 -0.3377  0.1138  0.1863
16230TIP3   OH270104   4.258   5.117  16.832  0.1890 -0.0150  0.0237
16230TIP3    H170105   4.178   5.069  16.854 -0.0348  0.0381 -0.6373
16230TIP3    H270106   4.297   5.141  16.916 -0.6133  0.1659  0.3444
16231TIP3   OH270107   6.689   3.714  15.487 -0.2053 -0.4578 -0.2834
16231TIP3    H170108   6.703   3.676  15.400 -0.9481 -0.8275 -0.2533
16231TIP3    H270109   6.665   3.640  15.542 -0.6494 -0.0930  0.0176
16232TIP3   OH270110   5.205   5.367  16.540  0.1195 -0.3019  0.3862
16232TIP3    H170111   5.131   5.419  16.571 -0.0431 -1.1978  1.6252
16232TIP3    H270112   5.169   5.314  16.469 -0.0786  0.2475  0.0738
16233TIP3   OH270113   6.024   2.178   4.951  0.5520  0.2762 -0.3762
16233TIP3    H170114   5.928   2.179   4.956  0.5739  1.3126  0.0602
16233TIP3    H270115   6.044   2.208   4.863  0.4831  0.4792 -0.3233
16234TIP3   OH270116   0.166   5.893  15.736  0.2963 -0.2275 -0.5288
16234TIP3    H170117   0.105   5.886  15.663 -0.9432  3.0679  0.0540
16234TIP3    H270118   0.127   5.840  15.805  0.0519 -1.1215 -1.3331
16235TIP3   OH270119   3.610   6.324  15.331  0.1121 -0.1154  0.3407
16235TIP3    H170120   3.556   6.388  15.378  1.0664  0.8136  0.2061
16235TIP3    H270121   3.633   6.368  15.249 -0.2396 -1.1234 -0.3329
16236TIP3   OH270122   1.416   3.657   5.186 -0.3744  0.1460  0.7045
16236TIP3    H170123   1.366   3.717   5.241 -2.9445  0.9275 -2.2132
16236TIP3    H270124   1.469   3.713   5.130  0.8297 -0.5557  1.0910
16237TIP3   OH270125   5.619   0.145  14.754  0.1818  0.7300  0.2458
16237TIP3    H170126   5.587   0.236  14.752 -0.0163  0.6541 -0.4715
16237TIP3    H270127   5.578   0.104  14.678 -0.3855 -0.1961  1.0378
16238TIP3   OH270128   4.581   0.573   3.833  0.1605 -0.3080  0.0360
16238TIP3    H170129   4.608   0.495   3.785  4.1980 -0.2154  1.7523
16238TIP3    H270130   4.655   0.633   3.825 -0.4553  1.0982  3.2664
16239TIP3   OH270131   5.861   2.301   0.674 -0.0111 -0.1486  0.4654
16239TIP3    H170132   5.896   2.244   0.605 -0.2070 -1.3493  1.3483
16239TIP3    H270133   5.773   2.269   0.690  0.7929 -1.3756  2.8362
16240TIP3   OH270134   6.078   5.052   0.703 -0.1526 -0.0268 -0.4951
16240TIP3    H170135   6.100   4.991   0.632 -1.9106 -0.0359 -1.0817
16240TIP3    H270136   6.038   5.127   0.659 -0.1949  0.4891  0.4011
16241TIP3   OH270137   4.243   2.728  14.334 -0.2610 -0.0729  0.0848
16241TIP3    H170138   4.308   2.783  14.290  3.1610 -1.5454  2.8397
16241TIP3    H270139   4.183   2.790  14.375 -0.4170  1.3593 -2.1318
16242TIP3   OH270140   1.602   6.221  15.172 -0.3717  0.1649  0.3968
16242TIP3    H170141   1.589   6.197  15.080 -1.3919 -0.1270  0.6037
16242TIP3    H270142   1.605   6.316  15.172 -0.1789  0.1609  0.0404
16243TIP3   OH270143   3.766   4.256  13.579 -0.7281  0.1279  0.1912
16243TIP3    H170144   3.763   4.351  13.575  0.2522  0.1287 -1.5798
16243TIP3    H270145   3.689   4.231  13.631 -1.0457  1.8673  0.5965
16244TIP3   OH270146   6.147   6.483  14.307  0.7897  0.2896 -0.8194
16244TIP3    H170147   6.185   6.538  14.376  1.5844 -0.9956 -0.2029
16244TIP3    H270148   6.084   6.427  14.352 -0.5706  1.1673 -1.5650
16245TIP3   OH270149   0.437   1.662   1.752  0.3367 -0.1262 -0.0808
16245TIP3    H170150   0.344   1.685   1.747  0.8362  2.0971 -0.0777
16245TIP3    H270151   0.438   1.579   1.800 -1.5018  1.0238  2.1595
16246TIP3   OH270152   4.822   3.769  15.751  0.6395  0.0269 -0.0696
16246TIP3    H170153   4.765   3.814  15.814  0.4005 -2.1490  1.3865
16246TIP3    H270154   4.772   3.692  15.724  1.9004 -0.6067 -0.6857
16247TIP3   OH270155   6.269   1.126  16.028 -0.4535 -0.3017  0.1491
16247TIP3    H170156   6.307   1.115  15.941  0.3738  1.0302  0.3051
16247TIP3    H270157   6.202   1.059  16.034 -0.8770 -0.0980 -1.7098
16248TIP3   OH270158   1.404   2.074  16.347  0.3390 -0.1686 -0.0345
16248TIP3    H170159   1.471   2.086  16.280  1.0439  2.0885  0.9710
16248TIP3    H270160   1.322   2.097  16.304  0.5902 -0.2163 -0.5361
16249TIP3   OH270161   0.032   1.709  17.283 -0.2555 -0.1794 -0.1216
16249TIP3    H170162  -0.029   1.642  17.252  0.4376 -0.6149 -0.5777
16249TIP3    H270163   0.113   1.661  17.301  0.5307  0.6602 -1.3084
16250TIP3   OH270164   1.951   0.291   2.845  0.1436  0.1173 -0.4088
16250TIP3    H170165   2.026   0.248   2.804 -0.6313 -0.0430 -1.7363
16250TIP3    H270166   1.968   0.385   2.832  1.8109  0.3032  2.4484
16251TIP3   OH270167   5.052   0.267  16.893 -0.2591  0.2861 -0.3422
16251TIP3    H170168   4.982   0.260  16.957 -1.6916  3.5650 -1.3330
16251TIP3    H270169   5.133   0.252  16.943 -1.4917 -0.6042  1.4631
16252TIP3   OH270170   5.385   4.971   3.246  0.3740 -0.2695  0.0036
16252TIP3    H170171   5.411   4.900   3.186  0.0799  0.6278 -1.2194
16252TIP3    H270172   5.337   5.033   3.191  0.4712  0.8031  1.0823
16253TIP3   OH270173   5.725   2.664   0.895  0.1145 -0.2553 -0.4094
16253TIP3    H170174   5.674   2.653   0.976 -1.1507 -1.9034 -1.3565
16253TIP3    H270175   5.780   2.586   0.892  1.1141  0.4398 -0.5187
16254TIP3   OH270176   0.974   2.579   5.113 -0.0791 -0.2057 -0.2953
16254TIP3    H170177   1.047   2.545   5.164 -0.3581  0.9618  0.9214
16254TIP3    H270178   0.896   2.559   5.165 -0.3154  1.5173  0.0726
16255TIP3   OH270179   0.153   3.413   2.613 -0.0740  0.3308  0.1507
16255TIP3    H170180   0.235   3.380   2.651  1.0229  1.8171 -0.8120
16255TIP3    H270181   0.131   3.351   2.544 -0.5041 -0.8016  1.2806
16256TIP3   OH270182   5.916   0.462  13.597 -0.6773  0.2313 -0.0540
16256TIP3    H170183   5.870   0.532  13.550 -0.3259  0.1660 -0.5029
16256TIP3    H270184   5.856   0.387  13.593 -0.4222  0.0644 -0.8747
16257TIP3   OH270185   2.020   2.130   5.835  0.0450 -0.1311  0.1640
16257TIP3    H170186   1.930   2.151   5.860 -0.6668 -1.6196 -1.0309
16257TIP3    H270187   2.021   2.035   5.824  2.2857 -0.4397  2.0633
16258TIP3   OH270188   4.094   3.001   5.612 -0.5111  0.1778  0.4928
16258TIP3    H170189   4.081   3.039   5.525  0.4827 -1.2815 -0.3290
16258TIP3    H270190   4.018   2.943   5.624 -0.2039 -0.2922  0.2057
16259TIP3   OH270191   0.227   6.698  10.574  0.1224  0.5794  0.2034
16259TIP3    H170192   0.185   6.623  10.531 -0.0330  0.6452  0.2396
16259TIP3    H270193   0.268   6.747  10.502  0.3914  0.3555  0.2025
16260TIP3   OH270194   0.583   4.488  13.719  0.3205 -0.5084 -0.7083
16260TIP3    H170195   0.676   4.473  13.697  0.0909 -0.7687 -1.5626
16260TIP3    H270196   0.582   4.496  13.814  1.3208  0.1918 -0.7328
16261TIP3   OH270197   4.866   5.271   4.826  0.6858 -0.9595  0.5899
16261TIP3    H170198   4.869   5.333   4.900 -0.7397  0.9550 -0.8364
16261TIP3    H270199   4.952   5.278   4.785 -0.0811  1.9249 -0.8387
16262TIP3   OH270200   5.861   5.709   0.271 -0.3582  0.5191 -0.5078
16262TIP3    H170201   5.821   5.651   0.206  0.7131 -1.5680  0.5951
16262TIP3    H270202   5.952   5.680   0.276 -0.0018  1.7618  0.6912
16263TIP3   OH270203   1.254   6.206  12.793  0.1016  0.1542  0.2744
16263TIP3    H170204   1.211   6.184  12.875 -1.5404  3.2436  0.3786
16263TIP3    H270205   1.309   6.281  12.813  2.4444 -1.1695 -0.7878
16264TIP3   OH270206   3.432   5.591   3.524 -0.6246  0.5599  0.3323
16264TIP3    H170207   3.453   5.668   3.472 -1.7940  1.7824  1.6103
16264TIP3    H270208   3.347   5.610   3.563 -0.4107 -0.8951  1.5903
16265TIP3   OH270209   2.063   1.284   5.238  0.6747 -0.1889  0.8294
16265TIP3    H170210   2.050   1.309   5.147 -0.1575  0.3559  1.0810
16265TIP3    H270211   2.122   1.351   5.273  0.4827 -0.0263  0.8472
16266TIP3   OH270212   1.788   1.492   3.930 -0.3935  0.1881 -0.4308
16266TIP3    H170213   1.829   1.540   3.859  0.7004 -1.0314 -0.6591
16266TIP3    H270214   1.695   1.517   3.926  0.2695  3.1895  0.2615
16267TIP3   OH270215   2.013   5.471   4.360  0.1843  0.5410 -0.1055
16267TIP3    H170216   2.105   5.485   4.382  0.7124 -0.2868 -1.6322
16267TIP3    H270217   2.009   5.480   4.265 -0.8256 -1.9187 -0.3554
16268TIP3   OH270218   6.679   6.488  14.108  0.0378 -0.1273  0.1874
16268TIP3    H170219   6.694   6.394  14.103  0.3421 -0.0845  0.2691
16268TIP3    H270220   6.648   6.503  14.198 -0.9506 -0.2766 -0.1201
16269TIP3   OH270221   3.650   0.340   2.363  0.2288  0.3052  0.3404
16269TIP3    H170222   3.634   0.246   2.368 -0.5016  0.4856  1.6440
16269TIP3    H270223   3.622   0.364   2.274  1.9427 -0.9538 -0.6022
16270TIP3   OH270224   4.848   5.853  12.035  0.9746  0.1207  0.0256
16270TIP3    H170225   4.837   5.787  11.966  0.5264 -0.3838  0.5720
16270TIP3    H270226   4.866   5.934  11.987  1.8113 -0.4421 -0.6429
16271TIP3   OH270227   0.374   1.560  11.769 -0.1351 -0.6500  0.1475
16271TIP3    H170228   0.380   1.485  11.828 -1.1494  0.6283  1.9888
16271TIP3    H270229   0.295   1.607  11.797  0.8208  1.4596 -0.4559
16272TIP3   OH270230   6.434   4.893  11.757  0.2171  0.3023  0.6104
16272TIP3    H170231   6.529   4.898  11.744  0.1648 -0.4963 -0.2123
16272TIP3    H270232   6.423   4.901  11.851  1.0403  1.1892  0.6548
16273TIP3   OH270233   3.803   0.201  17.037 -0.2982  0.6517  0.0232
16273TIP3    H170234   3.754   0.154  17.105 -1.8051  0.2291 -1.3043
16273TIP3    H270235   3.820   0.135  16.970  2.2882  0.7442  0.4808
16274TIP3   OH270236   4.576   2.142  15.505 -0.2333  0.3508 -0.3393
16274TIP3    H170237   4.598   2.056  15.542  1.3806  0.1173 -1.7101
16274TIP3    H270238   4.549   2.195  15.580  0.7994 -0.7261  0.8288
16275TIP3   OH270239   6.073   3.323  16.321  0.0999 -0.2274 -0.2802
16275TIP3    H170240   6.118   3.345  16.239 -1.0806 -0.9324 -1.1348
16275TIP3    H270241   6.012   3.395  16.335 -0.4726 -0.6511 -0.6001
16276TIP3   OH270242   0.907   3.367   3.238  0.0915 -0.7727  0.4126
16276TIP3    H170243   0.904   3.322   3.322  0.6603  0.4584  1.1240
16276TIP3    H270244   0.826   3.342   3.194 -1.5610  0.6437  2.4542
16277TIP3   OH270245   4.889   6.160  11.416  0.2761  0.1566 -0.0121
16277TIP3    H170246   4.906   6.159  11.510 -0.3019 -1.2082  0.1028
16277TIP3    H270247   4.795   6.143  11.408  0.1399  1.1343 -0.8284
16278TIP3   OH270248   1.104   5.885   4.719 -0.0005 -0.1792 -0.1583
16278TIP3    H170249   1.010   5.896   4.702  0.0454  0.2060 -0.1764
16278TIP3    H270250   1.116   5.791   4.728 -0.7122 -0.1337  1.6241
16279TIP3   OH270251   3.039   3.487   0.913  0.2624 -0.3233 -0.4383
16279TIP3    H170252   3.003   3.432   0.983  0.0784 -0.1937 -0.4301
16279TIP3    H270253   3.128   3.456   0.902  0.2276 -0.4814 -0.2852
16280TIP3   OH270254   2.843   5.285   3.900 -0.1703 -0.0526  0.0491
16280TIP3    H170255   2.874   5.358   3.846  0.0293  1.1973  1.7522
16280TIP3    H270256   2.887   5.297   3.983 -1.9156 -0.7611  1.1390
16281TIP3   OH270257   2.368   1.518   1.591  0.2539 -0.7215 -0.6393
16281TIP3    H170258   2.367   1.501   1.497  1.9514  0.2913 -0.8852
16281TIP3    H270259   2.387   1.611   1.599  1.8636 -1.1133  0.6879
16282TIP3   OH270260   5.265   6.126   2.934  0.1537 -0.4466  0.1786
16282TIP3    H170261   5.225   6.210   2.911  0.2999 -0.4629 -0.1476
16282TIP3    H270262   5.274   6.129   3.029 -2.0946 -1.1158  0.4551
16283TIP3   OH270263   3.176   6.124   2.458  0.3344 -0.1690 -0.2521
16283TIP3    H170264   3.130   6.047   2.491  0.2719  0.2154  0.5917
16283TIP3    H270265   3.161   6.191   2.524  0.2779  0.6117 -1.0438
16284TIP3   OH270266   4.104   4.311  14.881  0.6871 -0.6779 -0.4680
16284TIP3    H170267   4.090   4.326  14.788 -2.5547 -0.1179  0.0118
16284TIP3    H270268   4.157   4.386  14.909 -0.5376  0.5954 -1.4032
16285TIP3   OH270269   4.455   1.508  11.558 -0.0178 -0.1702  0.0828
16285TIP3    H170270   4.525   1.556  11.514 -0.5882  0.6591  0.0555
16285TIP3    H270271   4.467   1.528  11.651 -0.4613  0.3252  0.0412
16286TIP3   OH270272   4.904   2.895   3.032  0.2616 -0.3217  0.0922
16286TIP3    H170273   4.854   2.965   3.073 -0.5899 -0.7092 -0.2555
16286TIP3    H270274   4.850   2.866   2.959  0.8218 -1.0160 -0.0642
16287TIP3   OH270275   0.511   1.351  14.917 -0.2447 -0.8984 -0.3992
16287TIP3    H170276   0.487   1.263  14.946 -2.8176  0.0791  0.7078
16287TIP3    H270277   0.429   1.390  14.888  0.5120  1.7258  0.7653
16288TIP3   OH270278   4.322   4.069   3.539  0.2620  0.1163 -0.2091
16288TIP3    H170279   4.368   4.067   3.623  1.0621  1.1059 -0.6133
16288TIP3    H270280   4.331   4.159   3.508 -2.2440  0.4651 -0.1574
16289TIP3   OH270281   3.517   0.799   1.516  0.3791  0.3953  0.3297
16289TIP3    H170282   3.506   0.890   1.488 -0.9420 -0.2551 -1.5072
16289TIP3    H270283   3.587   0.801   1.581  1.4825  2.5096 -0.8400
16290TIP3   OH270284   3.979   1.705   0.871  0.0674  0.3627 -0.0681
16290TIP3    H170285   3.905   1.743   0.919 -1.2304 -1.3419 -0.6299
16290TIP3    H270286   3.974   1.743   0.784  0.6153  1.1867  0.2536
16291TIP3   OH270287   2.280   1.069  15.281  0.1144  0.3457  0.0197
16291TIP3    H170288   2.287   1.104  15.193 -2.1950  0.2236 -0.2764
16291TIP3    H270289   2.267   0.975  15.269  0.5879  0.2133  0.5261
16292TIP3   OH270290   5.116   2.251  17.041 -0.3446  0.0844 -0.1953
16292TIP3    H170291   5.121   2.344  17.016  0.5071 -0.1615 -0.9965
16292TIP3    H270292   5.192   2.211  17.000 -0.6545 -0.9653  0.2194
16293TIP3   OH270293   6.519   1.037   0.323 -0.4725  0.9160  0.1571
16293TIP3    H170294   6.589   1.018   0.385 -0.2994  0.8536 -0.0549
16293TIP3    H270295   6.508   0.956   0.273 -1.6729  0.4495  1.1237
16294TIP3   OH270296   4.314   2.624  13.202 -0.3395  0.9656 -0.2375
16294TIP3    H170297   4.409   2.627  13.218 -0.3898  0.7640  0.1092
16294TIP3    H270298   4.299   2.691  13.136 -0.3091  2.8280  1.5402
16295TIP3   OH270299   3.975   6.746   1.639 -0.5125  0.2875  0.1122
16295TIP3    H170300   4.060   6.717   1.609 -0.1015  1.3192  0.2212
16295TIP3    H270301   3.979   6.842   1.633 -1.1644  0.4181  1.4276
16296TIP3   OH270302   2.427   2.987  13.176 -0.0633 -0.4226 -0.3579
16296TIP3    H170303   2.365   2.915  13.178  0.3587 -0.7847  0.7317
16296TIP3    H270304   2.373   3.066  13.174 -0.5657 -0.7426  0.1263
16297TIP3   OH270305   5.082   3.694  16.423  0.4014  0.0250 -0.5130
16297TIP3    H170306   5.093   3.716  16.330 -3.5012  0.4501 -1.0411
16297TIP3    H270307   5.076   3.598  16.424 -0.5187  0.0652 -0.8991
16298TIP3   OH270308   2.828   2.765  12.915  0.3791 -0.6473 -0.1886
16298TIP3    H170309   2.772   2.840  12.936  2.1868  0.8638 -0.5744
16298TIP3    H270310   2.829   2.714  12.996 -1.1514 -0.4772 -0.0235
16299TIP3   OH270311   4.652   0.669  13.538 -0.3853 -0.1529 -0.1078
16299TIP3    H170312   4.629   0.762  13.545  4.2172  1.1990  0.5821
16299TIP3    H270313   4.611   0.629  13.614 -1.5043  1.5279  0.2487
16300TIP3   OH270314   1.111   4.741  12.691  0.0671  0.2132 -0.6849
16300TIP3    H170315   1.162   4.761  12.768  0.6851  0.4901 -1.1600
16300TIP3    H270316   1.028   4.787  12.704  0.5512  1.0782 -0.6549
16301TIP3   OH270317   4.965   2.908   5.711  0.3894  0.6137  0.1241
16301TIP3    H170318   4.902   2.856   5.662  1.2149  0.3723 -0.6998
16301TIP3    H270319   5.039   2.848   5.726  0.2597  0.7483  1.4709
16302TIP3   OH270320   2.950   3.404   1.358 -0.4441 -0.6777  0.3438
16302TIP3    H170321   3.023   3.397   1.420  0.4210 -0.7468 -0.6346
16302TIP3    H270322   2.962   3.489   1.316 -0.4699 -1.0080 -0.3603
16303TIP3   OH270323   3.644   5.070   2.478  0.0108  0.6912  0.6864
16303TIP3    H170324   3.559   5.032   2.457  0.6496 -0.8155  0.7379
16303TIP3    H270325   3.657   5.050   2.571  1.7916 -1.9749 -0.0340
16304TIP3   OH270326   4.973   3.145  11.957 -0.3047 -0.1953  0.4981
16304TIP3    H170327   4.984   3.240  11.957  1.0034 -0.2641 -2.0127
16304TIP3    H270328   4.880   3.132  11.974 -0.6134  1.5410  0.3524
16305TIP3   OH270329   5.155   3.820   3.583  0.6166  0.1759  0.0538
16305TIP3    H170330   5.134   3.733   3.549 -0.7952 -0.4783  2.4236
16305TIP3    H270331   5.151   3.877   3.506  0.4523 -1.6404 -1.3540
16306TIP3   OH270332   5.011   6.669   1.801 -0.5675 -0.1131  0.2715
16306TIP3    H170333   5.095   6.671   1.846 -0.0871 -0.1103 -0.5958
16306TIP3    H270334   4.958   6.735   1.846  0.0962  0.3064  0.4537
16307TIP3   OH270335   4.420   0.277   2.978 -0.2830 -0.1338 -0.2324
16307TIP3    H170336   4.336   0.248   2.944 -0.8734  1.3547 -0.1358
16307TIP3    H270337   4.399   0.318   3.062  0.8980 -2.0434  1.0619
16308TIP3   OH270338   5.543   4.322   2.318  0.1706 -0.3551 -0.1071
16308TIP3    H170339   5.545   4.228   2.297  1.7525 -0.1844 -0.8486
16308TIP3    H270340   5.457   4.351   2.288 -0.6478 -1.7053  0.8121
16309TIP3   OH270341   4.240   0.629   3.983 -0.1283  0.2620 -0.3846
16309TIP3    H170342   4.214   0.553   4.036 -0.3352  0.7703  0.2469
16309TIP3    H270343   4.185   0.700   4.015  1.5885  1.2158  0.5542
16310TIP3   OH270344   5.837   5.308   2.017 -0.1712 -0.6528 -0.1513
16310TIP3    H170345   5.875   5.383   2.063 -0.8182 -0.7076  0.4852
16310TIP3    H270346   5.893   5.235   2.042 -0.2461 -0.5976  0.1826
16311TIP3   OH270347   1.806   3.595   2.248 -0.9174 -0.3636 -0.8560
16311TIP3    H170348   1.798   3.507   2.210 -0.7214 -0.1978 -1.2869
16311TIP3    H270349   1.716   3.623   2.264 -0.9539 -1.6962  1.7684
16312TIP3   OH270350   3.766   0.785   5.929 -0.5362  0.3156  0.0773
16312TIP3    H170351   3.847   0.812   5.886  0.3686  2.4397  2.8849
16312TIP3    H270352   3.789   0.707   5.979 -0.8524 -0.3913 -0.8359
16313TIP3   OH270353   1.424   2.726   3.158  0.7576  0.4270  0.1926
16313TIP3    H170354   1.367   2.797   3.129  0.1501  0.6159  1.7327
16313TIP3    H270355   1.367   2.669   3.210  1.0454 -1.6274 -1.5679
16314TIP3   OH270356   4.709   4.615   1.147 -0.2180 -0.0910 -0.2074
16314TIP3    H170357   4.730   4.603   1.054 -0.0545 -1.0442 -0.0579
16314TIP3    H270358   4.681   4.528   1.176 -1.3301  0.4453  0.3755
16315TIP3   OH270359   0.424   6.627  12.974 -0.1487 -0.5676  0.4353
16315TIP3    H170360   0.381   6.711  12.960  0.1309 -0.2630  1.3353
16315TIP3    H270361   0.473   6.638  13.055  0.0125 -1.5543  0.4897
16316TIP3   OH270362   3.409   1.764   5.014 -0.7238 -0.5068 -0.5020
16316TIP3    H170363   3.344   1.781   4.945 -2.5930  0.8311  1.4569
16316TIP3    H270364   3.378   1.684   5.057  0.0093 -0.9140 -0.7129
16317TIP3   OH270365   1.113   5.136  15.333 -0.1610 -0.2646  0.5964
16317TIP3    H170366   1.039   5.195  15.348 -0.7528 -1.0490  0.8564
16317TIP3    H270367   1.191   5.188  15.353 -0.7602 -0.3936  3.7105
16318TIP3   OH270368   3.260   3.424   6.119 -0.1640  0.2313 -0.6236
16318TIP3    H170369   3.207   3.503   6.106 -0.4564 -0.1222 -1.6899
16318TIP3    H270370   3.202   3.363   6.163 -0.1961  0.3313 -0.5273
16319TIP3   OH270371   5.091   6.733  11.367 -0.0555 -0.2700  0.2231
16319TIP3    H170372   5.078   6.693  11.281 -1.0009 -0.1352  0.2849
16319TIP3    H270373   5.031   6.808  11.367  0.0796 -0.1555  0.9253
16320TIP3   OH270374   0.543   6.334   0.724 -0.0723  0.0206  0.1629
16320TIP3    H170375   0.474   6.381   0.771  0.2245  0.4384  0.1834
16320TIP3    H270376   0.594   6.402   0.681  1.1867 -0.1625  1.2807
16321TIP3   OH270377   6.554   6.552  10.359  0.6490 -0.0441 -0.4065
16321TIP3    H170378   6.529   6.494  10.287  0.1495 -0.4914  0.1195
16321TIP3    H270379   6.483   6.545  10.421  0.7079  0.9432 -0.2103
16322TIP3   OH270380   5.930   3.914   3.536 -0.2481  0.8368  0.0579
16322TIP3    H170381   5.901   3.830   3.500 -0.7971  1.5480 -1.2138
16322TIP3    H270382   5.998   3.890   3.599 -2.1188 -0.7393  1.6019
16323TIP3   OH270383   1.554   4.678   1.691  0.3235 -0.0920 -0.1855
16323TIP3    H170384   1.465   4.714   1.692  1.2579  2.4000 -0.0301
16323TIP3    H270385   1.552   4.610   1.759 -0.7070  2.0419  2.1174
16324TIP3   OH270386   2.299   0.050  12.157 -0.1238  0.0569 -0.1099
16324TIP3    H170387   2.297  -0.028  12.211 -3.0524  0.5030  0.5703
16324TIP3    H270388   2.208   0.076  12.148  0.5555  2.0625 -2.3127
16325TIP3   OH270389   4.298   6.516   4.251  0.1237 -0.0922 -0.0326
16325TIP3    H170390   4.218   6.546   4.293 -0.3541 -0.9691 -0.2985
16325TIP3    H270391   4.338   6.596   4.217 -0.5340  0.3766  0.2693
16326TIP3   OH270392   0.694   3.494   1.233  0.2997 -0.2388 -0.1706
16326TIP3    H170393   0.737   3.557   1.290  1.3817 -0.9094 -0.2163
16326TIP3    H270394   0.766   3.450   1.188 -0.4402 -1.3373 -0.3074
16327TIP3   OH270395   6.652   4.826  16.973 -0.2741 -0.1802 -0.0877
16327TIP3    H170396   6.619   4.770  17.043 -0.2245  0.4390  0.4504
16327TIP3    H270397   6.576   4.878  16.947 -0.7038 -1.5171 -1.6310
16328TIP3   OH270398   1.609   1.025   6.176 -0.3456  0.0718  0.4986
16328TIP3    H170399   1.551   0.952   6.154  1.1515 -1.1699  0.4379
16328TIP3    H270400   1.668   0.989   6.242  1.5917  0.5979 -0.8424
16329TIP3   OH270401   3.894   5.088   3.441 -0.6898 -0.0008 -0.3898
16329TIP3    H170402   3.936   5.003   3.434 -0.5956 -0.2652  2.2817
16329TIP3    H270403   3.966   5.151   3.434 -0.5576 -0.2008 -0.8643
16330TIP3   OH270404   2.335   4.538  11.811  0.5966  0.5096  0.6130
16330TIP3    H170405   2.420   4.496  11.822  0.7693  0.5462 -0.4212
16330TIP3    H270406   2.351   4.606  11.745 -0.6292 -0.7330 -1.0476
16331TIP3   OH270407   1.882   1.111  17.090 -0.3811  0.0169 -0.1971
16331TIP3    H170408   1.808   1.050  17.083 -0.8335  0.4424  0.6750
16331TIP3    H270409   1.927   1.084  17.170  1.0911 -0.9430 -1.2947
16332TIP3   OH270410   1.818   3.653  17.096 -0.3758  0.5031 -0.5575
16332TIP3    H170411   1.903   3.697  17.105 -0.6418  1.0704 -0.7493
16332TIP3    H270412   1.779   3.657  17.184  0.5939 -1.4758  0.0259
16333TIP3   OH270413   1.841   1.855  17.146  0.0799  0.1164  0.8209
16333TIP3    H170414   1.748   1.876  17.138 -0.2303 -0.7350  1.8797
16333TIP3    H270415   1.848   1.765  17.116  0.8844  0.6956 -0.8611
16334TIP3   OH270416   2.063   3.571  11.275 -0.1094 -0.1081 -0.2697
16334TIP3    H170417   2.051   3.486  11.317  0.2798  0.1550  0.3775
16334TIP3    H270418   2.156   3.589  11.283 -0.2640  0.5962  0.0205
16335TIP3   OH270419   2.134   2.654   1.869  0.6485 -0.2194 -0.0337
16335TIP3    H170420   2.175   2.646   1.955 -1.0061 -1.2429  0.6959
16335TIP3    H270421   2.208   2.657   1.808  1.8386 -0.8456  1.3172
16336TIP3   OH270422   2.839   6.102   2.202 -0.0614 -1.1635  0.1735
16336TIP3    H170423   2.845   6.059   2.288 -1.3064  0.4594  1.1189
16336TIP3    H270424   2.805   6.189   2.221  0.7144 -0.3646 -1.8796
16337TIP3   OH270425   0.768   4.063  11.393 -0.3741  0.3733 -0.6569
16337TIP3    H170426   0.687   4.110  11.414  1.0270  2.4096  0.4514
16337TIP3    H270427   0.784   4.082  11.301 -1.0621  0.0791 -0.8423
16338TIP3   OH270428   5.848   6.773  12.214 -0.1963  0.1354 -0.2722
16338TIP3    H170429   5.886   6.755  12.300 -0.0203 -0.2491 -0.4291
16338TIP3    H270430   5.886   6.857  12.189 -0.2129  0.2280  0.0037
16339TIP3   OH270431   5.067   3.392   4.302 -0.3797 -0.3995 -0.7273
16339TIP3    H170432   5.157   3.360   4.308 -1.1368 -2.3576  1.3111
16339TIP3    H270433   5.022   3.328   4.247 -0.6767  0.2875 -1.3086
16340TIP3   OH270434   0.159   5.137  11.300 -0.3812 -0.8671 -0.1279
16340TIP3    H170435   0.235   5.114  11.354 -0.0573 -1.3830 -0.7822
16340TIP3    H270436   0.092   5.163  11.363 -0.9508 -4.0542  0.8001
16341TIP3   OH270437   2.413   2.505  12.292  0.1847 -0.1420 -0.1441
16341TIP3    H170438   2.367   2.429  12.327  2.9341 -1.1374  1.6140
16341TIP3    H270439   2.361   2.580  12.321 -0.7918 -1.2103  0.9796
16342TIP3   OH270440   1.395   2.745   4.677 -0.0042 -0.4020 -0.1096
16342TIP3    H170441   1.383   2.739   4.583 -0.9926 -2.6319  0.1075
16342TIP3    H270442   1.406   2.839   4.694  1.5026 -0.0538 -2.5480
16343TIP3   OH270443   0.938   5.391  12.473  0.0415  0.1125 -0.2393
16343TIP3    H170444   0.947   5.457  12.541  0.0070 -2.8683  2.9184
16343TIP3    H270445   0.852   5.352  12.489  0.9495 -2.1513 -0.5138
16344TIP3   OH270446   2.521   6.468   3.519  0.2044  0.2966  0.2392
16344TIP3    H170447   2.529   6.505   3.607  1.5204 -0.7725  0.6017
16344TIP3    H270448   2.563   6.382   3.525 -2.8301 -1.3587 -0.5551
16345TIP3   OH270449   0.117   3.923  10.574 -0.1013  0.3820  0.1947
16345TIP3    H170450   0.078   4.011  10.567  0.0151  0.5155  1.1833
16345TIP3    H270451   0.041   3.864  10.575 -0.2257  0.5482  0.6801
16346TIP3   OH270452   4.786   4.880   2.378  0.1935  0.3953 -0.3661
16346TIP3    H170453   4.815   4.934   2.304  0.0845  2.4414  1.0200
16346TIP3    H270454   4.763   4.942   2.446  1.4802 -1.4365  1.8861
16347TIP3   OH270455   4.138   6.694   3.547 -0.1890  0.3129 -0.5339
16347TIP3    H170456   4.225   6.681   3.509 -0.1956  0.1546 -0.4944
16347TIP3    H270457   4.085   6.625   3.508 -0.2910  0.3944 -0.5379
16348TIP3   OH270458   4.801   0.988   3.801  0.1864  0.0418 -0.9807
16348TIP3    H170459   4.709   1.014   3.806  0.3096  0.3118  2.1413
16348TIP3    H270460   4.849   1.063   3.837  1.5191 -0.5354 -1.4989
16349TIP3   OH270461   5.833   3.658   4.477  0.0420 -0.1662 -0.1900
16349TIP3    H170462   5.883   3.699   4.406  0.5017 -1.2872 -0.5296
16349TIP3    H270463   5.783   3.589   4.434  0.7543 -1.2293  0.6546
16350TIP3   OH270464   0.893   1.653  13.266  0.2131  0.6125 -0.0971
16350TIP3    H170465   0.844   1.728  13.233 -0.4889  0.5536  0.8086
16350TIP3    H270466   0.827   1.588  13.290  0.8017 -0.2677 -0.7341
16351TIP3   OH270467   6.456   1.119   1.749  0.0924 -0.2955  0.1533
16351TIP3    H170468   6.515   1.189   1.721 -1.7915  0.4245 -2.4480
16351TIP3    H270469   6.466   1.051   1.682 -0.9804 -0.7627  0.4421
16352TIP3   OH270470   3.897   3.278  13.104  0.6039 -0.1894  0.7624
16352TIP3    H170471   3.840   3.243  13.036 -2.2669  0.0070  2.8461
16352TIP3    H270472   3.985   3.275  13.067 -0.7146 -0.5793 -2.6782
16353TIP3   OH270473   3.554   1.830  12.829  0.4042 -0.0987 -0.4834
16353TIP3    H170474   3.545   1.899  12.763 -0.5873 -0.8625 -1.1764
16353TIP3    H270475   3.485   1.768  12.808 -0.5652  0.0925  1.8696
16354TIP3   OH270476   3.019   1.999   1.452  0.4642 -0.4889  0.8279
16354TIP3    H170477   3.030   2.059   1.378  0.3026 -2.7175 -1.1030
16354TIP3    H270478   2.925   2.002   1.470  0.5506  0.3153  1.2204
16355TIP3   OH270479   5.342   3.713   6.764  0.1927 -0.1953 -0.7541
16355TIP3    H170480   5.349   3.654   6.690  0.2075 -1.1910  0.0186
16355TIP3    H270481   5.374   3.662   6.839 -2.5381 -0.2877  0.4733
16356TIP3   OH270482   0.236   2.653   4.969  0.2320 -0.1917  0.3843
16356TIP3    H170483   0.235   2.730   5.027 -0.3123 -0.7497  1.1383
16356TIP3    H270484   0.285   2.682   4.892  1.7418  0.3195  1.4801
16357TIP3   OH270485   1.150   0.455   4.713 -0.1490  0.2811 -0.0113
16357TIP3    H170486   1.110   0.503   4.641  0.1081  0.3197 -0.1252
16357TIP3    H270487   1.243   0.455   4.695 -0.1103  0.0462  0.1732
16358TIP3   OH270488   6.575   2.750   0.030  0.6641 -0.4548 -0.3011
16358TIP3    H170489   6.640   2.772   0.097  0.3717  0.7555 -0.3853
16358TIP3    H270490   6.521   2.828   0.023 -1.8650 -1.9837  0.9568
16359TIP3   OH270491   6.616   1.630   0.760 -1.0659  0.3822 -0.1006
16359TIP3    H170492   6.527   1.638   0.793 -1.4715  1.1085 -1.2837
16359TIP3    H270493   6.661   1.709   0.790 -0.0226 -1.1211  2.6328
16360TIP3   OH270494   2.937   5.319  15.299 -0.2856  0.1799  0.0672
16360TIP3    H170495   2.901   5.369  15.373  1.4563  0.5497  0.7062
16360TIP3    H270496   3.028   5.346  15.294 -0.0043 -0.9243 -1.3391
16361TIP3   OH270497   3.798   0.950   1.284 -0.1758  0.5594  0.2897
16361TIP3    H170498   3.874   0.910   1.241  1.3324 -0.1986  3.4026
16361TIP3    H270499   3.833   1.029   1.325 -1.2768  0.6712  1.0467
16362TIP3   OH270500   6.472   2.633  11.050  0.2260  0.0690  0.0509
16362TIP3    H170501   6.443   2.722  11.034  2.6251  0.8338 -0.4138
16362TIP3    H270502   6.453   2.586  10.969  2.4210  1.1659 -1.1497
16363TIP3   OH270503   0.293   3.458  15.677  0.4170 -0.0364  0.7387
16363TIP3    H170504   0.247   3.499  15.750 -3.3241 -0.4731 -1.1302
16363TIP3    H270505   0.250   3.493  15.599  2.7317 -1.2601 -1.2034
16364TIP3   OH270506   2.222   3.370   0.676 -0.1124  0.4303 -0.1028
16364TIP3    H170507   2.300   3.332   0.717 -0.0540  1.7683  1.0996
16364TIP3    H270508   2.243   3.371   0.582  0.7880 -0.4049  0.0735
16365TIP3   OH270509   2.301   0.652   3.649  0.1790  0.1017  0.3543
16365TIP3    H170510   2.278   0.733   3.605  0.8574  0.0705 -0.0681
16365TIP3    H270511   2.233   0.641   3.716 -1.5374 -0.4473 -1.4054
16366TIP3   OH270512   2.693   3.213  16.312 -0.1889  0.1784 -0.2028
16366TIP3    H170513   2.674   3.303  16.340  1.0897 -0.2572  2.4258
16366TIP3    H270514   2.768   3.222  16.253  1.2290  0.7826  1.5820
16367TIP3   OH270515   0.320   5.864   4.730  0.4824 -0.4918 -0.3624
16367TIP3    H170516   0.274   5.781   4.740  0.7617 -0.7131 -0.9168
16367TIP3    H270517   0.299   5.912   4.811 -0.9816 -0.4558 -0.7226
16368TIP3   OH270518   6.175   2.544  11.809  0.5660  0.3408 -0.6792
16368TIP3    H170519   6.165   2.607  11.738 -1.9541  0.2901 -0.4724
16368TIP3    H270520   6.221   2.592  11.878 -0.4214  1.6744 -0.9113
16369TIP3   OH270521   0.919   1.946  10.915  0.2149  0.4717 -0.0683
16369TIP3    H170522   0.985   1.884  10.946 -0.5145  0.3826  1.3774
16369TIP3    H270523   0.836   1.902  10.929 -0.2270  1.1508 -0.5017
16370TIP3   OH270524   3.117   1.654  12.789  0.3753  0.1816 -0.2948
16370TIP3    H170525   3.032   1.653  12.743  0.0055  0.3219  0.3726
16370TIP3    H270526   3.162   1.731  12.755 -0.3419  0.9124  0.3472
16371TIP3   OH270527   3.028   5.526   4.766 -0.1279 -0.6632 -0.0564
16371TIP3    H170528   3.020   5.479   4.683 -0.5221 -1.0514  0.1937
16371TIP3    H270529   3.122   5.527   4.784 -0.1944 -2.8621  0.7704
16372TIP3   OH270530   4.848   3.018   0.076 -0.0701 -0.0428  0.5438
16372TIP3    H170531   4.815   3.069   0.001  0.0125  1.2134  1.3227
16372TIP3    H270532   4.865   2.931   0.040  0.2075  0.5903 -0.9554
16373TIP3   OH270533   6.307   0.523   6.274 -0.0182  0.2948 -0.1529
16373TIP3    H170534   6.393   0.550   6.242  0.4450 -0.0239  0.7717
16373TIP3    H270535   6.326   0.472   6.353 -0.9321 -1.6551 -1.1266
16374TIP3   OH270536   1.145   2.987  11.548 -0.4770  0.1813 -0.3507
16374TIP3    H170537   1.193   2.926  11.492  0.6082 -0.5905  1.3453
16374TIP3    H270538   1.056   2.952  11.549 -0.5413  0.2490 -1.6136
16375TIP3   OH270539   2.731   3.975   5.065  0.0773  0.3717 -0.3870
16375TIP3    H170540   2.811   3.933   5.095 -0.2449 -0.4751 -0.6617
16375TIP3    H270541   2.752   4.008   4.978  0.2819  0.6066 -0.2462
16376TIP3   OH270542   2.448   0.995  17.254  0.4312 -0.0452  0.3518
16376TIP3    H170543   2.415   1.055  17.321  0.5752 -0.5719  0.9055
16376TIP3    H270544   2.535   0.970  17.284  1.2758  1.1465 -0.9851
16377TIP3   OH270545   0.865   4.965  15.038 -0.1422  0.1469  0.2789
16377TIP3    H170546   0.804   4.956  15.111  0.8592 -0.4636  1.0647
16377TIP3    H270547   0.810   4.994  14.965 -1.5575 -1.2266  0.7206
16378TIP3   OH270548   0.626   5.656  13.736  0.3019 -0.0653 -0.1604
16378TIP3    H170549   0.694   5.589  13.722  0.5182  0.1614 -0.1929
16378TIP3    H270550   0.551   5.624  13.685  1.3491  1.1647 -2.6560
16379TIP3   OH270551   0.253   1.705  15.322  0.2479 -0.9599 -0.1616
16379TIP3    H170552   0.183   1.702  15.388  0.8376  0.1059  0.5401
16379TIP3    H270553   0.331   1.673  15.367  0.4176 -1.2610 -0.6638
16380TIP3   OH270554   6.653   5.104  11.118 -0.1541  0.2823 -0.2881
16380TIP3    H170555   6.616   5.049  11.187  0.6393 -1.8073 -1.4271
16380TIP3    H270556   6.656   5.192  11.156 -4.6237  0.3365  0.4934
16381TIP3   OH270557   1.094   1.072   3.109  0.6933  1.1926 -0.3776
16381TIP3    H170558   1.056   1.160   3.113 -0.8313  0.6101 -1.0065
16381TIP3    H270559   1.068   1.031   3.192  0.6284  1.0600 -0.4620
16382TIP3   OH270560   3.303   5.634  13.658  0.0835  0.3747  0.0932
16382TIP3    H170561   3.374   5.570  13.649  0.8410  0.9090  1.8253
16382TIP3    H270562   3.226   5.589  13.623  0.8537 -0.9850  0.0637
16383TIP3   OH270563   6.775   3.551  14.186 -0.3170  0.5393 -0.3213
16383TIP3    H170564   6.861   3.592  14.177 -0.2334  0.2240 -1.0764
16383TIP3    H270565   6.747   3.571  14.275  0.9595 -0.1688  0.2545
16384TIP3   OH270566   0.190   0.405  13.800 -0.1184  0.2398  0.2931
16384TIP3    H170567   0.279   0.375  13.783  0.5208  1.8495  0.5969
16384TIP3    H270568   0.190   0.432  13.891 -0.3167  2.1225 -0.2191
16385TIP3   OH270569   4.263   5.678   4.038  0.3327  0.6985  0.0165
16385TIP3    H170570   4.285   5.634   3.956  0.4790 -0.7434  0.7958
16385TIP3    H270571   4.184   5.729   4.018  0.0281 -0.0992 -0.8658
16386TIP3   OH270572   3.716   1.606   2.110  0.9840  0.4861  0.2062
16386TIP3    H170573   3.626   1.615   2.080  1.0810 -1.0803 -0.6600
16386TIP3    H270574   3.769   1.645   2.040  0.9975  1.4857  0.7549
16387TIP3   OH270575   5.561   2.119  13.845  0.1133  0.1197  0.4808
16387TIP3    H170576   5.543   2.050  13.909 -0.5075 -0.8079 -0.6701
16387TIP3    H270577   5.625   2.080  13.785 -0.5996  0.3544 -0.4563
16388TIP3   OH270578   1.911   1.704  12.200 -0.1121 -0.5398 -0.1415
16388TIP3    H170579   1.827   1.660  12.189  0.3677 -1.4167 -0.4891
16388TIP3    H270580   1.958   1.650  12.264 -0.2465  0.6023  0.9493
16389TIP3   OH270581   3.004   6.187   1.042  0.1298  0.0054  0.4799
16389TIP3    H170582   3.000   6.255   1.109 -2.2346 -0.7735  1.2154
16389TIP3    H270583   2.943   6.120   1.072  0.7188 -1.4174 -1.3430
16390TIP3   OH270584   0.700   0.752   2.768  0.2040 -0.3501  0.1232
16390TIP3    H170585   0.627   0.725   2.711 -1.0581  0.0334  1.4887
16390TIP3    H270586   0.735   0.669   2.802  0.4176 -0.5416 -0.5513
16391TIP3   OH270587   6.283   1.225  13.374  0.1297  0.5454  0.0456
16391TIP3    H170588   6.293   1.285  13.448  1.8168  0.6058 -0.1982
16391TIP3    H270589   6.298   1.280  13.297  4.1442 -0.4972 -0.1327
16392TIP3   OH270590   2.008   0.395   0.192 -0.0010 -0.2661  0.1536
16392TIP3    H170591   2.048   0.386   0.106  0.2584 -0.1218  0.2602
16392TIP3    H270592   1.996   0.489   0.204  0.4708 -0.2488  0.5073
16393TIP3   OH270593   0.180   2.969  11.666 -0.1496  0.2213 -0.1570
16393TIP3    H170594   0.214   2.998  11.582  1.5673  1.5295  0.9348
16393TIP3    H270595   0.105   3.026  11.684  1.0176  1.6539  0.3189
16394TIP3   OH270596   0.472   3.849   2.190 -0.4336 -0.0225  0.1605
16394TIP3    H170597   0.518   3.877   2.269  0.5085  1.3525 -0.8267
16394TIP3    H270598   0.417   3.924   2.166 -0.9441 -0.5418 -0.3148
16395TIP3   OH270599   2.603   2.292  12.312 -0.9656 -0.7121 -0.5210
16395TIP3    H170600   2.681   2.313  12.364 -2.2701 -1.1062  1.7395
16395TIP3    H270601   2.547   2.369  12.320 -1.5442 -1.1140 -0.6697
16396TIP3   OH270602   0.509   4.094  16.397  0.1593  0.5290 -0.6944
16396TIP3    H170603   0.505   4.173  16.450 -2.3942 -0.3688  0.5841
16396TIP3    H270604   0.470   4.026  16.452 -0.2738 -1.0081 -2.7932
16397TIP3   OH270605   5.148   2.301   0.009 -0.4899 -0.1401  1.0610
16397TIP3    H170606   5.073   2.360   0.006 -0.8880 -0.6611  0.4832
16397TIP3    H270607   5.170   2.285  -0.083  0.7118  0.4742  1.2273
16398TIP3   OH270608   1.880   4.557   5.319  0.8335 -0.0690 -0.4467
16398TIP3    H170609   1.964   4.517   5.298  0.4078 -0.1564 -2.2169
16398TIP3    H270610   1.861   4.613   5.244 -0.3420  0.5227  0.2588
16399TIP3   OH270611   3.119   0.201  16.935  0.7949  0.0802 -0.2207
16399TIP3    H170612   3.125   0.256  17.014  0.1951 -0.2815  0.0928
16399TIP3    H270613   3.115   0.112  16.969  0.2472 -0.0634 -0.6400
16400TIP3   OH270614   0.355   4.483  16.705 -0.4630 -0.1558 -0.5965
16400TIP3    H170615   0.394   4.537  16.637  0.3397  1.5497  1.1157
16400TIP3    H270616   0.428   4.459  16.762 -1.1146 -1.4682 -0.2778
16401TIP3   OH270617   3.071   2.084   2.327 -0.1121 -0.4332 -0.3198
16401TIP3    H170618   3.125   2.021   2.375 -0.5345 -0.4667  0.1192
16401TIP3    H270619   3.110   2.088   2.240  0.1763 -0.9759 -0.2171
16402TIP3   OH270620   4.866   0.288  17.106 -0.2734  0.7495 -0.2486
16402TIP3    H170621   4.781   0.327  17.129  0.5768  2.7106 -0.2171
16402TIP3    H270622   4.852   0.194  17.115 -2.9112  0.8757 -1.8002
16403TIP3   OH270623   1.029   5.776   3.187 -0.2768  0.2942 -0.0931
16403TIP3    H170624   0.943   5.735   3.191 -0.1087 -0.1725 -1.0980
16403TIP3    H270625   1.062   5.772   3.277  0.1235 -2.6421 -0.2941
16404TIP3   OH270626   0.702   3.274   0.817  0.0567 -0.3944 -0.3021
16404TIP3    H170627   0.617   3.233   0.836  0.1333 -1.1005 -1.4246
16404TIP3    H270628   0.755   3.255   0.894 -0.0751 -1.9902 -0.5800
16405TIP3   OH270629   3.732   0.510  11.306  0.6501 -0.1151  0.0738
16405TIP3    H170630   3.827   0.508  11.302  0.7024  0.2102  0.9554
16405TIP3    H270631   3.703   0.478  11.220  1.5516  0.2254 -0.3656
16406TIP3   OH270632   1.584   4.638  14.018  0.0158  0.3850  0.2838
16406TIP3    H170633   1.583   4.543  14.017  0.6876  0.3766  0.1287
16406TIP3    H270634   1.492   4.663  14.009 -0.0428 -0.2350 -1.1103
16407TIP3   OH270635   3.422   2.514  15.440  0.5978  0.5573 -0.2590
16407TIP3    H170636   3.416   2.605  15.409 -0.3661  0.4495 -0.4120
16407TIP3    H270637   3.511   2.487  15.417  0.7910  1.3646 -0.4878
16408TIP3   OH270638   5.151   6.074  13.574 -0.8019 -0.0296 -0.0905
16408TIP3    H170639   5.146   5.986  13.611  0.2716  0.1646  0.5561
16408TIP3    H270640   5.117   6.064  13.485 -1.8744 -0.8313  0.3730
16409TIP3   OH270641   6.515   4.051  13.664 -0.3386 -0.1254 -0.0950
16409TIP3    H170642   6.500   4.111  13.591  0.1457  2.3605  1.7298
16409TIP3    H270643   6.460   4.084  13.734 -0.3620 -2.1015  0.8834
16410TIP3   OH270644   4.312   0.435  16.078  0.0756  0.1189 -0.2536
16410TIP3    H170645   4.238   0.376  16.094  0.1882 -0.3399 -1.3274
16410TIP3    H270646   4.276   0.523  16.091 -0.3234 -0.1389  0.4805
16411TIP3   OH270647   0.381   3.281   3.764  0.1891  0.4447 -0.1749
16411TIP3    H170648   0.390   3.347   3.833  0.7981 -0.1738  0.3448
16411TIP3    H270649   0.402   3.328   3.683  0.5954  0.8958  0.1864
16412TIP3   OH270650   0.636   4.876   5.600 -0.8367  0.0839  0.5342
16412TIP3    H170651   0.674   4.957   5.633 -0.1890  1.1130 -2.4536
16412TIP3    H270652   0.557   4.864   5.652 -1.1107  2.8009  0.8911
16413TIP3   OH270653   2.498   0.373   0.127 -0.4944 -0.0428  0.1437
16413TIP3    H170654   2.540   0.296   0.165  0.3798 -0.0675 -0.8514
16413TIP3    H270655   2.543   0.448   0.166 -1.7030  0.0110  1.5267
16414TIP3   OH270656   2.732   2.403  12.833 -0.0332 -0.2581 -0.0126
16414TIP3    H170657   2.718   2.432  12.923 -1.2833 -0.4534 -0.1277
16414TIP3    H270658   2.762   2.481  12.787  0.8176 -0.2083  0.6130
16415TIP3   OH270659   5.108   5.652  11.749 -0.0073 -0.2077  0.1592
16415TIP3    H170660   5.086   5.744  11.761 -0.4096 -0.3374  0.4439
16415TIP3    H270661   5.094   5.636  11.655  2.1590  0.5502 -0.3423
16416TIP3   OH270662   3.606   5.951   2.833 -0.1601 -0.6724 -0.4941
16416TIP3    H170663   3.579   5.994   2.751 -1.4062 -0.6372 -0.0743
16416TIP3    H270664   3.587   6.015   2.901 -0.0931 -1.1034 -0.0679
16417TIP3   OH270665   0.420   5.090  10.349  0.9470  0.1268  0.7718
16417TIP3    H170666   0.375   5.173  10.339  1.9985  0.7719  1.2074
16417TIP3    H270667   0.487   5.106  10.416  0.4041 -1.3876  1.7400
16418TIP3   OH270668   0.259   3.108  15.118  0.2914  0.2843 -0.2432
16418TIP3    H170669   0.319   3.070  15.053  0.7777  0.3413  0.1636
16418TIP3    H270670   0.229   3.034  15.169  1.7508  0.4724  0.9743
16419TIP3   OH270671   4.283   4.840   4.139 -0.2489 -0.5012 -0.0190
16419TIP3    H170672   4.313   4.851   4.049  0.1925 -0.3984  0.1408
16419TIP3    H270673   4.325   4.912   4.187 -3.5363  1.9600 -0.4563
16420TIP3   OH270674   2.618   5.074   2.184 -0.7231 -0.5638 -0.2194
16420TIP3    H170675   2.587   4.984   2.180 -1.5873 -0.2621 -0.5977
16420TIP3    H270676   2.561   5.121   2.123 -0.7596  0.3718  0.5227
16421TIP3   OH270677   5.607   6.049  11.776  0.6743  0.0797 -0.2047
16421TIP3    H170678   5.637   5.958  11.787  1.5686  0.3473 -0.3204
16421TIP3    H270679   5.679   6.102  11.811 -0.5390  0.7293  1.4192
16422TIP3   OH270680   0.189   0.487   5.328  0.2198 -0.0015  0.0162
16422TIP3    H170681   0.175   0.578   5.303  0.7568 -0.3466 -1.5937
16422TIP3    H270682   0.209   0.491   5.422 -0.5129  1.4439  0.1394
16423TIP3   OH270683   5.422   0.677  16.643  0.2693 -0.5939 -0.5030
16423TIP3    H170684   5.432   0.602  16.701  0.9201  1.6773  2.6291
16423TIP3    H270685   5.505   0.684  16.597  1.5578  0.0619  1.7542
16424TIP3   OH270686   4.237   1.943  11.111  0.1211 -0.2841  0.0184
16424TIP3    H170687   4.214   1.851  11.100 -2.8118  0.3096  0.5529
16424TIP3    H270688   4.247   1.976  11.021 -0.8153 -0.6835 -0.2455
16425TIP3   OH270689   6.319   0.063  16.975 -0.1825  0.0721  0.6132
16425TIP3    H170690   6.362   0.138  16.934  0.8431 -1.0104 -0.3660
16425TIP3    H270691   6.232   0.061  16.936 -0.4857  1.1414  1.1746
16426TIP3   OH270692   4.241   4.673  10.956  0.4018 -0.0826 -0.3177
16426TIP3    H170693   4.324   4.721  10.958  1.9812 -2.2583 -3.7457
16426TIP3    H270694   4.185   4.724  10.897  0.3231  0.0095 -0.1611
16427TIP3   OH270695   2.073   5.482   2.444  0.5189  0.2505  0.3215
16427TIP3    H170696   2.061   5.450   2.355 -0.6402  2.3744 -0.3613
16427TIP3    H270697   2.141   5.549   2.437  0.9325 -0.0662  1.1752
16428TIP3   OH270698   1.806   0.411  16.004  0.1678 -0.6362 -0.5148
16428TIP3    H170699   1.892   0.409  16.046  0.2842  0.4312 -0.6651
16428TIP3    H270700   1.747   0.444  16.072  0.3764  1.2118 -1.1782
16429TIP3   OH270701   2.583   2.976  15.970  0.7669  0.0830 -0.3267
16429TIP3    H170702   2.650   2.973  15.901 -0.1165  0.2522 -1.2195
16429TIP3    H270703   2.524   2.904  15.949 -1.0388  1.7652 -1.3889
16430TIP3   OH270704   0.036   0.619  14.859  0.4874  0.2359 -0.7880
16430TIP3    H170705  -0.004   0.665  14.786  0.6725  0.5660 -0.6807
16430TIP3    H270706   0.039   0.527  14.831  0.0760  0.2803 -0.9784
16431TIP3   OH270707   2.819   1.323  15.931  0.8389 -0.0249  0.1453
16431TIP3    H170708   2.755   1.339  15.861  0.1493 -1.2978  0.4519
16431TIP3    H270709   2.795   1.237  15.965  2.6969 -0.5092  0.3140
16432TIP3   OH270710   6.164   1.866   1.512  0.3311  0.4265  0.0254
16432TIP3    H170711   6.112   1.945   1.522  1.9161  1.5260  0.0004
16432TIP3    H270712   6.172   1.854   1.417 -0.3777 -0.1091  0.0251
16433TIP3   OH270713   5.877   3.517   5.388 -0.7237  0.0582  0.0453
16433TIP3    H170714   5.823   3.576   5.441  1.5587  1.2336  1.2173
16433TIP3    H270715   5.923   3.574   5.327  0.2576 -0.6861  0.0575
16434TIP3   OH270716   0.969   5.078  10.801 -0.4534 -0.6479  0.0797
16434TIP3    H170717   1.002   5.032  10.723 -1.0988  0.2779 -0.7521
16434TIP3    H270718   0.901   5.136  10.768  0.9003  1.5499  0.9661
16435TIP3   OH270719   1.881   2.446   3.104  0.0576 -0.2043 -0.5998
16435TIP3    H170720   1.899   2.421   3.194  0.6920 -0.7681 -0.8757
16435TIP3    H270721   1.890   2.365   3.054 -1.9415 -0.2514 -0.9540
16436TIP3   OH270722   4.091   2.911   0.723  0.0966 -0.0455  0.7343
16436TIP3    H170723   4.118   2.951   0.640 -0.9848  0.0338  0.3995
16436TIP3    H270724   4.061   2.985   0.776  1.3402 -0.0192  1.4458
16437TIP3   OH270725   6.722   0.677   6.405  0.1821  0.1979 -0.7671
16437TIP3    H170726   6.812   0.698   6.380  0.3821  0.6024  0.2200
16437TIP3    H270727   6.729   0.596   6.455 -0.0113  0.2107 -0.7174
16438TIP3   OH270728   4.427   2.121  14.089  0.3073 -0.1011 -0.7158
16438TIP3    H170729   4.416   2.026  14.084 -0.1903 -0.1033  0.2055
16438TIP3    H270730   4.337   2.154  14.097  0.3764  0.5463 -2.2700
16439TIP3   OH270731   1.239   0.537   5.921 -0.3140 -0.1643 -0.3076
16439TIP3    H170732   1.247   0.461   5.864 -0.1700 -0.4217  0.0468
16439TIP3    H270733   1.240   0.500   6.010  0.6602  0.3296 -0.1086
16440TIP3   OH270734   0.634   0.667  12.758 -0.1427 -0.2884  0.2970
16440TIP3    H170735   0.697   0.735  12.782 -0.2909 -0.0220 -0.0525
16440TIP3    H270736   0.566   0.672  12.825 -0.6325  0.5507 -0.2475
16441TIP3   OH270737   1.715   0.937  14.722  0.4715  0.2851 -0.0205
16441TIP3    H170738   1.662   0.891  14.787 -0.8612  0.4220 -0.9660
16441TIP3    H270739   1.678   1.025  14.719  2.1956  1.0788  0.8769
16442TIP3   OH270740   2.919   6.419   0.376 -0.3503  0.1776 -0.0756
16442TIP3    H170741   2.927   6.335   0.421 -0.2999  0.5897  0.7121
16442TIP3    H270742   3.009   6.444   0.356 -0.4640 -1.1494 -2.6560
16443TIP3   OH270743   4.576   3.325   5.705 -0.0393 -0.5609  0.5888
16443TIP3    H170744   4.501   3.299   5.653  0.5198 -3.9095  1.2328
16443TIP3    H270745   4.632   3.247   5.709  1.7687  0.6859  3.0271
16444TIP3   OH270746   0.519   1.383  15.414 -0.4288 -0.3559 -0.1981
16444TIP3    H170747   0.497   1.306  15.360  0.6072  0.0379 -1.2193
16444TIP3    H270748   0.569   1.440  15.356  3.7094 -1.3591  1.9720
16445TIP3   OH270749   0.556   6.110   3.121  0.0752  0.2325 -0.4731
16445TIP3    H170750   0.518   6.194   3.094  1.1272  0.8499 -0.0915
16445TIP3    H270751   0.649   6.129   3.135  0.3326 -1.0023 -0.3824
16446TIP3   OH270752   3.919   4.210  14.593 -0.1162  0.0148 -0.1497
16446TIP3    H170753   3.836   4.224  14.548 -0.8399 -0.0902  1.1061
16446TIP3    H270754   3.907   4.129  14.641  0.9608 -0.3526 -0.4519
16447TIP3   OH270755   5.626   5.364   1.666  0.5257 -0.3305 -0.0708
16447TIP3    H170756   5.662   5.276   1.650 -1.7374 -1.2789 -0.3100
16447TIP3    H270757   5.532   5.354   1.654  0.1762  2.1113  0.1305
16448TIP3   OH270758   1.256   2.851  14.906 -0.1655 -0.1166  0.3280
16448TIP3    H170759   1.169   2.818  14.929 -0.1896  0.2909  0.8515
16448TIP3    H270760   1.316   2.789  14.947 -0.2001  1.0477  2.2560
16449TIP3   OH270761   3.239   4.281   1.752 -0.1806 -0.4694  0.2178
16449TIP3    H170762   3.211   4.196   1.717 -2.7570  0.5442 -0.3510
16449TIP3    H270763   3.194   4.288   1.836 -2.3040  1.4606 -0.9878
16450TIP3   OH270764   6.738   6.207   5.840  0.5983  0.8232 -0.0510
16450TIP3    H170765   6.747   6.261   5.761  1.0895 -0.2375 -0.7426
16450TIP3    H270766   6.751   6.117   5.810 -0.6959  0.2548  0.9963
16451TIP3   OH270767   1.497   4.984  13.425  0.0203  0.4570  0.2702
16451TIP3    H170768   1.462   5.044  13.360 -0.2256 -1.7574 -1.8153
16451TIP3    H270769   1.420   4.953  13.473 -0.1121  0.3036 -0.0365
16452TIP3   OH270770   2.147   4.212  15.593 -0.4826  0.4244 -0.0070
16452TIP3    H170771   2.095   4.178  15.520 -0.3755  0.0032  0.1119
16452TIP3    H270772   2.171   4.134  15.643 -0.7539  0.7318  0.6082
16453TIP3   OH270773   0.865   4.126  11.787  0.3235 -0.0987 -0.6902
16453TIP3    H170774   0.878   4.198  11.725 -0.4497  1.7399  1.1617
16453TIP3    H270775   0.771   4.125  11.802  0.6096  0.5137  1.5115
16454TIP3   OH270776   3.434   6.398  14.839  0.1972  0.2525  0.5123
16454TIP3    H170777   3.402   6.359  14.758  1.1703 -1.2859  0.8328
16454TIP3    H270778   3.441   6.492  14.819 -1.3156  0.1784 -0.5764
16455TIP3   OH270779   0.838   0.303   4.465  0.1001  0.1012 -0.5513
16455TIP3    H170780   0.769   0.308   4.399  0.6204  1.3728 -1.0331
16455TIP3    H270781   0.836   0.387   4.509  0.2715 -0.4518  0.5565
16456TIP3   OH270782   2.621   1.580   4.179  0.3542 -0.7907 -0.2258
16456TIP3    H170783   2.661   1.532   4.106 -0.5561 -1.3602 -0.3610
16456TIP3    H270784   2.696   1.620   4.224  1.1737 -2.4241 -0.0452
16457TIP3   OH270785   1.289   0.625   3.726 -0.1999 -0.0522 -0.7488
16457TIP3    H170786   1.361   0.562   3.738  0.2266  0.3286 -1.2428
16457TIP3    H270787   1.213   0.570   3.707 -0.1057 -0.4777  0.0336
16458TIP3   OH270788   5.302   2.171  15.415 -0.3298  0.0071 -0.3065
16458TIP3    H170789   5.303   2.225  15.494 -1.5780  1.1207 -1.0142
16458TIP3    H270790   5.386   2.189  15.373  0.5532 -0.9485  0.9580
16459TIP3   OH270791   2.831   6.726  15.751 -0.1138 -0.1759 -0.1604
16459TIP3    H170792   2.772   6.800  15.767 -1.0259 -0.7069 -0.9957
16459TIP3    H270793   2.914   6.753  15.791 -0.9761  0.4780  1.2769
16460TIP3   OH270794   5.957   4.010  12.772 -0.1399 -0.0560 -0.4745
16460TIP3    H170795   5.864   4.013  12.747 -0.3399 -0.3778  0.1973
16460TIP3    H270796   5.974   4.096  12.811 -0.3635 -0.2640  0.0918
16461TIP3   OH270797   5.267   6.307  13.683 -0.1689 -0.0634 -0.2452
16461TIP3    H170798   5.219   6.379  13.641 -1.4028 -1.0548 -0.6209
16461TIP3    H270799   5.230   6.228  13.643  1.7382 -0.8929 -0.4504
16462TIP3   OH270800   1.373   1.143   4.207  0.5492  0.2318 -0.2390
16462TIP3    H170801   1.371   1.226   4.158  0.2399 -0.1599 -0.9070
16462TIP3    H270802   1.454   1.146   4.258  0.3253  1.1371  0.0852
16463TIP3   OH270803   5.040   4.386  14.841 -0.0417  0.0894 -0.2168
16463TIP3    H170804   4.958   4.338  14.847 -0.2997  0.5643  4.5974
16463TIP3    H270805   5.040   4.424  14.754 -3.5080 -2.2235 -1.4379
16464TIP3   OH270806   5.611   6.565   6.003 -0.8304  0.0390 -0.0007
16464TIP3    H170807   5.570   6.628   6.063 -0.3353  0.0055  0.3897
16464TIP3    H270808   5.705   6.578   6.017 -0.7111 -0.0889 -0.6574
16465TIP3   OH270809   2.854   3.963  12.449  0.1400 -0.4322  0.1564
16465TIP3    H170810   2.868   3.946  12.355  1.3016  1.7190 -0.1311
16465TIP3    H270811   2.774   3.915  12.470  0.6350 -2.1736 -1.5640
16466TIP3   OH270812   5.777   4.565   1.190  0.1152  0.4476  0.3037
16466TIP3    H170813   5.821   4.479   1.190  0.2799  0.5190 -1.0243
16466TIP3    H270814   5.688   4.545   1.220  0.3448 -0.0845  0.6569
16467TIP3   OH270815   1.290   5.936  15.854  1.1167 -0.0795 -0.2328
16467TIP3    H170816   1.350   5.964  15.785  0.0335 -1.0293 -1.6417
16467TIP3    H270817   1.224   6.006  15.857  1.0895 -0.1033 -0.2703
16468TIP3   OH270818   2.727   3.607   0.907 -0.0992 -0.5671 -0.2402
16468TIP3    H170819   2.662   3.561   0.854 -1.6601 -1.1534  2.0525
16468TIP3    H270820   2.786   3.538   0.939  0.7751 -0.2301 -1.0658
16469TIP3   OH270821   0.359   6.025   3.669  0.0064 -0.7087 -0.0212
16469TIP3    H170822   0.390   6.014   3.759  0.7904 -0.1068 -0.1978
16469TIP3    H270823   0.366   6.120   3.654 -1.3563 -0.6405 -0.2876
16470TIP3   OH270824   4.110   5.773  10.747  0.1112 -0.0926  0.0218
16470TIP3    H170825   4.136   5.807  10.662  0.1263 -0.3442 -0.0732
16470TIP3    H270826   4.015   5.790  10.752  0.1537  0.1437  0.0593
16471TIP3   OH270827   4.471   1.675  15.225 -0.1432 -0.6598 -0.1348
16471TIP3    H170828   4.401   1.622  15.264 -0.4673  0.1359  0.3808
16471TIP3    H270829   4.539   1.678  15.293 -0.7127  0.7388  0.4049
16472TIP3   OH270830   1.953   4.466   2.211  0.2076  0.1296 -0.1080
16472TIP3    H170831   1.943   4.443   2.119 -1.1681  0.5946 -0.0892
16472TIP3    H270832   1.984   4.557   2.210 -0.9455  0.5434 -0.1269
16473TIP3   OH270833   2.192   1.090  15.529  0.2348 -0.0221 -0.3996
16473TIP3    H170834   2.226   1.173  15.562  1.2820 -0.7865  0.4891
16473TIP3    H270835   2.223   1.086  15.439  0.0568  0.6113 -0.4960
16474TIP3   OH270836   6.779   1.850  15.409 -0.0434  0.3461 -0.3308
16474TIP3    H170837   6.686   1.842  15.428 -0.1438 -0.6898 -1.1527
16474TIP3    H270838   6.782   1.893  15.323  0.3005  1.9078  0.4292
16475TIP3   OH270839   0.038   1.155   4.299  0.4642  0.4386 -0.0643
16475TIP3    H170840   0.086   1.188   4.375 -0.6003  0.8005  0.4705
16475TIP3    H270841  -0.000   1.072   4.329 -0.4292  0.8644 -0.0167
16476TIP3   OH270842   4.272   5.595   0.590  0.2258  0.1019  0.6468
16476TIP3    H170843   4.217   5.640   0.526  0.8453  2.0561  1.4174
16476TIP3    H270844   4.216   5.584   0.667  0.0107 -0.6674  0.3875
16477TIP3   OH270845   4.665   2.897  16.128  0.1494  0.1260  0.4748
16477TIP3    H170846   4.691   2.947  16.205 -1.3256  1.7440 -0.0182
16477TIP3    H270847   4.572   2.880  16.139  0.2286 -0.9526 -0.2557
16478TIP3   OH270848   3.421   1.215   2.432  0.1831  0.0316 -0.1918
16478TIP3    H170849   3.501   1.163   2.435 -0.2461 -0.6080  1.3276
16478TIP3    H270850   3.441   1.294   2.482  0.6529  1.1312 -2.0191
16479TIP3   OH270851   0.649   6.430  16.509 -0.2657  0.2942 -0.2845
16479TIP3    H170852   0.599   6.359  16.550  0.0992  0.6798  0.8932
16479TIP3    H270853   0.601   6.509  16.534  1.1125  0.7113  1.2141
16480TIP3   OH270854   4.909   0.792   3.304 -0.6933  0.3648 -0.3947
16480TIP3    H170855   4.893   0.724   3.370 -0.7943  2.0246  1.4081
16480TIP3    H270856   4.833   0.851   3.312 -0.4611  0.8714 -1.6786
16481TIP3   OH270857   1.544   6.263   4.497  0.0195  0.1059 -0.0877
16481TIP3    H170858   1.627   6.244   4.542 -0.3440 -0.3022  0.4241
16481TIP3    H270859   1.549   6.211   4.417 -0.1559 -0.6895  0.4092
16482TIP3   OH270860   3.101   1.337   6.110  0.2407 -0.3502  0.4741
16482TIP3    H170861   3.129   1.425   6.084  1.7535 -0.2905  2.1582
16482TIP3    H270862   3.171   1.305   6.166 -0.7222 -2.2890  0.6390
16483TIP3   OH270863   4.956   3.811  15.225 -0.4192  0.2781  0.3526
16483TIP3    H170864   4.997   3.896  15.243 -0.6043  0.8030 -1.5440
16483TIP3    H270865   4.920   3.784  15.309  0.4409  1.6387  1.2007
16484TIP3   OH270866   5.940   3.756  11.717  0.6390  0.1458  0.3328
16484TIP3    H170867   5.846   3.770  11.730  0.4804 -1.3785  1.1177
16484TIP3    H270868   5.971   3.836  11.675 -1.0705  0.5592 -0.2371
16485TIP3   OH270869   4.576   0.761   4.059 -0.0660 -0.4567 -0.4411
16485TIP3    H170870   4.661   0.806   4.068 -0.0922 -0.2912 -0.9724
16485TIP3    H270871   4.598   0.677   4.019  0.2624 -1.9275  2.5786
16486TIP3   OH270872   1.377   4.165   0.040 -0.4619 -0.4376  0.4758
16486TIP3    H170873   1.296   4.197   0.080  0.1531  0.0686  1.3580
16486TIP3    H270874   1.403   4.235  -0.020 -0.5431 -0.4952  0.3717
16487TIP3   OH270875   1.236   0.217  14.606  0.0268  0.2608  0.1578
16487TIP3    H170876   1.202   0.281  14.669 -2.0391 -0.0337 -0.6062
16487TIP3    H270877   1.276   0.150  14.660 -3.0916 -0.7972  1.3637
16488TIP3   OH270878   3.417   1.068  11.261  0.3030  0.4400 -0.0117
16488TIP3    H170879   3.368   0.989  11.284 -0.0101  0.7261  0.3217
16488TIP3    H270880   3.497   1.035  11.219  0.4635 -0.0751  0.6674
16489TIP3   OH270881   1.578   2.360   1.820  0.4707  0.1759 -0.2314
16489TIP3    H170882   1.658   2.391   1.778 -0.0768  2.8576  0.5393
16489TIP3    H270883   1.521   2.437   1.824 -0.8761 -0.8362  2.1492
16490TIP3   OH270884   1.823   5.763  16.706 -0.6286  0.3941  0.8130
16490TIP3    H170885   1.887   5.828  16.734  0.2818 -1.3492  3.0330
16490TIP3    H270886   1.846   5.683  16.754 -4.0691 -0.5055  1.2271
16491TIP3   OH270887   3.841   1.351   0.467 -0.0599 -0.2587  0.7211
16491TIP3    H170888   3.752   1.323   0.444 -0.4309  0.6350  1.0256
16491TIP3    H270889   3.876   1.388   0.386 -0.1142 -0.2299  0.7111
16492TIP3   OH270890   6.340   2.419   5.420  0.2121  0.3358 -0.3859
16492TIP3    H170891   6.385   2.483   5.364  0.3106 -0.8817 -1.7729
16492TIP3    H270892   6.264   2.466   5.455  0.5213  1.3324 -1.0188
16493TIP3   OH270893   3.465   1.128  14.400  0.0081  0.3439 -0.6704
16493TIP3    H170894   3.449   1.109  14.492 -0.8382 -1.4594 -1.1370
16493TIP3    H270895   3.423   1.212  14.385 -0.1520  0.4910  0.5077
16494TIP3   OH270896   4.625   0.855  13.112 -0.5423 -0.6706  0.1367
16494TIP3    H170897   4.608   0.881  13.021 -0.1089 -0.1908  0.1874
16494TIP3    H270898   4.702   0.799  13.107  0.3254  0.4675  0.3463
16495TIP3   OH270899   0.714   6.405  16.234 -0.1271  0.1579 -0.0032
16495TIP3    H170900   0.623   6.376  16.222  0.4230 -1.2003 -1.1485
16495TIP3    H270901   0.722   6.419  16.328 -1.6930  0.9145  0.0564
16496TIP3   OH270902   4.827   3.867   2.894 -0.3225  0.3866  0.3101
16496TIP3    H170903   4.843   3.798   2.829 -0.2361  1.2837 -0.6489
16496TIP3    H270904   4.877   3.839   2.971  2.6891  1.0689 -1.2345
16497TIP3   OH270905   2.322   1.012  10.934  0.5546  0.1696  0.2071
16497TIP3    H170906   2.404   0.964  10.922  0.4981 -0.2057  1.1837
16497TIP3    H270907   2.347   1.091  10.981  0.4026  0.1975  0.2409
16498TIP3   OH270908   3.004   2.228  14.229  0.0531 -0.2857 -0.6829
16498TIP3    H170909   2.915   2.210  14.258 -0.6516 -0.1757 -2.5884
16498TIP3    H270910   3.045   2.142  14.224  0.7360 -0.1931  2.0457
16499TIP3   OH270911   5.592   0.926   2.424  0.0423 -0.1067 -0.0785
16499TIP3    H170912   5.505   0.934   2.463 -0.6516 -1.3920 -1.2400
16499TIP3    H270913   5.644   0.994   2.466 -0.6926 -1.2072  2.8600
16500TIP3   OH270914   0.999   4.676   4.101 -0.2185  0.0517  0.3205
16500TIP3    H170915   0.946   4.597   4.092 -0.2385  0.1396 -0.3922
16500TIP3    H270916   0.996   4.717   4.014 -1.5355  1.6820  1.0697
16501TIP3   OH270917   1.302   1.510  12.289  0.0491 -0.0057 -0.3928
16501TIP3    H170918   1.277   1.576  12.224  0.4029  1.5158  0.9462
16501TIP3    H270919   1.250   1.433  12.267  1.0201  0.0218 -3.2048
16502TIP3   OH270920   5.616   2.543   1.756 -0.3443  0.1780 -0.8423
16502TIP3    H170921   5.542   2.565   1.813  0.0499 -0.4683 -0.0628
16502TIP3    H270922   5.652   2.628   1.729 -0.8300  0.4917 -0.5197
16503TIP3   OH270923   1.068   1.235  16.726  0.5503 -0.1367 -0.9242
16503TIP3    H170924   1.024   1.293  16.788  1.1647  2.2082 -2.5341
16503TIP3    H270925   1.042   1.268  16.640  3.1010 -0.5164 -1.9354
16504TIP3   OH270926   0.051   6.737  13.035 -0.4444  0.0073 -0.4159
16504TIP3    H170927   0.027   6.795  13.107 -1.9050  1.3580 -1.9057
16504TIP3    H270928   0.075   6.796  12.963  0.9691 -1.2922 -1.0822
16505TIP3   OH270929   1.300   3.823  11.016  0.0973 -0.0792 -0.3944
16505TIP3    H170930   1.324   3.862  10.931  0.8139 -1.3621 -0.8120
16505TIP3    H270931   1.288   3.898  11.074 -1.9519  0.9425 -1.9912
16506TIP3   OH270932   6.529   2.396   3.028  0.1439  0.5487  0.2476
16506TIP3    H170933   6.494   2.377   2.941  1.4738  1.0404 -0.4212
16506TIP3    H270934   6.613   2.349   3.031 -0.2985 -0.2060  1.6173
16507TIP3   OH270935   6.778   5.109   1.306 -0.3815 -0.4406 -0.5418
16507TIP3    H170936   6.871   5.122   1.290 -0.4898 -1.0348 -1.7708
16507TIP3    H270937   6.773   5.079   1.397  0.5499  0.2486 -0.2533
16508TIP3   OH270938   0.581   2.137   0.567  0.5202 -0.2495 -0.0554
16508TIP3    H170939   0.670   2.110   0.545 -0.6017 -3.7905 -0.8091
16508TIP3    H270940   0.550   2.071   0.628 -2.1075 -0.0633 -1.0586
16509TIP3   OH270941   2.748   2.485  13.999 -0.3867 -0.0387  0.3611
16509TIP3    H170942   2.745   2.562  14.056 -1.8649 -0.0851  0.3869
16509TIP3    H270943   2.812   2.428  14.039  0.2016  0.8725  0.7489
16510TIP3   OH270944   5.309   2.279   1.765 -0.1741 -0.1088 -0.6286
16510TIP3    H170945   5.245   2.307   1.830 -0.5234  0.6788 -1.2991
16510TIP3    H270946   5.259   2.229   1.701 -0.2198  0.8145 -1.3496
16511TIP3   OH270947   3.741   0.465  13.596 -0.4692  0.3493 -0.2398
16511TIP3    H170948   3.713   0.412  13.522 -0.8050 -0.4311  0.4266
16511TIP3    H270949   3.677   0.446  13.665 -0.8487  1.9454 -0.1058
16512TIP3   OH270950   5.178   6.744   5.418  0.2864  0.0870 -0.3739
16512TIP3    H170951   5.148   6.830   5.387  0.3146 -0.3707 -1.7653
16512TIP3    H270952   5.146   6.683   5.352  0.8051 -0.9004  0.2679
16513TIP3   OH270953   2.980   4.452  12.313 -0.4050 -0.0861  0.3475
16513TIP3    H170954   3.011   4.518  12.251 -1.2518  0.1647  0.1837
16513TIP3    H270955   3.006   4.369  12.273 -0.6007  0.0898 -0.1482
16514TIP3   OH270956   1.287   6.769   4.130  0.3745  0.2968 -0.0416
16514TIP3    H170957   1.197   6.801   4.124  0.7091  1.3050  0.1740
16514TIP3    H270958   1.299   6.717   4.051 -0.2909  0.4042 -0.2226
16515TIP3   OH270959   0.849   3.181  16.087 -0.2765 -0.3063 -0.0337
16515TIP3    H170960   0.838   3.267  16.129  0.9200  1.1937 -2.5321
16515TIP3    H270961   0.815   3.119  16.151 -0.0630  1.8974  2.4125
16516TIP3   OH270962   4.851   6.777   2.551 -0.0430 -0.7478  0.2200
16516TIP3    H170963   4.816   6.690   2.534  1.6351 -1.6390  1.1259
16516TIP3    H270964   4.845   6.787   2.646 -0.0618  0.0645  0.1439
16517TIP3   OH270965   0.136   2.534   3.495 -0.2059 -0.0611 -0.2755
16517TIP3    H170966   0.098   2.589   3.427  0.7848  0.3921 -0.4785
16517TIP3    H270967   0.199   2.479   3.449  0.5155  0.2912  0.2867
16518TIP3   OH270968   6.756   6.233  14.347  0.3564 -0.1578 -0.4660
16518TIP3    H170969   6.736   6.197  14.261  0.5347 -2.6779  0.4576
16518TIP3    H270970   6.842   6.198  14.369  0.3500  0.4913  0.7238
16519TIP3   OH270971   1.881   1.372   6.125  0.1722 -0.1258 -0.5106
16519TIP3    H170972   1.857   1.385   6.033  2.6857 -0.6791 -1.3358
16519TIP3    H270973   1.809   1.321   6.162 -0.2849 -1.0724 -2.5614
16520TIP3   OH270974   1.033   0.154   5.253  0.9756 -0.3997  0.1763
16520TIP3    H170975   0.977   0.224   5.218  2.0321  0.7035  0.6040
16520TIP3    H270976   1.009   0.148   5.345  1.0038 -0.4699  0.1794
16521TIP3   OH270977   6.233   5.668  15.368  0.1232  0.5176 -0.2234
16521TIP3    H170978   6.146   5.644  15.399 -0.4696 -1.2987 -2.8815
16521TIP3    H270979   6.284   5.683  15.447 -2.3162  0.6400  1.4322
16522TIP3   OH270980   5.354   0.183   1.648 -0.8068  0.3547 -0.1818
16522TIP3    H170981   5.326   0.156   1.560 -0.9002 -0.0594 -0.0258
16522TIP3    H270982   5.388   0.271   1.635 -0.4298  0.1420 -0.7181
16523TIP3   OH270983   4.390   5.080   0.471 -0.0203 -0.5396 -0.1259
16523TIP3    H170984   4.408   5.001   0.522 -2.2846 -1.7697 -1.0478
16523TIP3    H270985   4.382   5.048   0.381  3.5217  1.5069 -1.3353
16524TIP3   OH270986   5.822   5.699   3.146 -0.1167 -0.2482 -0.1646
16524TIP3    H170987   5.858   5.646   3.217 -0.0071 -0.9686 -0.7432
16524TIP3    H270988   5.734   5.723   3.176  0.3389  0.3900  0.6797
16525TIP3   OH270989   1.049   3.186  12.476  0.2749 -0.0237 -0.0707
16525TIP3    H170990   1.085   3.265  12.435 -0.0572  0.1992  0.0700
16525TIP3    H270991   1.024   3.213  12.564 -0.2802 -0.1690 -0.1815
16526TIP3   OH270992   6.708   0.783  10.665 -0.9767  0.1738 -0.2271
16526TIP3    H170993   6.750   0.834  10.595 -0.1156 -1.7078 -1.1607
16526TIP3    H270994   6.615   0.805  10.658 -0.4630  3.1795  0.8162
16527TIP3   OH270995   6.671   2.206   3.405  0.3379  0.4186 -0.5477
16527TIP3    H170996   6.613   2.272   3.367 -1.5040 -1.9248 -2.1129
16527TIP3    H270997   6.665   2.220   3.499 -0.3164  2.1743 -0.8139
16528TIP3   OH270998   3.687   1.415  13.400  0.0021 -0.1939 -0.0220
16528TIP3    H170999   3.782   1.429  13.405 -0.1245  0.8418 -0.3092
16528TIP3    H271000   3.656   1.426  13.490  0.0808  0.0793 -0.0273
16529TIP3   OH271001   0.695   3.979  15.345 -0.0675  0.3380 -0.1956
16529TIP3    H171002   0.724   3.893  15.373 -0.6566  0.0586 -0.4279
16529TIP3    H271003   0.741   4.040  15.403  1.2882 -0.0560 -0.8054
16530TIP3   OH271004   2.216   2.492   4.228  0.3663  0.0175 -0.2468
16530TIP3    H171005   2.136   2.476   4.279  1.6441 -1.7912  1.3597
16530TIP3    H271006   2.218   2.420   4.165  1.4058 -0.8320  0.7066
16531TIP3   OH271007   3.373   1.385   1.978 -0.0716  0.0802 -0.3525
16531TIP3    H171008   3.397   1.417   2.065  2.4770  0.7782 -1.2090
16531TIP3    H271009   3.435   1.428   1.919 -1.8812 -0.1736 -2.5778
16532TIP3   OH271010   0.036   0.681  15.441  0.1567 -0.3066 -0.1128
16532TIP3    H171011   0.030   0.602  15.493 -1.3277  0.1733  0.4932
16532TIP3    H271012  -0.051   0.692  15.403  0.4575  0.8009 -0.5314
16533TIP3   OH271013   2.481   4.722   2.076 -0.4653  0.0529  0.5210
16533TIP3    H171014   2.436   4.804   2.061 -0.6528 -0.2066 -0.3859
16533TIP3    H271015   2.505   4.691   1.989  1.5527  0.2290  0.9610
16534TIP3   OH271016   5.630   5.358  13.003 -0.1868  0.1956  0.2305
16534TIP3    H171017   5.555   5.416  13.013  1.6860  2.6708  0.9177
16534TIP3    H271018   5.674   5.361  13.088  0.7126 -1.2215 -0.1393
16535TIP3   OH271019   6.297   5.555   0.092 -0.3201 -0.1755  0.5540
16535TIP3    H171020   6.322   5.560   0.184 -0.1263  2.1964  0.4218
16535TIP3    H271021   6.375   5.583   0.044 -0.8528 -0.0539 -0.2590
16536TIP3   OH271022   3.132   4.464   5.265  0.0520 -0.4871 -0.3043
16536TIP3    H171023   3.147   4.486   5.358 -0.5333  1.4804 -0.6123
16536TIP3    H271024   3.215   4.428   5.235  1.4537  2.1035  0.1590
16537TIP3   OH271025   3.825   4.860   4.284  0.1366 -0.3387 -0.1674
16537TIP3    H171026   3.860   4.854   4.195 -0.6479 -2.3674 -0.3907
16537TIP3    H271027   3.738   4.821   4.278 -0.8798  1.5773  1.0424
16538TIP3   OH271028   0.863   3.670   2.148 -0.2045 -0.3450 -0.2210
16538TIP3    H171029   0.951   3.679   2.186 -0.5475 -0.5238  0.6497
16538TIP3    H271030   0.828   3.590   2.187 -0.4020 -0.7914 -1.2972
16539TIP3   OH271031   0.158   1.649   5.384 -0.4383  0.0395 -0.1553
16539TIP3    H171032   0.158   1.741   5.413 -0.2899 -0.3972  1.3141
16539TIP3    H271033   0.249   1.630   5.365 -0.2285 -0.2314  1.0466
16540TIP3   OH271034   0.686   2.698  12.779 -0.1538 -0.5954 -0.2260
16540TIP3    H171035   0.615   2.723  12.838 -1.9745 -0.5821 -2.2859
16540TIP3    H271036   0.766   2.728  12.823 -1.2380 -1.8259  2.8110
16541TIP3   OH271037   3.817   0.523  12.425  0.1104 -0.0806 -0.2440
16541TIP3    H171038   3.784   0.581  12.357  0.7203 -0.1872 -0.6337
16541TIP3    H271039   3.910   0.545  12.433  1.0315 -2.7206 -2.2279
16542TIP3   OH271040   6.535   0.520  14.734  0.2369 -0.0081 -0.5885
16542TIP3    H171041   6.509   0.573  14.659 -1.6141 -1.9405 -1.4055
16542TIP3    H271042   6.581   0.445  14.697  1.8267  0.3795  0.4644
16543TIP3   OH271043   0.679   5.638  16.056  0.2620  0.2352 -0.5509
16543TIP3    H171044   0.673   5.558  16.109 -2.6644  1.0243  0.4961
16543TIP3    H271045   0.659   5.709  16.117  0.5984  1.5547 -1.9224
16544TIP3   OH271046   3.771   5.682   0.608  0.3564  0.1473 -0.0838
16544TIP3    H171047   3.811   5.606   0.651  1.8890 -0.5170 -2.4603
16544TIP3    H271048   3.759   5.654   0.518 -2.4374  1.5627 -0.2330
16545TIP3   OH271049   0.211   1.207   5.320 -0.0328  0.2079  0.0842
16545TIP3    H171050   0.287   1.209   5.378  0.3429 -1.7068 -0.2857
16545TIP3    H271051   0.243   1.243   5.237  0.8916 -1.7970 -0.4839
16546TIP3   OH271052   4.506   2.024  10.537  0.6984 -0.0057 -0.5892
16546TIP3    H171053   4.432   1.964  10.531 -0.1127  1.0644 -1.8101
16546TIP3    H271054   4.481   2.087  10.604  1.1859 -0.5225  0.0911
16547TIP3   OH271055   6.745   6.777   3.092 -0.0400  0.0086 -0.0275
16547TIP3    H171056   6.774   6.719   3.163  0.1301  0.2458  0.0996
16547TIP3    H271057   6.711   6.718   3.025  0.0159 -0.2311  0.1541
16548TIP3   OH271058   0.238   4.340   5.255  0.0668  0.0233  0.3088
16548TIP3    H171059   0.297   4.271   5.223 -0.1888  0.2593 -0.7093
16548TIP3    H271060   0.213   4.312   5.343  2.0994  0.1695  0.9894
16549TIP3   OH271061   3.895   3.523  16.180  0.0910  0.4333 -0.3067
16549TIP3    H171062   3.901   3.499  16.087 -2.3929 -0.9109 -0.1811
16549TIP3    H271063   3.878   3.617  16.178  1.5929  0.7282 -1.1181
16550TIP3   OH271064   4.607   6.431   0.351  0.3583 -0.2640  0.3274
16550TIP3    H171065   4.517   6.463   0.360 -0.0715 -1.0112 -1.0289
16550TIP3    H271066   4.661   6.508   0.365 -0.4652  0.1636  1.3677
16551TIP3   OH271067   3.162   6.261   2.694  0.9353 -0.3427  0.2120
16551TIP3    H171068   3.141   6.335   2.752 -1.5904 -2.3887  2.1629
16551TIP3    H271069   3.257   6.253   2.699  0.9042 -0.1264  3.8335
16552TIP3   OH271070   0.070   0.301   5.796  0.2064 -0.0852 -0.3680
16552TIP3    H171071   0.128   0.355   5.742  0.5735  0.0860  0.1979
16552TIP3    H271072   0.119   0.221   5.810 -0.1278 -0.3638 -0.7683
16553TIP3   OH271073   5.761   5.779   1.197  0.5954  0.0371  1.0642
16553TIP3    H171074   5.719   5.712   1.251 -1.5627 -0.7385 -1.3916
16553TIP3    H271075   5.825   5.731   1.145 -1.1218 -0.2785 -0.8741
16554TIP3   OH271076   0.090   3.876   5.646 -0.2518 -0.3715  0.4070
16554TIP3    H171077   0.107   3.893   5.739 -0.4594 -0.0866  0.3905
16554TIP3    H271078  -0.005   3.876   5.638 -0.2288  1.2077 -0.1098
16555TIP3   OH271079   2.972   6.581   4.120 -0.2334  0.3183  0.3285
16555TIP3    H171080   3.001   6.549   4.034 -1.0309 -0.1213  0.2160
16555TIP3    H271081   2.927   6.507   4.160 -0.5387  0.7543  0.8085
16556TIP3   OH271082   4.221   5.408   2.015 -0.2142 -0.6525 -0.1457
16556TIP3    H171083   4.173   5.489   2.032  0.9629  0.0563 -0.1239
16556TIP3    H271084   4.302   5.417   2.065  0.2142 -1.5753 -0.6487
16557TIP3   OH271085   1.673   2.681  15.611  0.4383  0.4200 -0.1807
16557TIP3    H171086   1.591   2.642  15.580  0.0693 -0.9655  2.2755
16557TIP3    H271087   1.739   2.648  15.551 -0.4480 -0.7771 -0.5519
16558TIP3   OH271088   4.998   4.660   4.431 -0.1875 -1.2847 -0.3066
16558TIP3    H171089   5.045   4.743   4.425 -0.5022 -0.9223  1.6885
16558TIP3    H271090   4.907   4.685   4.449 -0.2958 -2.0526  0.2695
16559TIP3   OH271091   2.750   1.625   4.799 -0.6095 -0.1622 -0.3543
16559TIP3    H171092   2.741   1.694   4.733 -0.4489  1.1656  0.9495
16559TIP3    H271093   2.843   1.602   4.798 -0.4819  0.3415 -0.1211
16560TIP3   OH271094   4.325   0.566   5.767  0.0236 -0.6617 -0.1590
16560TIP3    H171095   4.265   0.505   5.809 -0.5908  0.0640  0.0503
16560TIP3    H271096   4.402   0.569   5.825 -0.7757  0.2639  0.8938
16561TIP3   OH271097   3.017   2.698  13.222  0.5838  0.0664  0.4899
16561TIP3    H171098   2.972   2.733  13.299 -0.0643  1.1951 -0.3754
16561TIP3    H271099   2.953   2.638  13.183  1.1148 -0.9379  1.0974
16562TIP3   OH271100   2.677   3.677   0.448  0.5860 -0.0962 -0.5421
16562TIP3    H171101   2.693   3.690   0.355 -1.4779 -0.4961 -1.0062
16562TIP3    H271102   2.668   3.766   0.484  0.1191  0.0446 -0.9933
16563TIP3   OH271103   2.526   2.012  14.366 -0.3247  0.2668 -0.5480
16563TIP3    H171104   2.439   2.052  14.372 -1.0902 -1.2486 -0.9827
16563TIP3    H271105   2.541   1.974  14.453 -0.2640  0.2158 -0.5811
16564TIP3   OH271106   1.359   4.175   2.498  0.4138 -0.1438  0.8677
16564TIP3    H171107   1.290   4.217   2.446 -0.4313 -3.1738 -0.7185
16564TIP3    H271108   1.314   4.140   2.574  0.5272 -0.5954  0.7307
16565TIP3   OH271109   0.443   5.695   1.158 -0.2571 -0.3570  0.1027
16565TIP3    H171110   0.376   5.757   1.129  1.8674  1.7464 -0.5910
16565TIP3    H271111   0.464   5.723   1.247  0.6053 -0.1390 -0.1584
16566TIP3   OH271112   5.119   5.850  11.409  0.0924 -0.2097 -0.3079
16566TIP3    H171113   5.177   5.783  11.445 -2.7973 -1.6360  2.0698
16566TIP3    H271114   5.136   5.927  11.462 -0.6074 -0.8263  0.8456
16567TIP3   OH271115   0.173   5.381  16.916 -0.0761 -0.1661  0.0850
16567TIP3    H171116   0.209   5.344  16.997  0.6101 -0.1190 -0.1890
16567TIP3    H271117   0.159   5.473  16.936 -0.6880 -0.3212  0.4023
16568TIP3   OH271118   0.664   4.312   4.629 -0.6552  0.1402  0.0321
16568TIP3    H171119   0.571   4.295   4.617 -0.9788 -0.0797  2.3735
16568TIP3    H271120   0.668   4.401   4.663 -0.1142 -0.1508  0.7669
16569TIP3   OH271121   5.979   1.900   1.175 -0.3310 -0.1468 -0.2671
16569TIP3    H171122   5.885   1.879   1.172 -0.2166 -0.6254 -0.6086
16569TIP3    H271123   5.999   1.933   1.088 -0.0298 -0.7363 -0.4285
16570TIP3   OH271124   3.101   5.713   4.241  0.2580 -0.0719 -0.6348
16570TIP3    H171125   3.187   5.733   4.205  0.5995  1.6558  0.9872
16570TIP3    H271126   3.046   5.788   4.215 -0.2265 -0.2019 -0.0173
16571TIP3   OH271127   2.491   2.118  16.006  0.2883  0.1972 -0.1696
16571TIP3    H171128   2.582   2.101  16.027 -0.1276  1.1755  2.9418
16571TIP3    H271129   2.489   2.211  15.983 -0.2429  0.8899  2.4536
16572TIP3   OH271130   3.352   2.258  11.481  0.6454  0.0573  0.2182
16572TIP3    H171131   3.299   2.178  11.476  1.3964 -0.3966 -0.8349
16572TIP3    H271132   3.318   2.305  11.558 -2.1175  0.3938 -1.0900
16573TIP3   OH271133   3.145   0.429   0.787  0.5357 -0.3193 -0.8298
16573TIP3    H171134   3.051   0.420   0.800  0.6456 -2.4958 -1.0467
16573TIP3    H271135   3.155   0.493   0.716 -0.6475  1.3866  0.4732
16574TIP3   OH271136   3.153   5.259   6.430  0.0826  0.8649  0.4133
16574TIP3    H171137   3.079   5.315   6.408 -0.3498  0.0507 -0.2990
16574TIP3    H271138   3.114   5.185   6.477  0.6628  1.2296  1.4890
16575TIP3   OH271139   0.405   6.587   4.978  0.3874 -0.5741 -0.5447
16575TIP3    H171140   0.430   6.668   5.021 -0.3411 -0.9022  0.5434
16575TIP3    H271141   0.466   6.579   4.904  1.0755  0.4702 -0.1126
16576TIP3   OH271142   1.191   3.791  12.183  0.5826  0.1043  0.2629
16576TIP3    H171143   1.280   3.756  12.192  0.5101 -0.0506  0.3810
16576TIP3    H271144   1.198   3.881  12.216  0.9642  0.5043 -0.8417
16577TIP3   OH271145   1.469   1.806  12.652  0.2858  0.8453 -0.0748
16577TIP3    H171146   1.472   1.714  12.625 -0.5786  0.5761  0.6867
16577TIP3    H271147   1.495   1.804  12.745  1.3319  1.5152 -0.3315
16578TIP3   OH271148   0.683   3.436  15.545  0.4511  0.0559 -0.1466
16578TIP3    H171149   0.775   3.460  15.546  0.3127  0.8076  2.5869
16578TIP3    H271150   0.636   3.519  15.532  0.1538  0.3663  2.3177
16579TIP3   OH271151   1.337   5.538  15.239 -0.4063  0.2866  0.6040
16579TIP3    H171152   1.262   5.589  15.210 -0.0482  1.5698  1.8381
16579TIP3    H271153   1.358   5.573  15.326  0.9401 -0.7978  0.7507
16580TIP3   OH271154   0.000   3.980  12.254 -0.1324  0.2179  0.3167
16580TIP3    H171155   0.050   3.927  12.316  0.5561  1.7247  1.1061
16580TIP3    H271156   0.055   3.984  12.176 -0.0120  0.0687  0.3935
16581TIP3   OH271157   4.923   4.343   1.951 -0.9903 -0.3647  0.3343
16581TIP3    H171158   4.831   4.355   1.975 -0.6836  1.6005  0.6475
16581TIP3    H271159   4.944   4.419   1.896  0.5016 -0.6953  0.4061
16582TIP3   OH271160   6.460   1.843   4.910  0.2617  0.3815 -0.3703
16582TIP3    H171161   6.386   1.793   4.945  0.9610 -0.2111  0.3289
16582TIP3    H271162   6.423   1.927   4.884 -0.5649  0.3019  0.4782
16583TIP3   OH271163   1.046   3.656   5.757  0.1984 -0.4109 -0.4316
16583TIP3    H171164   1.094   3.574   5.757 -0.4465 -0.7947 -0.0106
16583TIP3    H271165   1.061   3.693   5.845 -0.6626 -0.7689 -0.1274
16584TIP3   OH271166   0.403   3.194   2.242 -0.2162  0.5200  0.3887
16584TIP3    H171167   0.476   3.207   2.182 -0.2316  3.1507  0.8277
16584TIP3    H271168   0.442   3.199   2.329 -0.4834 -1.3125  0.6438
16585TIP3   OH271169   4.714   1.821  16.726  0.3904 -0.5539  0.1526
16585TIP3    H171170   4.721   1.906  16.683 -0.0558  0.0922  1.3152
16585TIP3    H271171   4.636   1.780  16.686  0.8564 -0.6133 -0.7156
16586TIP3   OH271172   1.591   4.838  10.973 -0.4970 -0.5786 -0.0190
16586TIP3    H171173   1.589   4.769  11.040 -0.5245 -0.8317 -0.2771
16586TIP3    H271174   1.626   4.914  11.019  0.3454 -0.9958  0.0740
16587TIP3   OH271175   0.300   2.217  11.985  0.1147  0.1998 -0.0947
16587TIP3    H171176   0.338   2.153  11.925  0.6381  1.5716 -1.2715
16587TIP3    H271177   0.291   2.297  11.933 -0.1444  1.2161  1.4465
16588TIP3   OH271178   5.134   1.688   4.594 -0.0657  0.3903  0.2494
16588TIP3    H171179   5.179   1.696   4.678 -1.2199 -0.3566  0.9679
16588TIP3    H271180   5.200   1.656   4.533 -0.0068 -2.4390  1.6808
16589TIP3   OH271181   3.696   0.032   0.782  0.6617 -0.3298  0.6433
16589TIP3    H171182   3.669   0.064   0.696 -0.0885 -0.4605  0.8256
16589TIP3    H271183   3.728  -0.057   0.766  1.3949 -0.0253  0.3625
16590TIP3   OH271184   2.875   3.346   3.924 -0.3175  0.4035  0.1961
16590TIP3    H171185   2.809   3.321   3.989 -0.9844 -0.6770 -0.8598
16590TIP3    H271186   2.955   3.302   3.952 -1.0061 -1.4028 -0.5864
16591TIP3   OH271187   2.674   5.377  10.773  0.1521 -0.2114 -0.3145
16591TIP3    H171188   2.645   5.467  10.758 -0.4865 -0.5265 -1.0561
16591TIP3    H271189   2.680   5.369  10.868 -0.7744  0.3192 -0.1956
16592TIP3   OH271190   2.678   4.903   5.893  0.3169  0.8843  0.1735
16592TIP3    H171191   2.745   4.961   5.929 -0.4239  2.3571 -0.7230
16592TIP3    H271192   2.595   4.945   5.918 -0.3092 -0.7717  1.0660
16593TIP3   OH271193   2.135   1.032   1.119  0.0027  0.1170 -0.4790
16593TIP3    H171194   2.207   1.056   1.177 -0.5203 -1.2523  0.8325
16593TIP3    H271195   2.056   1.052   1.170 -0.5518  1.0423 -1.6518
16594TIP3   OH271196   0.061   0.407   0.410 -0.2538 -0.1704 -0.0908
16594TIP3    H171197   0.104   0.323   0.395 -1.3112 -0.7113 -0.1611
16594TIP3    H271198   0.103   0.467   0.349 -0.1593 -0.8758 -0.7288
16595TIP3   OH271199   1.955   6.681  13.262 -0.3896 -0.1991 -0.2589
16595TIP3    H171200   1.863   6.694  13.242 -0.3692  0.8723  0.2840
16595TIP3    H271201   1.995   6.767  13.248  1.4118 -1.4667 -4.8479
16596TIP3   OH271202   0.967   0.446  16.736  0.3229  0.1016  0.8554
16596TIP3    H171203   0.940   0.483  16.820 -0.0208  2.7787 -0.3499
16596TIP3    H271204   1.004   0.361  16.759 -0.1485  0.5439  3.6530
16597TIP3   OH271205   6.055   1.102  16.885  0.2089 -0.3630 -0.3386
16597TIP3    H171206   6.057   1.161  16.960  0.5552 -0.9439  0.1150
16597TIP3    H271207   6.031   1.158  16.811 -1.0044  0.0608  0.3476
16598TIP3   OH271208   2.173   6.463   0.383  0.2504 -0.5441  0.1255
16598TIP3    H171209   2.097   6.425   0.427  1.6221 -1.9143  1.3988
16598TIP3    H271210   2.137   6.500   0.302 -2.0445  0.4455  1.4987
16599TIP3   OH271211   4.234   5.658  11.326 -0.4612 -0.1239 -0.5044
16599TIP3    H171212   4.179   5.712  11.269  1.3599  0.9910 -1.2703
16599TIP3    H271213   4.174   5.628  11.395 -1.7057  2.2490 -0.4611
16600TIP3   OH271214   2.554   5.946  11.216 -0.4913 -0.2355  0.1731
16600TIP3    H171215   2.615   5.873  11.207 -1.0163 -0.6605  0.0548
16600TIP3    H271216   2.496   5.921  11.288 -1.3137 -0.3985 -0.5299
16601TIP3   OH271217   4.858   2.909   6.279  0.3689  0.2171  0.1588
16601TIP3    H171218   4.788   2.900   6.215  1.8342  0.8184 -1.5926
16601TIP3    H271219   4.844   2.994   6.320 -1.6074 -0.9069  2.0134
16602TIP3   OH271220   6.482   2.773  11.331  0.0664  0.1026  0.0715
16602TIP3    H171221   6.401   2.822  11.345 -0.7339 -0.3366 -2.5176
16602TIP3    H271222   6.542   2.836  11.290 -0.3288 -0.5138 -1.5364
16603TIP3   OH271223   5.458   2.336   1.173  0.2372  0.6880  0.5557
16603TIP3    H171224   5.536   2.358   1.224  0.4684 -0.2527  0.6148
16603TIP3    H271225   5.444   2.243   1.189 -1.0929  0.9090  0.8028
16604TIP3   OH271226   6.037   1.998  17.296  0.2501 -0.0195 -0.3447
16604TIP3    H171227   6.034   1.909  17.260 -1.1154  0.0879 -0.5544
16604TIP3    H271228   6.072   2.051  17.225 -3.4914  0.3869 -2.1452
16605TIP3   OH271229   0.234   6.574  16.845  0.4623 -0.6098 -0.4493
16605TIP3    H171230   0.177   6.651  16.849  1.6551  0.3291 -0.8114
16605TIP3    H271231   0.284   6.585  16.764  0.2022 -2.1233 -0.8518
16606TIP3   OH271232   1.353   0.859   3.214  0.0867  0.3841 -0.1370
16606TIP3    H171233   1.292   0.792   3.245  1.3355 -0.2983  0.9804
16606TIP3    H271234   1.300   0.938   3.206 -0.9677 -0.2084  0.6638
16607TIP3   OH271235   4.879   5.659   5.817 -0.2484  0.1896 -0.1276
16607TIP3    H171236   4.892   5.565   5.814 -0.5945  0.1015  0.6760
16607TIP3    H271237   4.857   5.677   5.909  0.7405  1.1704 -0.0572
16608TIP3   OH271238   6.451   5.692   3.052 -0.5963 -0.0891  0.2960
16608TIP3    H171239   6.471   5.663   3.141  0.0338  2.0224  0.9134
16608TIP3    H271240   6.355   5.689   3.046 -0.6515 -0.0892  1.1078
16609TIP3   OH271241   5.839   3.282  15.927  0.2803  0.5958  0.9315
16609TIP3    H171242   5.777   3.251  15.861  0.5617 -1.8035  1.6798
16609TIP3    H271243   5.916   3.309  15.877  0.2604 -0.6018  0.2026
16610TIP3   OH271244   3.964   0.523  15.140  0.4777 -0.2225 -0.0671
16610TIP3    H171245   3.894   0.584  15.118 -0.6736 -0.9154  1.4708
16610TIP3    H271246   4.044   0.567  15.112 -0.3649  1.7020  0.3986
16611TIP3   OH271247   5.923   4.338  13.952 -0.1770  0.3869 -0.0906
16611TIP3    H171248   5.873   4.256  13.960  0.6894 -0.0222  1.5345
16611TIP3    H271249   5.858   4.407  13.963 -1.1735  0.0421 -2.8096
16612TIP3   OH271250   3.033   5.646   1.657 -0.4120 -0.4083  0.1651
16612TIP3    H171251   3.101   5.579   1.655  0.9037  0.7735  1.9702
16612TIP3    H271252   2.990   5.635   1.742 -0.9839  0.2433 -0.0265
16613TIP3   OH271253   5.835   3.059  14.214  0.5523 -0.3939 -0.5360
16613TIP3    H171254   5.797   3.136  14.256 -1.0116 -1.3682 -0.1119
16613TIP3    H271255   5.918   3.090  14.179  0.7785  1.0482  1.1515
16614TIP3   OH271256   3.135   3.045  13.669  0.2006 -0.5189 -0.6916
16614TIP3    H171257   3.083   2.983  13.618  0.7273 -0.0373 -1.8629
16614TIP3    H271258   3.106   3.131  13.639  0.3535 -0.2198  0.0048
16615TIP3   OH271259   4.256   3.511  10.263 -0.3798  0.8764  0.0902
16615TIP3    H171260   4.173   3.501  10.310 -0.2983 -1.6662 -0.1417
16615TIP3    H271261   4.322   3.508  10.331 -0.3265 -1.5176  0.0118
16616TIP3   OH271262   3.584   1.413   1.567  0.2083 -0.0444 -0.1763
16616TIP3    H171263   3.562   1.494   1.522  0.0860  0.2103  0.3298
16616TIP3    H271264   3.511   1.354   1.548  0.4554 -0.1461 -0.8137
16617TIP3   OH271265   2.845   3.474   3.169  0.3600 -0.5205 -0.3671
16617TIP3    H171266   2.897   3.503   3.094  1.7823  0.6319  0.9821
16617TIP3    H271267   2.758   3.459   3.134  0.8756  0.4190 -2.1657
16618TIP3   OH271268   3.867   3.234  11.938  0.3901 -0.1208  0.3827
16618TIP3    H171269   3.844   3.233  12.031  0.8260 -2.0556  0.5230
16618TIP3    H271270   3.955   3.196  11.935 -0.5378 -2.3410 -0.9814
16619TIP3   OH271271   5.783   0.043   2.440  0.0692 -0.3967  0.7247
16619TIP3    H171272   5.705   0.096   2.424  0.7013  0.4155  0.2645
16619TIP3    H271273   5.749  -0.045   2.456 -1.0728  0.3293  2.5866
16620TIP3   OH271274   0.055   3.761   5.280  0.1817 -0.5813  0.2538
16620TIP3    H171275   0.095   3.686   5.324 -0.0031 -1.3898 -0.9039
16620TIP3    H271276   0.092   3.760   5.192  1.4524  1.7041  0.6820
16621TIP3   OH271277   4.670   3.648  14.025 -0.1140  0.1655 -0.3176
16621TIP3    H171278   4.600   3.589  13.998  0.1471 -0.5028  0.4250
16621TIP3    H271279   4.627   3.709  14.086 -0.9691  2.3942 -2.9454
16622TIP3   OH271280   4.861   3.603   1.817  0.1067  0.5463  0.3988
16622TIP3    H171281   4.813   3.646   1.888  0.9091  0.8464  0.7632
16622TIP3    H271282   4.795   3.589   1.749  0.0977  3.9478 -0.4941
16623TIP3   OH271283   4.676   4.426   0.722 -0.2467  0.1203 -0.1458
16623TIP3    H171284   4.715   4.503   0.762  2.6226 -0.5899 -1.3503
16623TIP3    H271285   4.662   4.451   0.630  1.2108 -0.8924 -0.6758
16624TIP3   OH271286   3.508   2.350   0.174  0.5032 -0.2737 -0.1208
16624TIP3    H171287   3.434   2.381   0.226  1.6348  2.1720  0.1451
16624TIP3    H271288   3.585   2.381   0.221  1.7227 -2.0640 -0.8222
16625TIP3   OH271289   5.328   6.671   0.580 -0.1269  0.4434 -0.4630
16625TIP3    H171290   5.313   6.644   0.670  0.4455  0.6454 -0.2985
16625TIP3    H271291   5.317   6.591   0.529 -0.3063  0.2963 -0.1954
16626TIP3   OH271292   4.336   5.005   0.215  0.1703  0.0928 -0.1441
16626TIP3    H171293   4.336   4.911   0.197  2.2395 -0.0858  0.5230
16626TIP3    H271294   4.244   5.031   0.210 -0.7982 -2.4669  2.3495
16627TIP3   OH271295   2.518   4.032   4.288  0.0479 -0.4575 -0.1554
16627TIP3    H171296   2.580   4.105   4.297 -0.4965 -0.1726  1.8455
16627TIP3    H271297   2.564   3.957   4.327 -0.9847 -0.1117  1.8979
16628TIP3   OH271298   3.439   0.635   4.810  0.0238 -0.4120 -0.0324
16628TIP3    H171299   3.495   0.689   4.754  1.0126  0.0547  1.3644
16628TIP3    H271300   3.369   0.605   4.751  0.4116  0.9519 -1.2576
16629TIP3   OH271301   6.774   4.688  14.765  0.0165  0.2568 -0.2304
16629TIP3    H171302   6.711   4.639  14.712  0.1023 -0.4265  0.2852
16629TIP3    H271303   6.736   4.776  14.772 -1.4417 -0.4083  0.9433
16630TIP3   OH271304   3.708   2.421   0.349  0.0112  0.0891  0.9666
16630TIP3    H171305   3.719   2.460   0.436 -0.2999 -0.9541  1.4997
16630TIP3    H271306   3.702   2.327   0.366  0.1711 -0.1495 -0.2143
16631TIP3   OH271307   0.503   5.260   6.494 -0.0448 -0.4114  0.4480
16631TIP3    H171308   0.432   5.197   6.506  0.6891 -1.0336  1.6873
16631TIP3    H271309   0.473   5.339   6.540  0.5936 -1.1044  2.0925
16632TIP3   OH271310   3.372   0.384  16.865  0.0812 -0.4942  0.3575
16632TIP3    H171311   3.318   0.306  16.876 -2.1844  0.6268 -1.6389
16632TIP3    H271312   3.453   0.352  16.826 -1.0983 -1.8419 -1.1504
16633TIP3   OH271313   3.449   5.048   4.507 -0.0753 -0.5945  0.4225
16633TIP3    H171314   3.356   5.038   4.529 -0.0311  0.7851  1.3731
16633TIP3    H271315   3.494   5.044   4.591  0.8514 -2.1989 -0.1185
16634TIP3   OH271316   3.418   1.396   5.978 -0.4251 -0.2439  0.0501
16634TIP3    H171317   3.388   1.305   5.980  0.1451 -0.4357  2.0091
16634TIP3    H271318   3.504   1.394   6.019  0.8399  0.8161 -2.3842
16635TIP3   OH271319   1.622   4.099   2.415  0.4827  0.1599 -0.0191
16635TIP3    H171320   1.674   4.150   2.353  0.4072  1.5701  1.0065
16635TIP3    H271321   1.531   4.121   2.394  0.1238 -2.9916 -2.3971
16636TIP3   OH271322   3.338   3.026   0.840 -0.3443 -0.8697 -0.0422
16636TIP3    H171323   3.399   3.037   0.767 -0.8439  0.2809 -0.3070
16636TIP3    H271324   3.255   3.059   0.807 -0.0914  1.8191  1.7343
16637TIP3   OH271325   0.552   3.597  10.871 -0.3847 -0.2676  0.4042
16637TIP3    H171326   0.486   3.662  10.897 -1.9700 -1.2014 -1.0619
16637TIP3    H271327   0.623   3.648  10.834 -0.1610  0.7861  2.1508
16638TIP3   OH271328   2.458   6.057   3.979  0.0595  0.3227  0.2055
16638TIP3    H171329   2.549   6.068   4.006  0.7652  0.8438 -2.1972
16638TIP3    H271330   2.456   5.972   3.935  0.0071  1.3714 -1.9326
16639TIP3   OH271331   6.137   3.269   3.104  0.1142 -0.1992 -0.0299
16639TIP3    H171332   6.106   3.323   3.032 -0.1559 -0.4741 -0.1203
16639TIP3    H271333   6.184   3.330   3.161 -1.0002  0.3105  0.3549
16640TIP3   OH271334   3.896   0.580  11.008 -0.0128  0.1885  0.1801
16640TIP3    H171335   3.963   0.622  10.954 -0.7823  0.9973 -0.1698
16640TIP3    H271336   3.944   0.516  11.060  0.8846  0.0238 -0.8115
16641TIP3   OH271337   0.297   4.787   6.112  0.4190  0.1832 -0.3579
16641TIP3    H171338   0.365   4.843   6.150  2.1075 -2.0937  0.1749
16641TIP3    H271339   0.235   4.774   6.183  1.8808 -1.4365  0.6806
16642TIP3   OH271340   3.930   6.516   3.538  0.1512  0.2385  0.3047
16642TIP3    H171341   3.879   6.581   3.587  1.1587  1.2331  0.0661
16642TIP3    H271342   3.878   6.502   3.459  0.2999  1.3834 -0.0252
16643TIP3   OH271343   6.541   5.831  15.411  0.2045  0.0706  0.0568
16643TIP3    H171344   6.483   5.887  15.463  0.0640 -0.4267  0.4580
16643TIP3    H271345   6.519   5.851  15.320 -0.6503 -0.1346  0.1992
16644TIP3   OH271346   5.001   1.732   1.553 -0.1641 -0.1339  0.0286
16644TIP3    H171347   5.072   1.677   1.520 -0.5623 -1.2402  0.9546
16644TIP3    H271348   4.977   1.692   1.637 -0.7760  1.1921  0.5074
16645TIP3   OH271349   4.838   4.049  17.212  0.2886  0.1646  0.0103
16645TIP3    H171350   4.824   4.144  17.212  0.5122  0.2011  1.0589
16645TIP3    H271351   4.751   4.013  17.194  0.1405  0.5608 -0.0949
16646TIP3   OH271352   4.822   3.808  12.650  0.3857 -0.1193  0.0049
16646TIP3    H171353   4.749   3.785  12.707  1.2639 -1.5973  0.5854
16646TIP3    H271354   4.810   3.753  12.573  0.2341  0.5185 -0.4354
16647TIP3   OH271355   3.495   2.388  11.300 -0.8419 -0.3874 -0.8429
16647TIP3    H171356   3.452   2.337  11.369 -1.8136 -0.4275 -1.4747
16647TIP3    H271357   3.431   2.394  11.230 -0.1556  0.3530 -1.4281
16648TIP3   OH271358   1.580   2.495   3.054  0.3879 -0.4884 -0.3770
16648TIP3    H171359   1.665   2.540   3.044  0.1089  0.3168  0.6891
16648TIP3    H271360   1.533   2.547   3.118 -0.6960 -1.2808 -0.5022
16649TIP3   OH271361   3.321   6.012   4.480  0.4411 -0.6422  0.3137
16649TIP3    H171362   3.313   6.106   4.464  0.9254 -0.5732  0.4472
16649TIP3    H271363   3.250   5.973   4.430  1.6541 -0.4029 -1.7236
16650TIP3   OH271364   1.938   1.480   6.384  0.2532  0.2220  0.4955
16650TIP3    H171365   1.904   1.568   6.365 -2.0927 -0.8933 -0.9930
16650TIP3    H271366   1.928   1.432   6.301  3.1630 -1.0062  0.7459
16651TIP3   OH271367   5.644   0.778   3.427  0.5136  0.2511  0.0823
16651TIP3    H171368   5.608   0.745   3.344 -0.7409 -0.3517  0.8437
16651TIP3    H271369   5.586   0.743   3.494  0.7638  1.7851  1.1402
16652TIP3   OH271370   5.707   4.045  15.927  0.3996 -0.0507 -0.4099
16652TIP3    H171371   5.664   3.995  15.997  0.8635 -0.0875 -0.1502
16652TIP3    H271372   5.671   4.134  15.937 -0.0734 -0.2171 -0.5802
16653TIP3   OH271373   1.037   5.355  14.717 -0.2908 -0.4462  0.0169
16653TIP3    H171374   1.083   5.277  14.688 -0.1370  0.2586 -1.7449
16653TIP3    H271375   1.094   5.393  14.784  0.0465 -1.3686  0.2679
16654TIP3   OH271376   0.089   1.421   3.891  0.0566  0.0569 -0.0908
16654TIP3    H171377   0.173   1.381   3.914 -0.1379 -0.5603 -0.4103
16654TIP3    H271378   0.042   1.351   3.844 -1.2273 -0.1176  1.3857
16655TIP3   OH271379   2.525   0.755  16.682 -0.2789 -0.5494 -0.6475
16655TIP3    H171380   2.539   0.835  16.734  1.4219 -0.9043 -0.4837
16655TIP3    H271381   2.523   0.685  16.747 -2.4936 -0.6314 -0.7220
16656TIP3   OH271382   3.725   6.153  14.647  0.3399 -0.2375  0.2683
16656TIP3    H171383   3.753   6.095  14.718 -0.4157  1.3841  1.9864
16656TIP3    H271384   3.726   6.098  14.569  0.2479 -2.3723  1.6883
16657TIP3   OH271385   0.746   2.284   1.600  0.8006  0.9059 -0.1813
16657TIP3    H171386   0.666   2.233   1.606  0.8670  0.4212 -2.4994
16657TIP3    H271387   0.815   2.224   1.629  0.8573 -0.3985 -2.6975
16658TIP3   OH271388   5.495   1.082  14.951  0.4646 -0.2020 -0.4427
16658TIP3    H171389   5.585   1.087  14.920  1.1410  0.3514  1.4588
16658TIP3    H271390   5.478   1.168  14.990 -0.3385 -0.8009  0.5905
16659TIP3   OH271391   3.670   0.067   0.085  0.2723 -0.5136 -0.6428
16659TIP3    H171392   3.763   0.080   0.065  0.5289 -0.1485  0.6948
16659TIP3    H271393   3.627   0.074   0.000  1.0250  3.3772 -0.8871
16660TIP3   OH271394   6.156   5.347   0.491 -0.1137 -0.0462  0.5747
16660TIP3    H171395   6.237   5.326   0.537  0.1772  2.9816  1.7313
16660TIP3    H271396   6.087   5.310   0.546  0.4082 -1.0043  0.6043
16661TIP3   OH271397   1.929   4.974   0.247  0.3714  0.8207 -0.0307
16661TIP3    H171398   1.937   5.031   0.171 -2.2584  1.4505  0.0553
16661TIP3    H271399   1.983   5.016   0.314 -0.6426  2.6750 -0.3071
16662TIP3   OH271400   4.492   3.665  13.071  0.5131  0.1474 -0.0721
16662TIP3    H171401   4.565   3.722  13.048 -0.6414  0.1124 -4.7443
16662TIP3    H271402   4.530   3.577  13.073  0.9385  0.3080 -0.7207
16663TIP3   OH271403   1.169   5.480  10.971 -0.1968 -0.5191  0.3571
16663TIP3    H171404   1.249   5.532  10.968  0.3633 -1.2407  1.9176
16663TIP3    H271405   1.198   5.389  10.962 -0.7300 -0.8486  1.6555
16664TIP3   OH271406   1.620   3.793  15.797 -0.1428  0.7148 -0.4473
16664TIP3    H171407   1.554   3.775  15.730  2.1357  2.4158 -3.3928
16664TIP3    H271408   1.610   3.886  15.816  0.2057  0.5670  0.4755
16665TIP3   OH271409   6.537   5.278  15.729 -0.1554  0.3146  0.1298
16665TIP3    H171410   6.444   5.277  15.704 -0.3716 -0.7297  0.8982
16665TIP3    H271411   6.582   5.237  15.655 -0.7005 -2.0050  0.9664
16666TIP3   OH271412   5.881   2.696   3.169  0.2741  0.3546  0.0720
16666TIP3    H171413   5.810   2.715   3.107 -1.5483 -0.3122  1.8139
16666TIP3    H271414   5.858   2.610   3.204  1.4083  0.5841  1.4262
16667TIP3   OH271415   0.750   3.222   3.755 -0.7009 -0.1332  0.1709
16667TIP3    H171416   0.732   3.177   3.838 -2.9137  0.9356  0.3302
16667TIP3    H271417   0.843   3.203   3.738 -0.5486 -1.5342  2.1562
16668TIP3   OH271418   5.749   5.910  16.384  0.4817  0.0763 -0.4244
16668TIP3    H171419   5.834   5.891  16.344  1.5384  1.7949  0.8145
16668TIP3    H271420   5.699   5.954  16.316  1.4713  1.0836 -0.5322
16669TIP3   OH271421   3.418   6.754   0.221 -0.1372 -0.5512 -0.1353
16669TIP3    H171422   3.502   6.755   0.176 -0.7870 -0.2856 -1.4154
16669TIP3    H271423   3.382   6.667   0.205  0.3660 -1.0563  1.3685
16670TIP3   OH271424   2.369   5.062   4.145  0.2235  0.1530 -0.8514
16670TIP3    H171425   2.424   4.998   4.099  1.4813  0.6422 -0.0953
16670TIP3    H271426   2.432   5.122   4.185 -0.8586  0.3894  0.5512
16671TIP3   OH271427   0.897   1.624  16.355 -0.3545 -0.8341 -0.7359
16671TIP3    H171428   0.884   1.714  16.385  1.3127 -1.2023  1.3217
16671TIP3    H271429   0.811   1.596  16.325 -1.5458  0.5843  1.1397
16672TIP3   OH271430   4.010   4.394   2.472  0.2170  0.1251 -0.0012
16672TIP3    H171431   4.065   4.466   2.442  1.8694 -1.0303  0.1156
16672TIP3    H271432   3.950   4.433   2.536 -1.3569  2.0525 -2.4582
16673TIP3   OH271433   0.126   0.761  15.785 -0.1908 -0.0387  0.7143
16673TIP3    H171434   0.089   0.814  15.855  2.1124  1.7497  0.6763
16673TIP3    H271435   0.190   0.704  15.828 -0.4327 -0.6047  0.3419
16674TIP3   OH271436   4.032   4.655   1.394  0.0955 -0.5488  0.8664
16674TIP3    H171437   4.043   4.569   1.355 -0.6422 -1.3284  2.3189
16674TIP3    H271438   3.939   4.662   1.412  0.0273  0.8552  0.1456
16675TIP3   OH271439   4.162   2.197  14.519  0.5363 -0.2878  0.0474
16675TIP3    H171440   4.135   2.195  14.427 -0.4169 -2.4210  0.3148
16675TIP3    H271441   4.106   2.265  14.559  0.1096 -0.1960 -0.7001
16676TIP3   OH271442   3.027   1.253  16.877  0.2757 -0.3996  0.5873
16676TIP3    H171443   3.030   1.344  16.848 -0.2345 -0.0539  1.5787
16676TIP3    H271444   3.035   1.258  16.972  2.9485 -1.5580  0.5013
16677TIP3   OH271445   0.337   3.105   0.124  0.2502  0.3790 -0.0195
16677TIP3    H171446   0.379   3.037   0.072  1.3704  0.5642  0.5947
16677TIP3    H271447   0.299   3.165   0.060  1.1333  0.3159 -0.6103
16678TIP3   OH271448   6.698   5.436  12.895  0.2395  0.1756  0.3832
16678TIP3    H171449   6.604   5.424  12.877  0.1554  1.7588 -0.4927
16678TIP3    H271450   6.700   5.503  12.963  0.7356 -0.4640  1.0073
16679TIP3   OH271451   1.372   2.386   5.845 -0.3525 -0.1340 -1.1948
16679TIP3    H171452   1.340   2.296   5.846 -1.7521  0.3386 -1.0294
16679TIP3    H271453   1.339   2.423   5.927  1.8214  0.0157 -0.3152
16680TIP3   OH271454   6.489   4.308  14.764 -0.5518  0.5199 -0.1958
16680TIP3    H171455   6.461   4.219  14.789 -2.1945  1.3554  1.1647
16680TIP3    H271456   6.409   4.360  14.766  0.7209  2.6225  1.7869
16681TIP3   OH271457   0.893   1.437  12.600  0.3010 -0.0215 -0.5576
16681TIP3    H171458   0.939   1.418  12.681  0.3214  1.1696 -0.2739
16681TIP3    H271459   0.829   1.504  12.624 -0.0298 -0.0144 -1.4217
16682TIP3   OH271460   2.172   6.463   3.143  0.5539 -0.0440 -0.2151
16682TIP3    H171461   2.166   6.411   3.223 -0.6119  2.1248  1.2113
16682TIP3    H271462   2.264   6.459   3.118  0.6373 -2.0974  0.2705
16683TIP3   OH271463   1.896   4.957  14.781  0.1777  0.3687  0.2838
16683TIP3    H171464   1.927   5.015  14.711  0.2329 -1.2328 -1.0911
16683TIP3    H271465   1.806   4.986  14.798  1.0426  2.5545  1.5685
16684TIP3   OH271466   0.134   3.359   6.595 -0.2431 -0.5662  0.3577
16684TIP3    H171467   0.104   3.392   6.511 -0.3157 -0.3012  0.4885
16684TIP3    H271468   0.096   3.271   6.601 -1.4352 -0.0402  0.7509
16685TIP3   OH271469   1.593   4.293  13.588  0.2077  0.0345 -0.4611
16685TIP3    H171470   1.541   4.371  13.602  0.8052  0.2749  0.5709
16685TIP3    H271471   1.678   4.325  13.557  0.1065 -0.2811 -1.0881
16686TIP3   OH271472   1.925   0.772  14.053 -0.6169  0.0638 -0.3189
16686TIP3    H171473   1.846   0.820  14.079  0.8946  2.1368  0.6846
16686TIP3    H271474   1.964   0.826  13.984  1.4051  0.6383  1.2060
16687TIP3   OH271475   5.770   4.389   5.772  0.1444 -0.0082  0.1005
16687TIP3    H171476   5.747   4.403   5.680  0.1632 -1.7174 -0.1964
16687TIP3    H271477   5.841   4.452   5.788 -1.8216  2.4227 -0.1400
16688TIP3   OH271478   3.279   2.842  13.440  0.3086  0.1557  0.1351
16688TIP3    H171479   3.296   2.835  13.346 -2.9352 -0.0450 -0.5258
16688TIP3    H271480   3.223   2.767  13.461  2.5292 -0.9687  2.7370
16689TIP3   OH271481   2.002   4.294  13.413  0.0461  0.8276 -0.2893
16689TIP3    H171482   1.984   4.235  13.486  1.5780 -0.3213 -0.7798
16689TIP3    H271483   1.941   4.367  13.425  0.0886  0.5551  1.9796
16690TIP3   OH271484   4.077   6.091   1.583  0.2093 -0.1256  0.3414
16690TIP3    H171485   4.108   6.011   1.626  0.0213 -0.8613 -0.8482
16690TIP3    H271486   4.032   6.139   1.652  1.0615 -0.6397  1.2866
16691TIP3   OH271487   6.061   5.784   4.189  0.0867  0.0991  0.3303
16691TIP3    H171488   6.057   5.871   4.149  0.5580 -0.3448 -0.7062
16691TIP3    H271489   5.975   5.745   4.170  0.7620 -0.6200 -1.4969
16692TIP3   OH271490   2.646   2.197  13.825  0.1013  0.6690  0.1203
16692TIP3    H171491   2.611   2.197  13.914  0.8599  0.8994  0.4269
16692TIP3    H271492   2.662   2.105  13.805 -2.0807  0.3977 -0.6029
16693TIP3   OH271493   5.591   3.510   6.175 -0.2176  0.2029  0.0723
16693TIP3    H171494   5.557   3.421   6.169  0.2935 -0.2306  2.3910
16693TIP3    H271495   5.590   3.529   6.269  0.2866  2.4142 -0.3150
16694TIP3   OH271496   0.541   5.812   2.450 -0.3368 -0.0925 -0.3091
16694TIP3    H171497   0.595   5.739   2.420  2.3700  1.2773  0.8081
16694TIP3    H271498   0.521   5.791   2.541 -0.7510 -0.0745 -0.3936
16695TIP3   OH271499   6.729   3.724  10.673  0.0735 -0.2674  0.4293
16695TIP3    H171500   6.650   3.719  10.728 -1.0479  1.7019 -0.8682
16695TIP3    H271501   6.751   3.633  10.656 -1.8587 -0.8976  0.9510
16696TIP3   OH271502   5.448   2.272   0.599 -0.1011 -0.4369 -0.5374
16696TIP3    H171503   5.394   2.347   0.574 -0.9320 -0.9129 -0.2106
16696TIP3    H271504   5.460   2.223   0.518 -0.3131 -0.4172 -0.5820
16697TIP3   OH271505   6.121   2.592  15.925 -0.2171  0.2425  0.0651
16697TIP3    H171506   6.204   2.627  15.957  0.2423 -0.1416 -0.6550
16697TIP3    H271507   6.120   2.501  15.957 -0.9116  0.5867  1.0500
16698TIP3   OH271508   5.702   1.898  13.791  0.4617 -0.0123 -0.1526
16698TIP3    H171509   5.673   1.808  13.775 -1.2600  0.4232  0.2681
16698TIP3    H271510   5.771   1.890  13.857  0.5766 -1.0433 -0.3794
16699TIP3   OH271511   3.601   4.732   5.876 -0.0437  0.0317 -0.3578
16699TIP3    H171512   3.542   4.665   5.840  1.3961 -1.9348  0.7292
16699TIP3    H271513   3.650   4.764   5.801 -0.1233 -0.8040 -0.7775
16700TIP3   OH271514   3.543   4.536  13.117  0.4250 -0.5930  0.4059
16700TIP3    H171515   3.621   4.512  13.167  1.7296  1.7042 -0.4033
16700TIP3    H271516   3.503   4.607  13.167  0.1577 -0.1834 -0.3760
16701TIP3   OH271517   3.266   6.548   6.321 -0.3475 -0.4757  0.4811
16701TIP3    H171518   3.199   6.495   6.364 -2.7175  0.5202 -1.7450
16701TIP3    H271519   3.276   6.624   6.378 -2.3747  0.1495  0.0591
16702TIP3   OH271520   1.343   6.124  15.602 -0.6313 -0.1499  0.7180
16702TIP3    H171521   1.427   6.098  15.639 -1.5178 -0.9283  2.3004
16702TIP3    H271522   1.353   6.217  15.582  0.4789 -0.1378  1.2586
16703TIP3   OH271523   1.714   0.965  14.105  0.0061 -0.0985 -0.1423
16703TIP3    H171524   1.700   1.039  14.164 -0.9396 -0.0949 -0.3541
16703TIP3    H271525   1.626   0.939  14.078  0.3727 -0.7841 -0.7098
16704TIP3   OH271526   6.261   3.083  14.328  0.3827  0.0448  0.4877
16704TIP3    H171527   6.196   3.150  14.312 -1.0749 -0.9299  1.9359
16704TIP3    H271528   6.343   3.131  14.341 -0.5929  1.5512  1.4102
16705TIP3   OH271529   0.457   4.925  11.079 -0.1233 -0.2583  0.1509
16705TIP3    H171530   0.396   4.852  11.068  0.5410 -0.6279 -1.3533
16705TIP3    H271531   0.539   4.883  11.106 -0.3188  0.1565  1.4017
16706TIP3   OH271532   3.513   3.465   0.746 -0.3445 -0.4594  0.2014
16706TIP3    H171533   3.554   3.551   0.749  0.1578 -0.7147  1.0293
16706TIP3    H271534   3.521   3.437   0.655 -0.2876  0.2612 -0.0155
16707TIP3   OH271535   6.129   3.311  14.245 -0.3842 -0.2612 -0.2659
16707TIP3    H171536   6.190   3.363  14.296 -0.3886  1.0983 -1.5826
16707TIP3    H271537   6.081   3.375  14.192 -1.0362 -1.5268 -1.2632
16708TIP3   OH271538   5.627   3.073  12.947 -0.3504  0.4537  0.2700
16708TIP3    H171539   5.621   3.125  13.027  3.5971 -0.5688  1.4245
16708TIP3    H271540   5.575   2.995  12.965  0.8433  0.0318  2.0643
16709TIP3   OH271541   1.262   3.772   4.341 -0.7083 -0.4153  0.0442
16709TIP3    H171542   1.300   3.685   4.350  0.6181  0.2956  1.7755
16709TIP3    H271543   1.307   3.812   4.266 -0.9625 -1.0008 -0.4306
16710TIP3   OH271544   3.397   5.521   6.157 -0.0072  0.1109  0.1109
16710TIP3    H171545   3.404   5.519   6.061  0.0132  0.0836  0.1130
16710TIP3    H271546   3.303   5.512   6.174  0.0706 -0.7608  0.1175
16711TIP3   OH271547   6.728   1.369  15.424  0.1282  0.4090 -0.0545
16711TIP3    H171548   6.771   1.291  15.390 -0.8295 -0.4421  0.6477
16711TIP3    H271549   6.674   1.401  15.352  0.3030  0.2742 -0.2460
16712TIP3   OH271550   1.063   4.701  14.630 -0.1967 -0.0263  0.6217
16712TIP3    H171551   1.004   4.629  14.610 -1.6799  1.2204  0.3209
16712TIP3    H271552   1.091   4.686  14.720  1.2392 -2.0938 -0.0794
16713TIP3   OH271553   0.030   1.890   4.544  0.1785  0.8417  0.1164
16713TIP3    H171554   0.084   1.969   4.552  1.3903 -0.0308  0.8829
16713TIP3    H271555  -0.007   1.877   4.631 -0.4144  0.8265 -0.1316
16714TIP3   OH271556   6.034   0.125   0.416  0.1677  0.0102 -0.6082
16714TIP3    H171557   6.106   0.142   0.355  1.6555  0.5547  1.2025
16714TIP3    H271558   6.051   0.037   0.449 -0.1023  0.0699 -0.3050
16715TIP3   OH271559   6.352   6.406   3.032 -0.6250 -0.7295 -0.4307
16715TIP3    H171560   6.416   6.401   2.960 -0.2567 -1.1617 -0.0784
16715TIP3    H271561   6.353   6.498   3.057  1.2940 -1.0290  0.8281
16716TIP3   OH271562   2.759   4.792  14.781 -0.0053  0.1279  0.0413
16716TIP3    H171563   2.721   4.839  14.707  0.8452  1.8089  0.6213
16716TIP3    H271564   2.752   4.853  14.855  2.7556  0.1155  0.4341
16717TIP3   OH271565   1.336   5.917  14.948  0.0793 -0.1056 -0.1192
16717TIP3    H171566   1.292   5.835  14.967  0.8879 -0.7730 -0.9985
16717TIP3    H271567   1.412   5.892  14.894  0.5740  1.1662 -0.0630
16718TIP3   OH271568   1.880   4.717  13.603  0.4780  0.2150 -0.2621
16718TIP3    H171569   1.794   4.753  13.624  1.3952  2.5949 -0.2489
16718TIP3    H271570   1.915   4.687  13.687  0.6228  1.5401  0.1659
16719TIP3   OH271571   1.122   0.033  11.812 -0.1133 -0.1163  0.8137
16719TIP3    H171572   1.093   0.015  11.902  0.7850  2.0633  1.5810
16719TIP3    H271573   1.187   0.102  11.821  0.0499  0.0863 -1.5328
16720TIP3   OH271574   3.412   4.625  15.899 -0.3171  0.6825 -0.4644
16720TIP3    H171575   3.324   4.661  15.892 -1.1779 -1.3213 -0.6182
16720TIP3    H271576   3.421   4.598  15.990  0.0504  0.6763 -0.4992
16721TIP3   OH271577   1.004   6.565  14.574 -0.2490 -0.0322  0.1812
16721TIP3    H171578   1.085   6.586  14.527  0.1722 -0.4099  0.7133
16721TIP3    H271579   0.942   6.542  14.506 -0.0380  0.6888 -0.2634
16722TIP3   OH271580   0.300   6.150   0.723  0.1416 -0.6135  0.5918
16722TIP3    H171581   0.366   6.218   0.715 -0.5873  0.1741  1.0519
16722TIP3    H271582   0.273   6.154   0.815 -1.9059  0.4285  0.0188
16723TIP3   OH271583   6.048   5.941   5.448  0.0580  0.3496  0.3097
16723TIP3    H171584   5.970   5.994   5.460  0.9637  2.3202 -1.7773
16723TIP3    H271585   6.119   6.004   5.436  1.8033 -1.3567  1.0339
16724TIP3   OH271586   5.213   4.161  10.824 -0.0057  0.4298  0.2121
16724TIP3    H171587   5.282   4.223  10.800  0.2111  0.1567  0.1230
16724TIP3    H271588   5.135   4.194  10.780  0.0272  0.8440  0.4664
16725TIP3   OH271589   4.635   0.822  12.837 -0.0323  0.5853 -0.0935
16725TIP3    H171590   4.575   0.783  12.774 -0.0218  1.3482 -0.5844
16725TIP3    H271591   4.717   0.774  12.825 -0.0250  0.7395 -0.6746
16726TIP3   OH271592   3.673   1.401   6.076  0.1418 -0.4005  0.0028
16726TIP3    H171593   3.719   1.373   6.155 -2.3569  2.3196  2.6852
16726TIP3    H271594   3.727   1.473   6.042 -0.4202  0.6665  1.2780
16727TIP3   OH271595   3.025   5.906   3.888  0.3094 -0.0278  0.0648
16727TIP3    H171596   2.976   5.857   3.954  0.9637  0.3279  0.8325
16727TIP3    H271597   3.067   5.977   3.937 -1.3045  1.8454 -1.1481
16728TIP3   OH271598   2.266   5.398   0.387 -0.1754  0.3034 -0.2523
16728TIP3    H171599   2.315   5.463   0.336 -0.0854 -0.8256 -1.6734
16728TIP3    H271600   2.272   5.429   0.477  1.9006  1.0142 -0.5711
16729TIP3   OH271601   6.757   0.161  15.707  0.1516 -0.1578  0.0470
16729TIP3    H171602   6.706   0.216  15.766  0.9870 -0.0459  0.6877
16729TIP3    H271603   6.791   0.221  15.641  0.9182  0.0743  0.6454
16730TIP3   OH271604   2.507   5.444  15.702  0.3014 -0.4108  0.4118
16730TIP3    H171605   2.520   5.448  15.608 -1.8781  2.0504  0.0732
16730TIP3    H271606   2.553   5.521  15.736  0.6957 -1.0261  1.3202
16731TIP3   OH271607   0.036   2.411   3.913  0.3677 -0.2310 -0.1481
16731TIP3    H171608  -0.037   2.399   3.974  1.0620  1.2273  1.0454
16731TIP3    H271609   0.026   2.340   3.850  0.3349 -2.6198  2.3442
16732TIP3   OH271610   1.256   0.040  14.837  0.1050  0.0455  0.2967
16732TIP3    H171611   1.335  -0.013  14.825  0.5499  0.5776  0.8070
16732TIP3    H271612   1.187  -0.025  14.851  1.0267 -0.4591  3.2642
16733TIP3   OH271613   2.180   1.541   6.260  0.1395 -0.2200 -0.6705
16733TIP3    H171614   2.103   1.564   6.312  1.2112  0.6384  0.5870
16733TIP3    H271615   2.208   1.456   6.294  0.2982 -0.0896 -0.4731
16734TIP3   OH271616   1.895   1.568   5.397 -0.0091 -0.4538  0.6926
16734TIP3    H171617   1.986   1.586   5.420 -0.2608  1.6578  0.2620
16734TIP3    H271618   1.844   1.609   5.467 -0.6794  2.6332 -1.3830
16735TIP3   OH271619   5.681   2.372   4.998  0.0045  0.6126  0.3221
16735TIP3    H171620   5.601   2.418   5.025 -0.8873 -0.8068  0.2180
16735TIP3    H271621   5.667   2.352   4.906 -0.2319 -1.0212  0.6923
16736TIP3   OH271622   3.422   1.064  14.689  0.5119  0.4290 -0.1727
16736TIP3    H171623   3.457   1.134  14.743 -0.4726  1.5320 -0.9218
16736TIP3    H271624   3.451   0.983  14.733  0.4424  1.2787  1.5161
16737TIP3   OH271625   4.181   6.120  14.834  0.1382 -0.1440 -0.4414
16737TIP3    H171626   4.168   6.179  14.909  1.5562 -1.3253  0.7943
16737TIP3    H271627   4.274   6.095  14.838 -0.2775 -2.0215 -1.2425
16738TIP3   OH271628   2.501   3.870  15.894 -0.1162  0.0841  0.2435
16738TIP3    H171629   2.442   3.796  15.908 -0.4744  0.4725  0.8224
16738TIP3    H271630   2.584   3.842  15.934 -0.4812  0.2934  1.1822
16739TIP3   OH271631   4.668   0.926   3.323 -0.0443 -0.0261  0.1693
16739TIP3    H171632   4.622   0.986   3.265  0.2713 -0.3144 -0.3937
16739TIP3    H271633   4.615   0.923   3.402 -0.6038  0.1943 -0.1923
16740TIP3   OH271634   6.194   5.117   5.469 -0.6169  0.2263 -0.5649
16740TIP3    H171635   6.256   5.163   5.412  0.1886 -0.1371 -0.0046
16740TIP3    H271636   6.153   5.052   5.412 -0.8143  0.7608 -1.0450
16741TIP3   OH271637   0.662   4.752  16.979  0.0997 -0.0060  0.7748
16741TIP3    H171638   0.570   4.747  17.007 -0.2043  0.7271 -0.0015
16741TIP3    H271639   0.657   4.742  16.884  0.7603  0.5722  0.6712
16742TIP3   OH271640   3.179   2.635  13.896  0.1603  0.3109 -0.7582
16742TIP3    H171641   3.092   2.655  13.860 -0.0422 -1.4390 -1.3164
16742TIP3    H271642   3.236   2.703  13.858 -1.0364  1.8667  0.1237
16743TIP3   OH271643   5.097   2.929  11.855  0.4841  0.4189 -0.4689
16743TIP3    H171644   5.191   2.940  11.872  0.4699  2.8702 -1.4485
16743TIP3    H271645   5.055   3.000  11.903 -0.8951 -0.6012 -0.0945
16744TIP3   OH271646   1.094   3.423   5.132 -0.4243  0.4604  0.4228
16744TIP3    H171647   1.096   3.506   5.084  0.7166  0.5214  0.5513
16744TIP3    H271648   1.070   3.447   5.221  1.6308  0.9095  0.8986
16745TIP3   OH271649   2.361   2.766   0.280  0.2544 -0.8547 -0.9185
16745TIP3    H171650   2.441   2.817   0.291 -0.6908  0.1806  1.7064
16745TIP3    H271651   2.386   2.676   0.304  1.0956 -1.0382 -2.3122
16746TIP3   OH271652   6.082   3.861  12.265 -0.2022 -0.0591  0.0837
16746TIP3    H171653   6.114   3.797  12.201 -2.4365  0.8590 -2.1259
16746TIP3    H271654   5.992   3.834  12.283 -0.7195  1.6364  0.1990
16747TIP3   OH271655   3.867   0.630   3.658 -0.2179  0.1707  0.5134
16747TIP3    H171656   3.808   0.700   3.632  0.4177  0.5558  0.1069
16747TIP3    H271657   3.954   0.669   3.656 -0.0290 -0.0764  2.1959
16748TIP3   OH271658   6.111   3.682  12.026 -0.2172  0.4663  0.2553
16748TIP3    H171659   6.105   3.774  12.004  1.4652  0.6156  0.3057
16748TIP3    H271660   6.161   3.643  11.955 -2.0122 -0.7032 -0.4559
16749TIP3   OH271661   0.737   1.866  13.161  0.7462  0.6112 -0.0415
16749TIP3    H171662   0.747   1.922  13.085  0.8444 -0.5640 -0.9273
16749TIP3    H271663   0.655   1.894  13.202  0.2850  0.7406 -1.0379
16750TIP3   OH271664   3.192   3.065   4.821  0.4120 -0.0333  0.4455
16750TIP3    H171665   3.122   3.007   4.790  1.7698 -0.8442 -1.2697
16750TIP3    H271666   3.272   3.026   4.787  1.5113  2.1398  0.3493
16751TIP3   OH271667   0.639   1.026  16.991 -0.0965 -0.6987  0.2261
16751TIP3    H171668   0.607   0.965  17.058  1.0882 -2.5069 -0.7787
16751TIP3    H271669   0.607   0.990  16.909  3.0465 -1.7456 -0.6850
16752TIP3   OH271670   5.753   5.610  11.421 -0.4801 -0.7761  0.1752
16752TIP3    H171671   5.696   5.675  11.379 -0.5994 -2.2190 -2.0699
16752TIP3    H271672   5.837   5.621  11.378 -0.2703 -1.5300  0.3879
16753TIP3   OH271673   4.462   5.648   1.848  0.9125  0.2171  0.5137
16753TIP3    H171674   4.393   5.695   1.895 -0.7128 -1.0358 -0.4936
16753TIP3    H271675   4.486   5.707   1.777 -0.6475 -0.1365 -0.3548
16754TIP3   OH271676   1.100   1.051  15.541 -0.0092  0.2765  0.5636
16754TIP3    H171677   1.053   1.060  15.624  0.0250 -0.4032  0.6593
16754TIP3    H271678   1.179   1.104  15.552  0.2769 -0.2668  1.1846
16755TIP3   OH271679   6.309   0.922  15.331  1.0378 -0.2312  0.2417
16755TIP3    H171680   6.345   0.956  15.249 -0.8649  0.3046 -0.4180
16755TIP3    H271681   6.222   0.889  15.308  0.7421 -0.7228  1.9161
16756TIP3   OH271682   1.854   4.530   4.670  0.1397  0.3605 -0.2471
16756TIP3    H171683   1.878   4.622   4.658  0.8205  0.2759  0.4434
16756TIP3    H271684   1.884   4.509   4.758  0.3963 -0.6591 -0.5745
16757TIP3   OH271685   4.172   4.442   2.998 -0.0879  0.1788 -0.1898
16757TIP3    H171686   4.238   4.392   2.950  2.3870  2.1504  0.9733
16757TIP3    H271687   4.133   4.378   3.058 -0.4311 -1.3724 -1.9445
16758TIP3   OH271688   5.201   3.644  13.039 -0.6381  0.2300  0.2782
16758TIP3    H171689   5.133   3.634  13.105 -0.2575 -1.6773  0.4482
16758TIP3    H271690   5.183   3.729  12.998 -1.6280  0.8667  1.9528
16759TIP3   OH271691   4.975   6.287  12.897  0.8147  0.1917  0.6058
16759TIP3    H171692   5.000   6.373  12.930 -2.7011  2.7875 -2.5091
16759TIP3    H271693   5.051   6.256  12.848  1.6688  2.4229  0.4076
16760TIP3   OH271694   0.721   6.172   4.942  0.0078 -0.5376 -0.2580
16760TIP3    H171695   0.640   6.167   4.890  0.5235  0.7157 -1.2367
16760TIP3    H271696   0.749   6.081   4.951 -0.6564 -0.8626 -1.2996
16761TIP3   OH271697   5.617   5.283  12.338 -0.2603 -0.6723 -0.0313
16761TIP3    H171698   5.539   5.266  12.285 -0.3471 -0.8733  0.1616
16761TIP3    H271699   5.587   5.276  12.429  0.3489 -2.4696  0.0565
16762TIP3   OH271700   3.856   2.922  11.445 -0.6517  0.1732 -0.0496
16762TIP3    H171701   3.790   2.880  11.499 -0.7128  1.2610  0.7567
16762TIP3    H271702   3.919   2.853  11.425 -2.6909 -1.2462 -1.9831
16763TIP3   OH271703   0.079   6.645   3.336  0.2925  0.5489 -0.4943
16763TIP3    H171704  -0.004   6.675   3.374  1.0863  2.0409  0.1248
16763TIP3    H271705   0.113   6.581   3.400 -0.0903  0.3655 -0.4691
16764TIP3   OH271706   1.773   0.843   3.472 -0.8510 -0.3852  0.5880
16764TIP3    H171707   1.823   0.768   3.441  0.9438  0.7063  0.7229
16764TIP3    H271708   1.724   0.809   3.547  1.2261 -1.0698  1.7142
16765TIP3   OH271709   3.227   4.430  11.570 -0.5209  0.0006  0.6493
16765TIP3    H171710   3.287   4.357  11.553 -0.0433  0.5124  0.1203
16765TIP3    H271711   3.232   4.444  11.665 -0.2965 -0.3783  0.6960
16766TIP3   OH271712   2.692   3.008  15.684 -0.1748  0.1679 -0.0060
16766TIP3    H171713   2.615   3.007  15.627  0.5523 -1.8190 -1.0229
16766TIP3    H271714   2.759   3.052  15.633  0.4831 -1.6307 -0.7634
16767TIP3   OH271715   1.763   3.098  14.290 -0.3878  0.1862 -0.1261
16767TIP3    H171716   1.702   3.031  14.258 -0.6716  0.5046 -0.2600
16767TIP3    H271717   1.808   3.057  14.364  0.4464 -0.6439 -1.0717
16768TIP3   OH271718   5.653   1.888  16.591  0.5297  0.3412  0.4108
16768TIP3    H171719   5.687   1.977  16.585  1.4037  0.0037  0.2716
16768TIP3    H271720   5.585   1.894  16.658  0.7897  1.0483  0.6262
16769TIP3   OH271721   1.122   3.596  16.595  0.5486  0.4336 -0.3355
16769TIP3    H171722   1.116   3.501  16.582 -0.6019  0.3819  0.4972
16769TIP3    H271723   1.076   3.633  16.520 -0.3978  0.2878  0.1670
16770TIP3   OH271724   1.213   4.673   3.419 -0.1411 -0.5413 -0.7336
16770TIP3    H171725   1.211   4.694   3.512  1.5083 -0.4241 -0.6856
16770TIP3    H271726   1.124   4.690   3.388 -0.9030 -1.2683  0.9497
16771TIP3   OH271727   3.417   1.478  16.631 -0.2583  0.2293 -0.4002
16771TIP3    H171728   3.476   1.424  16.579  0.5550  0.3914  0.3299
16771TIP3    H271729   3.427   1.566  16.596 -0.8209  0.0910 -0.9222
16772TIP3   OH271730   3.671   1.742   4.379  0.8085 -0.9191 -0.0658
16772TIP3    H171731   3.742   1.704   4.327  1.4148  1.1816 -0.8926
16772TIP3    H271732   3.673   1.835   4.357 -0.1194 -0.2520  2.3744
16773TIP3   OH271733   5.122   3.067  10.677  0.4877 -0.2880 -0.2834
16773TIP3    H171734   5.169   2.998  10.630  0.5706 -1.1354  1.0143
16773TIP3    H271735   5.186   3.103  10.738  0.0588  0.0194 -0.0116
16774TIP3   OH271736   4.558   3.767  12.004 -0.5858  0.2012 -0.3394
16774TIP3    H171737   4.549   3.746  11.911  1.2626 -2.1333 -0.0867
16774TIP3    H271738   4.499   3.706  12.048  1.6563 -1.7495  0.1693
16775TIP3   OH271739   5.741   4.933  16.353 -0.5654  0.3911  0.0468
16775TIP3    H171740   5.779   4.897  16.433 -0.5450  1.3330  0.4691
16775TIP3    H271741   5.740   4.859  16.292  1.4774  0.1905  0.1824
16776TIP3   OH271742   2.851   4.870   2.157 -0.1928 -0.4079  0.5171
16776TIP3    H171743   2.941   4.836   2.147 -0.1530 -0.3260  0.6043
16776TIP3    H271744   2.856   4.961   2.127  0.1713  0.1971  2.3350
16777TIP3   OH271745   0.487   5.259   5.757  0.5552 -0.0447  0.2299
16777TIP3    H171746   0.422   5.227   5.819  0.7339  0.2567  0.5747
16777TIP3    H271747   0.470   5.354   5.751  2.6737  0.5814  2.4303
16778TIP3   OH271748   2.080   5.891   3.808  0.4316 -0.5445 -0.4976
16778TIP3    H171749   2.025   5.942   3.749 -0.8223 -0.5404  0.6157
16778TIP3    H271750   2.158   5.870   3.757  1.7227  3.6392 -0.6542
16779TIP3   OH271751   0.627   4.479  14.366 -0.3995 -1.2362 -0.6723
16779TIP3    H171752   0.539   4.494  14.401 -0.1374 -0.7107 -0.2264
16779TIP3    H271753   0.639   4.384  14.370  0.1113 -1.1277  1.8839
16780TIP3   OH271754   4.278   0.858  16.270 -0.2681 -0.1597 -0.1502
16780TIP3    H171755   4.264   0.835  16.178 -0.0224  0.9409 -0.4756
16780TIP3    H271756   4.310   0.948  16.268 -1.7420  0.4435  1.1008
16781TIP3   OH271757   3.455   6.063  14.894  0.0754 -0.4745 -0.5873
16781TIP3    H171758   3.448   6.110  14.811  0.1627 -2.1428 -1.5723
16781TIP3    H271759   3.547   6.038  14.900  0.3065  0.5273  0.5570
16782TIP3   OH271760   4.405   2.624   1.213 -0.1377 -0.0380  0.3574
16782TIP3    H171761   4.480   2.615   1.272 -0.3112  1.1963  0.8044
16782TIP3    H271762   4.344   2.555   1.240 -0.7373  1.2405  2.4778
16783TIP3   OH271763   1.021   5.216  12.160  0.1078  0.2218  0.0737
16783TIP3    H171764   1.090   5.153  12.182  0.2802  0.3250 -0.1695
16783TIP3    H271765   1.029   5.284  12.226  1.0762  0.8826 -0.6926
16784TIP3   OH271766   1.032   0.445   0.964 -0.2699 -0.4631 -0.6218
16784TIP3    H171767   1.022   0.409   0.876 -0.2827  0.0990 -0.8537
16784TIP3    H271768   0.962   0.510   0.971 -0.6166 -0.8892  0.0049
16785TIP3   OH271769   3.564   1.142  17.222  0.0520 -0.1978 -0.5240
16785TIP3    H171770   3.631   1.147  17.290  0.6045 -1.4843 -0.9312
16785TIP3    H271771   3.596   1.200  17.153 -0.0430  0.3941 -0.0732
16786TIP3   OH271772   0.904   2.686  16.084 -0.1860 -0.2003 -0.8756
16786TIP3    H171773   0.976   2.665  16.144 -0.9446  0.7523  0.4042
16786TIP3    H271774   0.945   2.687  15.997  1.4185  0.6445 -0.1468
16787TIP3   OH271775   3.699   1.712  13.055 -0.2787 -0.1773 -0.3079
16787TIP3    H171776   3.691   1.726  12.961 -0.3376  0.6523 -0.1810
16787TIP3    H271777   3.735   1.794  13.089 -1.0928 -0.1537  0.5156
16788TIP3   OH271778   2.309   5.688   2.697  0.5819  0.4471  0.2350
16788TIP3    H171779   2.261   5.691   2.614  1.3918  1.9340 -0.2226
16788TIP3    H271780   2.388   5.739   2.680 -0.2998  2.7954  2.5645
16789TIP3   OH271781   2.961   5.598   2.644 -0.4213 -0.2934 -0.1576
16789TIP3    H171782   2.940   5.662   2.575 -1.2096 -0.4876 -0.1147
16789TIP3    H271783   2.937   5.513   2.605  0.4732 -0.5586 -0.1593
16790TIP3   OH271784   6.466   5.922  11.944  0.4695  0.1784  0.5682
16790TIP3    H171785   6.519   5.915  11.864  0.2298  0.9634  0.3280
16790TIP3    H271786   6.500   5.999  11.989  1.1499 -0.7389  1.6593
16791TIP3   OH271787   6.556   4.384  15.913 -0.3596 -0.0041 -0.8556
16791TIP3    H171788   6.550   4.296  15.950 -1.1360  0.7798  0.9573
16791TIP3    H271789   6.629   4.425  15.959 -2.0981  1.3913  0.8097
16792TIP3   OH271790   0.013   0.627   4.978 -0.7257 -0.1391  0.6252
16792TIP3    H171791   0.016   0.685   4.902  0.5298 -1.0457 -0.0547
16792TIP3    H271792  -0.029   0.547   4.944 -0.1734 -0.5416  0.8758
16793TIP3   OH271793   4.196   2.298   4.687 -0.0745  0.0441  0.3861
16793TIP3    H171794   4.146   2.376   4.709  0.3232  0.5604 -0.4902
16793TIP3    H271795   4.219   2.309   4.595 -1.6250 -2.0024 -0.3276
16794TIP3   OH271796   5.581   4.809  14.651 -0.5559 -0.0257  0.4106
16794TIP3    H171797   5.516   4.750  14.612 -1.6613  0.9905  0.6721
16794TIP3    H271798   5.629   4.845  14.576 -2.0096  1.1587 -0.0124
16795TIP3   OH271799   0.328   2.934  16.329  0.5009  0.0689  0.5037
16795TIP3    H171800   0.411   2.928  16.282  0.4906 -0.2576  0.5253
16795TIP3    H271801   0.314   3.028  16.341  1.2269  0.1108  1.1383
16796TIP3   OH271802   5.908   1.635  13.695  0.9363  0.1875  0.2439
16796TIP3    H171803   5.948   1.664  13.614 -0.9741  0.6726 -0.5728
16796TIP3    H271804   5.970   1.662  13.763  2.1784  0.5079 -0.9626
16797TIP3   OH271805   2.986   5.106  15.548  0.3555 -0.0473  0.3107
16797TIP3    H171806   3.062   5.162  15.534  1.5240 -1.5715  0.3547
16797TIP3    H271807   3.021   5.017  15.549 -1.8154 -1.1080 -2.8151
16798TIP3   OH271808   5.456   6.381  17.129 -0.0668 -0.1189 -0.3419
16798TIP3    H171809   5.388   6.373  17.062  0.8445  0.1161 -1.3216
16798TIP3    H271810   5.537   6.389  17.080  0.6094  0.2678  0.8010
16799TIP3   OH271811   2.335   5.576  14.777 -0.3357  0.1170 -0.6134
16799TIP3    H171812   2.406   5.565  14.840 -1.7076 -0.7517  0.8458
16799TIP3    H271813   2.258   5.593  14.831 -0.9331  3.3153 -2.1856
16800TIP3   OH271814   3.774   4.668   1.442 -0.4078 -0.1267  0.3323
16800TIP3    H171815   3.733   4.605   1.502  0.3841 -0.8852  0.0961
16800TIP3    H271816   3.700   4.710   1.398 -0.9509 -1.1580  0.2234
16801TIP3   OH271817   4.317   3.786   0.112 -0.3327  0.1334 -0.1286
16801TIP3    H171818   4.254   3.818   0.048 -0.5757  1.3318  0.6757
16801TIP3    H271819   4.396   3.768   0.061 -0.6550  0.6741 -0.8337
16802TIP3   OH271820   4.914   0.881   6.145 -0.0803 -0.5815  1.1578
16802TIP3    H171821   4.850   0.824   6.187 -0.2403 -1.7386 -0.5364
16802TIP3    H271822   4.895   0.873   6.051  0.4257  1.6603  0.8026
16803TIP3   OH271823   4.455   3.838  14.937  0.2335 -0.0552 -0.3344
16803TIP3    H171824   4.400   3.794  14.873  0.4152 -0.0044 -0.5274
16803TIP3    H271825   4.512   3.769  14.972 -1.9486 -0.7956  2.0862
16804TIP3   OH271826   4.537   2.200   3.029  0.6300 -0.1374  0.2794
16804TIP3    H171827   4.482   2.212   3.106 -1.9098  1.3677 -1.6274
16804TIP3    H271828   4.527   2.108   3.005  0.7047 -0.3905  1.2088
16805TIP3   OH271829   5.002   5.257   4.296 -0.1106  0.0186 -0.7975
16805TIP3    H171830   5.064   5.273   4.225  1.1153  1.4151  0.5091
16805TIP3    H271831   4.984   5.344   4.331 -1.1340 -0.5919  0.2567
16806TIP3   OH271832   6.264   6.593  14.563  0.0386  0.0278 -0.3779
16806TIP3    H171833   6.300   6.512  14.598  0.6985  0.7915  0.7952
16806TIP3    H271834   6.199   6.621  14.628  0.4695  0.8878 -0.2921
16807TIP3   OH271835   3.815   6.380  14.216 -0.0089 -0.4356 -0.1238
16807TIP3    H171836   3.777   6.402  14.301 -0.9528  0.3153 -0.7163
16807TIP3    H271837   3.763   6.306  14.184 -0.1904 -0.1900 -0.4030
16808TIP3   OH271838   0.168   6.258   4.067 -0.1889  0.1470  0.0747
16808TIP3    H171839   0.103   6.218   4.124  0.2759  1.6821  1.7502
16808TIP3    H271840   0.252   6.223   4.097 -0.0847 -1.0691 -1.4467
16809TIP3   OH271841   2.729   0.261   3.967 -0.3869  0.9532  0.6531
16809TIP3    H171842   2.705   0.346   4.006  1.1702  1.4681  0.5676
16809TIP3    H271843   2.749   0.282   3.876  1.5197  0.8268  0.9974
16810TIP3   OH271844   6.370   1.306  15.493 -0.4341 -0.4552 -0.6600
16810TIP3    H171845   6.311   1.345  15.429  1.1397 -0.1283 -1.9712
16810TIP3    H271846   6.441   1.370  15.502  1.2617 -2.1377 -1.4478
16811TIP3   OH271847   1.411   1.176  10.768 -0.2404  0.1802 -0.1330
16811TIP3    H171848   1.410   1.142  10.857 -1.7635  1.7588  0.4991
16811TIP3    H271849   1.438   1.101  10.714 -0.4398 -1.1234  1.5009
16812TIP3   OH271850   0.002   5.123  15.729  1.1943 -0.0874  0.3253
16812TIP3    H171851   0.035   5.069  15.657  0.6051  1.8924 -1.5728
16812TIP3    H271852  -0.090   5.099  15.737  1.1652 -0.0395  0.1410
16813TIP3   OH271853   3.199   2.035  11.435  0.3198  0.2025 -0.4355
16813TIP3    H171854   3.184   1.977  11.360 -0.4567  1.4009 -1.2510
16813TIP3    H271855   3.196   1.977  11.511  1.3247 -1.0772 -1.3271
16814TIP3   OH271856   3.749   5.586  15.803 -0.0165 -1.1498 -0.4695
16814TIP3    H171857   3.791   5.670  15.784  0.3143 -0.4002  2.9112
16814TIP3    H271858   3.655   5.605  15.803  0.0920 -0.0491  2.5301
16815TIP3   OH271859   6.438   1.588   2.089 -0.0296 -0.4675  0.1698
16815TIP3    H171860   6.370   1.648   2.119  1.8210  1.8319  0.0027
16815TIP3    H271861   6.505   1.592   2.156  0.8130 -1.2014 -0.5947
16816TIP3   OH271862   0.076   0.861   2.065 -0.0032 -0.1316 -0.0549
16816TIP3    H171863  -0.013   0.842   2.035 -0.2300 -0.1144  0.5900
16816TIP3    H271864   0.067   0.879   2.159  0.5382  0.8161 -0.1676
16817TIP3   OH271865   1.707   1.641  13.154 -0.1766 -0.1740 -0.5526
16817TIP3    H171866   1.635   1.577  13.152  0.7075 -1.4009  2.1311
16817TIP3    H271867   1.783   1.592  13.123  0.6079 -0.7006  1.9655
16818TIP3   OH271868   5.744   0.414  11.431 -0.6067  0.0580  0.4817
16818TIP3    H171869   5.732   0.465  11.511 -0.3476  1.6808 -0.4661
16818TIP3    H271870   5.663   0.365  11.421 -1.0968  0.7076  1.1588
16819TIP3   OH271871   5.419   6.238  14.255  0.1042 -0.1634  0.0917
16819TIP3    H171872   5.436   6.331  14.272  1.1822 -0.5761  1.4724
16819TIP3    H271873   5.427   6.229  14.160 -0.6333  1.2606 -0.1359
16820TIP3   OH271874   1.588   4.051  17.059  0.3372  0.6118 -0.0528
16820TIP3    H171875   1.629   4.059  17.145  2.2594  1.4602 -0.9991
16820TIP3    H271876   1.530   3.975  17.068  1.8036 -0.4141  1.4791
16821TIP3   OH271877   5.747   3.407   0.771  0.3043  0.3134 -0.6389
16821TIP3    H171878   5.714   3.370   0.689  0.6900 -0.7561 -0.3358
16821TIP3    H271879   5.729   3.501   0.764 -1.7443 -0.0446 -0.9699
16822TIP3   OH271880   1.733   6.664   2.246  0.3322 -0.3013 -0.0533
16822TIP3    H171881   1.665   6.659   2.314  1.6925 -0.1922  1.3853
16822TIP3    H271882   1.694   6.718   2.178 -1.8374 -2.0389 -0.3134
16823TIP3   OH271883   4.561   3.024   2.230 -0.3697 -0.6326 -0.1728
16823TIP3    H171884   4.587   3.098   2.175  1.8475 -0.5147  0.9196
16823TIP3    H271885   4.642   2.976   2.246 -1.3962 -2.1315  0.8678
16824TIP3   OH271886   4.689   3.723  16.021  0.1983 -0.2127  0.9694
16824TIP3    H171887   4.740   3.740  16.100  1.4518 -1.1241  0.3930
16824TIP3    H271888   4.648   3.807  16.000  2.3114  0.8524  0.8759
16825TIP3   OH271889   0.306   4.020   3.803  0.6583 -0.0039  0.3372
16825TIP3    H171890   0.233   3.966   3.772  1.0085 -0.6925  0.6977
16825TIP3    H271891   0.316   4.088   3.736 -2.8792  2.6040  2.1321
16826TIP3   OH271892   4.486   1.835  12.356  0.0251  0.3651  0.2321
16826TIP3    H171893   4.502   1.835  12.261 -1.4313  1.1329 -0.0510
16826TIP3    H271894   4.414   1.773  12.367 -0.5758  1.1179  0.6624
16827TIP3   OH271895   0.376   4.519  15.054  0.0368  0.2659 -0.0307
16827TIP3    H171896   0.396   4.605  15.017 -0.7746  0.4319 -0.0936
16827TIP3    H271897   0.282   4.520  15.068 -0.0417 -0.7730 -0.4221
16828TIP3   OH271898   3.144   1.921   0.806 -0.2572  0.2100 -0.3142
16828TIP3    H171899   3.145   1.866   0.727  0.6027 -2.3224  1.3128
16828TIP3    H271900   3.235   1.922   0.835 -0.9956 -1.9452  2.4947
16829TIP3   OH271901   6.520   0.152  15.141  0.2946 -0.2245 -0.0842
16829TIP3    H171902   6.506   0.178  15.051  0.8208 -0.8577 -0.3649
16829TIP3    H271903   6.548   0.060  15.135 -1.4591 -0.8673  0.8458
16830TIP3   OH271904   3.794   5.381  12.315  0.0193 -0.5854  0.6540
16830TIP3    H171905   3.712   5.404  12.358 -0.8991 -1.3929 -0.5944
16830TIP3    H271906   3.837   5.465  12.298 -1.7298  0.0515 -0.9004
16831TIP3   OH271907   3.250   6.560  16.021  0.0011 -0.1659  0.4898
16831TIP3    H171908   3.163   6.596  16.036  0.4349  0.4111  1.7759
16831TIP3    H271909   3.307   6.637  16.016  0.7231 -0.5870  1.7765
16832TIP3   OH271910   6.544   6.377   3.277  0.1712 -0.1475  0.0872
16832TIP3    H171911   6.504   6.414   3.355 -1.2128 -1.8003  0.2178
16832TIP3    H271912   6.487   6.406   3.205  0.3127 -0.2546 -0.0683
16833TIP3   OH271913   2.083   3.699  11.859  0.2742 -0.1309  0.0632
16833TIP3    H171914   2.178   3.696  11.856  0.2457 -1.4952 -0.1494
16833TIP3    H271915   2.057   3.727  11.771  0.4556 -1.3025 -0.3807
16834TIP3   OH271916   1.251   6.121   2.313 -0.4552 -0.4281 -0.4319
16834TIP3    H171917   1.231   6.061   2.384  0.9719 -0.3984  0.0365
16834TIP3    H271918   1.231   6.208   2.348  0.2204 -0.4162 -0.0481
16835TIP3   OH271919   0.972   6.590  13.059 -0.3741  1.1232 -0.2837
16835TIP3    H171920   0.933   6.512  13.021 -0.6405 -0.3309  2.6647
16835TIP3    H271921   0.995   6.645  12.984 -3.6715 -0.0251 -2.3595
16836TIP3   OH271922   2.899   6.008  13.728 -0.2247 -0.1629 -0.0523
16836TIP3    H171923   2.885   5.927  13.680 -0.3592  0.7410 -1.5857
16836TIP3    H271924   2.820   6.060  13.712 -0.3184  0.1393  1.2403
16837TIP3   OH271925   5.478   3.074  12.719  0.1456  0.1369  0.1933
16837TIP3    H171926   5.432   2.992  12.733  1.1727 -0.5241 -0.1488
16837TIP3    H271927   5.520   3.093  12.804  0.2294  0.0985  0.1608
16838TIP3   OH271928   2.038   5.407  15.104  0.0336 -0.3973  0.1819
16838TIP3    H171929   2.056   5.471  15.035  1.1688 -1.7156 -0.8145
16838TIP3    H271930   1.998   5.458  15.174 -1.4309  0.9624 -1.5301
16839TIP3   OH271931   5.060   4.251   2.875 -0.3280 -1.2835  0.2130
16839TIP3    H171932   5.093   4.249   2.785  0.1095  0.6084  0.2717
16839TIP3    H271933   5.111   4.184   2.921  1.0638 -0.7370 -0.4704
16840TIP3   OH271934   3.206   3.252  11.522 -0.2807 -0.4360  0.1705
16840TIP3    H171935   3.204   3.174  11.467  1.0432 -1.6238  1.6912
16840TIP3    H271936   3.162   3.320  11.471 -0.8548 -1.9935 -1.4798
16841TIP3   OH271937   0.256   1.233  15.548  0.6172  0.2385  0.1742
16841TIP3    H171938   0.232   1.148  15.584 -2.2887  0.8595 -0.0510
16841TIP3    H271939   0.316   1.212  15.476 -1.0027 -1.7457 -0.6922
16842TIP3   OH271940   3.406   6.408  14.443 -0.3437  0.6269  0.1016
16842TIP3    H171941   3.345   6.460  14.496 -1.2819 -1.0119  0.7218
16842TIP3    H271942   3.359   6.392  14.361 -1.2253 -1.4052  0.9224
16843TIP3   OH271943   0.598   1.755  11.146  0.1792 -0.0007 -0.1361
16843TIP3    H171944   0.553   1.828  11.102  0.6864 -0.7605 -1.9774
16843TIP3    H271945   0.689   1.765  11.121  0.4539 -0.5787  0.6151
16844TIP3   OH271946   3.349   1.885   5.407  0.4955  0.1499 -0.7369
16844TIP3    H171947   3.333   1.941   5.331  1.2478  1.9264  0.3415
16844TIP3    H271948   3.264   1.878   5.450  0.1030 -0.7208 -1.6000
16845TIP3   OH271949   4.123   4.315   5.860 -0.6262 -0.0524  0.1321
16845TIP3    H171950   4.082   4.345   5.778  0.6648 -1.2155 -1.0009
16845TIP3    H271951   4.191   4.254   5.831  0.4812  0.2090  2.0510
16846TIP3   OH271952   5.807   2.563  14.659  0.2095 -0.2573 -0.1086
16846TIP3    H171953   5.762   2.577  14.576 -1.5718  2.4386  1.1572
16846TIP3    H271954   5.737   2.538  14.720  1.2679 -0.9459  0.8546
16847TIP3   OH271955   2.456   4.108   5.032 -0.4760 -0.0186  0.4077
16847TIP3    H171956   2.543   4.069   5.041 -0.7296 -0.4606  1.0814
16847TIP3    H271957   2.459   4.186   5.087 -0.1511  0.5993 -0.4784
16848TIP3   OH271958   0.842   5.944  12.688  0.3180  0.3423  0.1892
16848TIP3    H171959   0.850   6.037  12.665 -2.4190  0.5583 -0.2334
16848TIP3    H271960   0.773   5.943  12.755 -0.8709 -1.5021 -0.9810
16849TIP3   OH271961   6.660   4.703   1.366  0.2169  0.0229  0.0565
16849TIP3    H171962   6.609   4.784   1.378 -0.0563 -0.0937 -0.3093
16849TIP3    H271963   6.739   4.732   1.320  0.0425  0.0594 -0.2258
16850TIP3   OH271964   4.924   5.090   3.926 -0.2107 -0.1492 -0.1242
16850TIP3    H171965   4.917   5.040   4.007 -1.3231  0.7837  0.3762
16850TIP3    H271966   4.940   5.023   3.858 -0.6991 -1.0759  0.6514
16851TIP3   OH271967   6.716   1.594   2.187 -0.0012  0.3160  0.3883
16851TIP3    H171968   6.764   1.518   2.153 -1.1863 -0.1200 -0.3497
16851TIP3    H271969   6.733   1.592   2.282 -1.0670 -1.6577  0.5889
16852TIP3   OH271970   1.744   0.661  13.019  0.5032 -0.4469  0.0509
16852TIP3    H171971   1.736   0.746  13.062 -0.1700 -0.2530 -0.4507
16852TIP3    H271972   1.654   0.635  12.998  0.8239 -0.4060 -1.5027
16853TIP3   OH271973   1.624   5.893  16.825 -0.3331  0.2539 -0.1012
16853TIP3    H171974   1.668   5.823  16.777  2.1787 -0.0996  2.4504
16853TIP3    H271975   1.690   5.962  16.832 -1.8560  1.7961 -0.2251
16854TIP3   OH271976   2.578   4.427   6.063  0.3379 -0.5786  0.3365
16854TIP3    H171977   2.647   4.468   6.011  0.3280 -0.2351  0.5902
16854TIP3    H271978   2.509   4.492   6.067 -0.4986 -1.3570 -0.8993
16855TIP3   OH271979   1.758   4.069  16.476  0.0084 -0.0715  0.6712
16855TIP3    H171980   1.717   3.988  16.445 -0.1132 -0.0977  0.8968
16855TIP3    H271981   1.711   4.090  16.557 -0.6687  0.7921  0.0754
16856TIP3   OH271982   5.944   1.458   3.345  0.0220 -0.5069  0.0115
16856TIP3    H171983   5.994   1.457   3.426  0.2984  0.0116 -0.1440
16856TIP3    H271984   5.855   1.437   3.371 -0.0478  0.4238  0.5682
16857TIP3   OH271985   3.114   5.932  14.878  0.0025 -0.2678 -0.0605
16857TIP3    H171986   3.035   5.947  14.827  0.2174  0.0441 -0.3024
16857TIP3    H271987   3.083   5.921  14.968 -0.2130  1.1663  0.0646
16858TIP3   OH271988   5.499   5.981  16.887  0.3933 -0.4311  0.3094
16858TIP3    H171989   5.469   6.067  16.918 -1.8721 -0.5918 -1.1322
16858TIP3    H271990   5.494   5.924  16.964 -1.3465  0.0252  0.5838
16859TIP3   OH271991   0.307   3.282  13.892  0.1752 -0.1910  0.5315
16859TIP3    H171992   0.297   3.209  13.832 -0.1814 -0.0191  0.3783
16859TIP3    H271993   0.398   3.310  13.881  0.5400 -1.1006  1.1662
16860TIP3   OH271994   0.496   6.730   6.113  0.4316 -0.0573 -0.4678
16860TIP3    H171995   0.560   6.678   6.162 -0.8400 -1.3330 -0.1065
16860TIP3    H271996   0.469   6.798   6.174 -1.9134 -2.2469  1.0975
16861TIP3   OH271997   4.129   3.599   4.534 -0.0294  0.4433 -0.5117
16861TIP3    H171998   4.039   3.573   4.554  0.9484 -1.4945  1.8778
16861TIP3    H271999   4.136   3.590   4.439 -2.1759  0.0535 -0.6762
16862TIP3   OH272000   4.116   5.596  14.197  0.0172  0.2807  0.3731
16862TIP3    H172001   4.046   5.530  14.199 -0.7104  1.0323  0.3303
16862TIP3    H272002   4.193   5.549  14.229 -0.6735 -0.3746  1.1613
16863TIP3   OH272003   4.711   3.002   3.202 -0.5071  0.1465 -0.1466
16863TIP3    H172004   4.671   2.940   3.263  1.7763 -0.0254  1.3002
16863TIP3    H272005   4.732   3.079   3.254  2.5630 -0.4478 -0.2795
16864TIP3   OH272006   1.766   1.921   6.552  0.0419 -0.1046 -0.0597
16864TIP3    H172007   1.686   1.971   6.564  0.6563  0.9442 -0.2385
16864TIP3    H272008   1.741   1.830   6.573 -1.2633  0.1448 -0.4664
16865TIP3   OH272009   5.793   6.293   2.844  0.1598 -0.0307 -0.2070
16865TIP3    H172010   5.886   6.287   2.820 -0.3551 -1.3713 -2.0685
16865TIP3    H272011   5.767   6.380   2.815  1.2295  1.1834  2.1331
16866TIP3   OH272012   3.902   1.377   6.278 -0.4071 -0.3949 -0.2040
16866TIP3    H172013   3.937   1.459   6.313  0.0504 -0.2706 -0.9361
16866TIP3    H272014   3.967   1.348   6.213 -0.3312 -1.5766  0.3641
16867TIP3   OH272015   4.289   4.247  13.586  0.4725  0.9337  0.6174
16867TIP3    H172016   4.205   4.260  13.542  1.2590  0.5714 -1.0678
16867TIP3    H272017   4.284   4.158  13.620  0.6341  0.4339 -0.6069
16868TIP3   OH272018   0.911   3.069  12.910 -0.2990 -0.1158 -0.0645
16868TIP3    H172019   0.870   3.133  12.851  0.4297  0.9973  0.5968
16868TIP3    H272020   0.838   3.033  12.961 -0.7241  0.1370 -0.4809
16869TIP3   OH272021   2.985   1.729   2.761 -0.2045  0.1979 -0.2712
16869TIP3    H172022   2.912   1.762   2.709 -1.1107 -1.5178 -0.1293
16869TIP3    H272023   2.947   1.704   2.845  0.5659 -0.5430 -0.1205
16870TIP3   OH272024   0.888   2.497   1.746  0.2159 -0.5947 -0.4033
16870TIP3    H172025   0.865   2.456   1.829  1.5074  0.9039  0.7432
16870TIP3    H272026   0.845   2.443   1.680 -0.2725 -2.2277  1.1816
16871TIP3   OH272027   4.309   5.407   4.605 -0.0887 -0.6873  0.2104
16871TIP3    H172028   4.363   5.481   4.577 -0.9931 -0.2273 -0.3845
16871TIP3    H272029   4.359   5.365   4.675 -0.1340  1.2806  1.4917
16872TIP3   OH272030   2.953   1.865  13.249  0.3598  0.1234  1.0676
16872TIP3    H172031   3.025   1.825  13.200  0.3717  0.8540  0.4747
16872TIP3    H272032   2.877   1.813  13.226 -0.0615  1.7121 -1.4610
16873TIP3   OH272033   4.531   1.412  16.681 -0.2024  0.8547  0.5643
16873TIP3    H172034   4.476   1.336  16.697  0.7524  0.0687  0.1809
16873TIP3    H272035   4.474   1.474  16.635 -0.7626  0.0553  0.1728
16874TIP3   OH272036   2.816   6.104  15.284  0.4049 -0.8068 -0.5214
16874TIP3    H172037   2.782   6.164  15.218  1.7776  0.3562 -0.2233
16874TIP3    H272038   2.903   6.138  15.305 -0.7894  0.2560  3.5520
16875TIP3   OH272039   2.865   0.517   1.394  0.2659  0.1214 -0.6628
16875TIP3    H172040   2.810   0.531   1.316  1.1038  4.0328 -0.7813
16875TIP3    H272041   2.803   0.522   1.467 -0.0291  0.4759 -0.9315
16876TIP3   OH272042   0.851   4.311  11.587  0.0995 -0.5680 -0.3234
16876TIP3    H172043   0.822   4.399  11.564 -0.7085 -1.1438 -1.6073
16876TIP3    H272044   0.935   4.302  11.540 -1.0663 -1.3793 -2.3741
16877TIP3   OH272045   2.756   5.010   0.235 -0.6665 -0.0222 -0.3156
16877TIP3    H172046   2.833   5.056   0.269 -0.4182 -0.5263 -0.1869
16877TIP3    H272047   2.693   5.080   0.217  0.6863  0.6994 -2.7591
16878TIP3   OH272048   1.256   6.750   4.580  0.1374 -0.2012 -0.1257
16878TIP3    H172049   1.313   6.824   4.563 -1.0085  0.8939  0.6272
16878TIP3    H272050   1.299   6.701   4.650  0.0164  0.8053  0.6764
16879TIP3   OH272051   3.243   2.300   3.536 -0.0412  0.4332 -0.4038
16879TIP3    H172052   3.273   2.214   3.506 -1.7860  0.6485 -3.1907
16879TIP3    H272053   3.208   2.284   3.624  0.6805 -1.4684 -0.4113
16880TIP3   OH272054   3.063   6.055  17.191  0.9856 -0.9760  0.1409
16880TIP3    H172055   3.041   6.059  17.098 -2.3982  0.8809  0.8335
16880TIP3    H272056   3.143   6.107  17.199  0.4733  0.1884 -1.5871
16881TIP3   OH272057   2.566   6.578   3.767  0.9356 -0.1882 -0.3285
16881TIP3    H172058   2.608   6.645   3.821  1.0180  0.4003 -1.1084
16881TIP3    H272059   2.486   6.554   3.814  0.1755  1.4757 -0.7210
16882TIP3   OH272060   2.519   3.711   3.121 -0.2488 -0.4295 -0.5040
16882TIP3    H172061   2.529   3.666   3.037 -0.6492  0.1018 -0.8371
16882TIP3    H272062   2.589   3.777   3.121 -0.0332 -0.6519 -0.2661
16883TIP3   OH272063   1.578   4.632  13.390  0.1240  0.1400  0.1847
16883TIP3    H172064   1.531   4.601  13.468  0.5626 -1.4464 -0.1569
16883TIP3    H272065   1.527   4.599  13.316  0.5477  0.3233 -0.1935
16884TIP3   OH272066   1.285   0.022   0.478 -0.0981 -0.0518 -0.2127
16884TIP3    H172067   1.231   0.061   0.548 -0.4589  0.1087 -0.5752
16884TIP3    H272068   1.306  -0.065   0.510 -0.9083 -0.2640 -0.2309
16885TIP3   OH272069   2.016   0.040  12.101  0.5143 -0.4465 -0.4090
16885TIP3    H172070   1.979   0.124  12.076 -2.2679 -1.5768 -0.4806
16885TIP3    H272071   2.035  -0.004  12.018  1.5004 -0.1009 -0.3760
16886TIP3   OH272072   0.860   3.082   5.515 -0.0952  0.3269  0.7280
16886TIP3    H172073   0.833   3.009   5.571 -1.6420  0.4326  0.1599
16886TIP3    H272074   0.797   3.151   5.532 -0.4566  0.4569 -0.9311
16887TIP3   OH272075   0.518   4.469   4.419  0.2008  0.2694 -0.1367
16887TIP3    H172076   0.550   4.438   4.334  0.0070  1.3266 -0.6098
16887TIP3    H272077   0.423   4.476   4.407  0.2388  1.0004 -0.0292
16888TIP3   OH272078   3.990   6.131  17.079 -0.3360  0.1087 -0.6556
16888TIP3    H172079   4.061   6.073  17.105 -0.1565  0.4722 -0.3194
16888TIP3    H272080   3.989   6.126  16.983 -1.4356 -1.7541 -0.5975
16889TIP3   OH272081   0.083   1.143   1.275 -0.0189 -0.0942  0.2126
16889TIP3    H172082   0.050   1.226   1.308 -0.8582  0.0974 -1.0174
16889TIP3    H272083   0.036   1.076   1.324  0.6424  0.1438  1.1910
16890TIP3   OH272084   2.871   4.801  12.667 -0.1880  0.1786 -0.2626
16890TIP3    H172085   2.880   4.896  12.663  1.5130  0.1081  0.8271
16890TIP3    H272086   2.783   4.787  12.701 -0.3703  1.3843 -0.1828
16891TIP3   OH272087   3.455   6.334   1.539  0.0920  0.2861  0.0832
16891TIP3    H172088   3.493   6.280   1.470  2.2564  1.0245  0.6406
16891TIP3    H272089   3.446   6.420   1.500 -1.9864 -0.0616 -0.3338
16892TIP3   OH272090   1.558   4.909  11.963 -0.5573 -0.0403  0.2315
16892TIP3    H172091   1.585   4.934  11.875 -0.9158 -2.0468 -0.5035
16892TIP3    H272092   1.636   4.871  12.002  0.1570  2.5102  1.5590
16893TIP3   OH272093   2.384   2.358   2.508 -0.2258  0.0261  0.2018
16893TIP3    H172094   2.394   2.424   2.577  1.8446 -1.1849  1.1452
16893TIP3    H272095   2.472   2.321   2.498 -0.3929  0.2823 -3.2455
16894TIP3   OH272096   5.571   3.320   0.550 -0.1258  0.0195 -0.0250
16894TIP3    H172097   5.539   3.235   0.517 -0.7928  0.4018 -0.3822
16894TIP3    H272098   5.648   3.339   0.495  1.4575 -1.4330  1.5684
16895TIP3   OH272099   5.382   5.707  11.774  0.3185  0.3019 -0.0203
16895TIP3    H172100   5.404   5.614  11.775 -0.6101  0.0721 -0.1992
16895TIP3    H272101   5.287   5.709  11.772  0.3263  1.2657  0.2605
16896TIP3   OH272102   4.911   4.733  14.315 -0.2354 -0.2166  0.0642
16896TIP3    H172103   5.004   4.757  14.315  0.1706 -1.6594 -0.5249
16896TIP3    H272104   4.876   4.774  14.236 -0.0613  0.2034  0.2037
16897TIP3   OH272105   4.736   4.691   4.532  0.2654 -0.3307 -0.2734
16897TIP3    H172106   4.707   4.754   4.466  1.9980 -0.2668 -1.0311
16897TIP3    H272107   4.670   4.696   4.600 -0.5965  0.9847 -1.1516
16898TIP3   OH272108   4.345   0.891   5.258  0.5584  0.0113  0.2604
16898TIP3    H172109   4.310   0.895   5.347  0.1610  1.7656  0.0490
16898TIP3    H272110   4.406   0.964   5.252 -0.6839  1.0027 -1.4043
16899TIP3   OH272111   4.010   2.186  12.063 -0.0814  0.1480 -0.0549
16899TIP3    H172112   4.095   2.143  12.072 -0.8478 -1.0826  2.0398
16899TIP3    H272113   3.955   2.121  12.020 -0.4789  0.1321  0.4638
16900TIP3   OH272114   6.465   0.557   6.782 -0.5405  0.1976 -0.2839
16900TIP3    H172115   6.478   0.483   6.842  1.0763 -1.0341 -2.0550
16900TIP3    H272116   6.377   0.543   6.747  0.4207 -2.0477 -2.0065
16901TIP3   OH272117   2.601   3.791  16.230 -0.5577 -0.6969  0.2911
16901TIP3    H172118   2.656   3.712  16.228 -1.2474 -1.2167  1.0629
16901TIP3    H272119   2.571   3.796  16.321 -0.3325  0.5970  0.3076
16902TIP3   OH272120   6.713   0.560  12.760 -0.0538  0.6238  0.3440
16902TIP3    H172121   6.724   0.616  12.837 -0.2325  0.4736  0.4804
16902TIP3    H272122   6.800   0.523  12.745 -0.4282 -0.9321  1.6965
16903TIP3   OH272123   1.640   5.044  14.776  0.0066 -0.5793  0.2053
16903TIP3    H172124   1.627   5.013  14.686 -0.8963  2.7651 -0.9742
16903TIP3    H272125   1.556   5.082  14.800  1.3203  2.1567  0.8671
16904TIP3   OH272126   0.956   1.033   4.744  0.1274 -0.1273  0.5276
16904TIP3    H172127   0.881   1.028   4.803  0.9038 -2.2068  1.4584
16904TIP3    H272128   1.014   0.962   4.774  1.0394 -0.5852 -2.0911
16905TIP3   OH272129   6.433   5.246  14.180  0.0359 -0.3544  0.4010
16905TIP3    H172130   6.406   5.267  14.269 -2.6425 -1.5038 -0.0599
16905TIP3    H272131   6.395   5.316  14.126  1.5568  0.2806  0.0805
16906TIP3   OH272132   3.440   6.552  16.904  0.6644 -0.4467  0.0333
16906TIP3    H172133   3.494   6.488  16.951  0.6544 -0.1274  0.4800
16906TIP3    H272134   3.413   6.506  16.824 -0.1788 -1.3765  0.8223
16907TIP3   OH272135   2.912   2.327  10.943  0.2556 -0.1529 -0.1611
16907TIP3    H172136   2.991   2.378  10.924  2.5624 -2.5827  2.0086
16907TIP3    H272137   2.901   2.270  10.867  0.0956  0.7397 -0.8152
16908TIP3   OH272138   3.643   5.438   0.134  0.2950 -0.0552  0.7696
16908TIP3    H172139   3.688   5.459   0.215 -0.5067  0.1041  1.1859
16908TIP3    H272140   3.712   5.410   0.074  0.6770 -2.5552  2.2572
16909TIP3   OH272141   2.339   0.944   4.396 -0.2978 -0.0397 -0.2073
16909TIP3    H172142   2.313   0.854   4.380 -0.8932  0.0385  0.2931
16909TIP3    H272143   2.394   0.967   4.321  1.0701 -1.2772  0.3614
16910TIP3   OH272144   4.196   0.382  15.247 -0.0375 -0.0781  0.5968
16910TIP3    H172145   4.268   0.416  15.193 -1.1338  0.4146 -0.6233
16910TIP3    H272146   4.121   0.381  15.188 -1.5776  1.5112  2.3858
16911TIP3   OH272147   2.064   4.765   3.943 -0.0033  0.3673  0.1982
16911TIP3    H172148   2.056   4.791   3.851  1.1142  2.2515  0.5633
16911TIP3    H272149   2.103   4.841   3.985 -1.6895  0.0689  2.5103
16912TIP3   OH272150   2.618   3.656  15.550  0.3027  0.2151 -0.3222
16912TIP3    H172151   2.584   3.569  15.568  0.9746 -0.4609 -2.0835
16912TIP3    H272152   2.541   3.712  15.548 -0.0615 -0.1128  1.7138
16913TIP3   OH272153   4.677   6.347   0.092  0.1823  0.0333  0.7834
16913TIP3    H172154   4.659   6.369   0.184 -0.3580  0.6738  0.5337
16913TIP3    H272155   4.591   6.344   0.051  0.4134 -0.3857  0.3213
16914TIP3   OH272156   6.449   2.701   2.506  0.3247  0.3187 -0.3430
16914TIP3    H172157   6.482   2.615   2.481 -0.4754 -0.0911 -0.0099
16914TIP3    H272158   6.415   2.689   2.595 -2.7449  0.1383 -1.4324
16915TIP3   OH272159   2.011   2.409   5.588 -0.0297  0.2248 -0.6884
16915TIP3    H172160   2.022   2.314   5.585  0.2276  0.1173  1.7587
16915TIP3    H272161   2.071   2.438   5.657 -2.9970  1.6339  1.5253
16916TIP3   OH272162   0.307   4.185  15.434  0.2126 -0.0545 -0.0244
16916TIP3    H172163   0.299   4.090  15.446 -0.6410  0.0507  0.3000
16916TIP3    H272164   0.224   4.211  15.395  1.4139  0.1884 -2.6658
16917TIP3   OH272165   2.333   4.339  14.942  0.4449 -0.1995 -0.2566
16917TIP3    H172166   2.272   4.328  15.015  1.4595 -1.5022  0.4258
16917TIP3    H272167   2.409   4.384  14.979 -0.1202  1.6061 -1.1482
16918TIP3   OH272168   1.385   0.693  11.210  0.3290  0.3152 -0.0207
16918TIP3    H172169   1.352   0.603  11.204  1.7608 -0.2086 -0.5196
16918TIP3    H272170   1.474   0.688  11.173  0.2231  2.0447 -0.5715
16919TIP3   OH272171   1.125   5.295  10.560 -0.1013  0.5705  0.1373
16919TIP3    H172172   1.039   5.296  10.518  0.7059  0.2380 -1.6123
16919TIP3    H272173   1.145   5.387  10.577 -1.4106  0.5671  1.9656
16920TIP3   OH272174   3.453   3.319   1.473  0.0191 -1.2034 -0.2979
16920TIP3    H172175   3.435   3.406   1.438  0.7426 -0.8358  0.2063
16920TIP3    H272176   3.549   3.315   1.479 -0.0594 -1.2632  1.5549
16921TIP3   OH272177   6.670   3.580  13.272 -0.5245 -0.1168 -0.2627
16921TIP3    H172178   6.730   3.548  13.205 -0.3381 -0.1307 -0.0917
16921TIP3    H272179   6.606   3.634  13.225 -0.1994  0.1455 -0.4032
16922TIP3   OH272180   5.535   1.355  13.291 -0.2354 -0.2840 -0.0830
16922TIP3    H172181   5.561   1.323  13.204  0.9631 -1.4066  0.6528
16922TIP3    H272182   5.453   1.309  13.310  0.4223 -1.4186  0.1077
16923TIP3   OH272183   6.000   1.258   3.107  0.1432 -0.2993  0.2410
16923TIP3    H172184   6.075   1.226   3.158 -1.2757 -1.4991  1.6671
16923TIP3    H272185   5.975   1.339   3.151  1.3062  0.7919 -0.9965
16924TIP3   OH272186   1.804   5.173  11.354 -0.2409  0.1206 -0.1986
16924TIP3    H172187   1.794   5.137  11.266 -2.0544 -0.4246  0.1865
16924TIP3    H272188   1.822   5.266  11.340  0.3485 -0.1246 -1.1482
16925TIP3   OH272189   2.565   3.890   3.942 -0.5935  0.4773  0.3823
16925TIP3    H172190   2.598   3.809   3.905  1.8361  0.7752  1.6611
16925TIP3    H272191   2.616   3.902   4.023 -2.3178  2.2236  1.3029
16926TIP3   OH272192   5.632   3.037  11.063 -0.1426  0.2306  0.0213
16926TIP3    H172193   5.697   3.073  11.002  1.1145 -2.7292 -0.5631
16926TIP3    H272194   5.553   3.026  11.009  0.4838 -0.9261 -0.6878
16927TIP3   OH272195   5.534   1.623   5.949 -0.8112  0.2369  0.1488
16927TIP3    H172196   5.560   1.715   5.945 -0.2443  0.1268  1.1813
16927TIP3    H272197   5.456   1.623   6.004 -0.5445  0.0449  0.5275
16928TIP3   OH272198   1.497   0.690  17.032 -0.2026 -0.0475 -0.4475
16928TIP3    H172199   1.489   0.599  17.059 -1.8087 -0.0529 -0.8628
16928TIP3    H272200   1.468   0.741  17.107  0.0606  0.1146 -0.4518
16929TIP3   OH272201   2.310   1.332  15.622 -0.0854 -0.2226  0.2513
16929TIP3    H172202   2.341   1.321  15.712 -0.4329  0.0282  0.4009
16929TIP3    H272203   2.327   1.423  15.601  1.5932 -0.6876 -0.5475
16930TIP3   OH272204   4.367   2.806   5.556  0.4378  0.2078  0.2794
16930TIP3    H172205   4.458   2.795   5.528  0.6363 -1.9626  1.5249
16930TIP3    H272206   4.369   2.880   5.616  1.4794 -0.0531  0.5942
16931TIP3   OH272207   5.391   3.577   4.574  0.3182 -0.3359 -0.8912
16931TIP3    H172208   5.414   3.668   4.558  0.7841 -0.3487 -0.3262
16931TIP3    H272209   5.296   3.574   4.563  0.4044  0.0291 -1.7689
16932TIP3   OH272210   6.037   5.258   5.657 -0.3914  0.1099  0.1551
16932TIP3    H172211   6.090   5.216   5.589 -0.5594  1.5261 -0.8898
16932TIP3    H272212   6.001   5.336   5.615  1.5944  2.5029  2.5400
16933TIP3   OH272213   0.928   5.870  12.255  0.5845 -0.4128  0.4849
16933TIP3    H172214   1.021   5.855  12.239  0.2597 -1.8635 -0.1634
16933TIP3    H272215   0.902   5.801  12.315  0.2151  0.8337  1.8115
16934TIP3   OH272216   4.593   2.298   5.264 -0.2291  0.3295 -0.3509
16934TIP3    H172217   4.655   2.370   5.280 -1.1623  1.1771 -0.4430
16934TIP3    H272218   4.509   2.331   5.296 -0.4038 -1.3002  0.9863
16935TIP3   OH272219   3.391   1.778  16.573  0.7083 -0.5959 -0.1039
16935TIP3    H172220   3.480   1.814  16.568 -0.4778  2.8580  0.6762
16935TIP3    H272221   3.365   1.766  16.482  1.5942 -0.5138 -0.3780
16936TIP3   OH272222   1.654   0.617   2.755  0.1647  0.5263 -0.2114
16936TIP3    H172223   1.639   0.665   2.837 -0.7139  1.0274 -0.6489
16936TIP3    H272224   1.692   0.534   2.783 -1.0984  0.2548  0.8094
16937TIP3   OH272225   5.916   1.856  13.352  0.1080 -0.3028  1.1374
16937TIP3    H172226   5.825   1.836  13.332  0.0601  1.2132 -0.4234
16937TIP3    H272227   5.913   1.941  13.395  0.7855 -0.1514  0.9009
16938TIP3   OH272228   5.351   2.689  15.455  0.0976 -0.4711  0.4474
16938TIP3    H172229   5.282   2.647  15.404 -1.7059 -0.1566  2.4684
16938TIP3    H272230   5.417   2.620  15.468 -0.2442 -1.0519 -0.7914
16939TIP3   OH272231   4.842   3.689  14.370 -0.3992  0.1444  0.5116
16939TIP3    H172232   4.813   3.606  14.332  1.3287 -0.3789  0.2379
16939TIP3    H272233   4.905   3.664  14.437  1.2820  1.2317 -0.5784
16940TIP3   OH272234   5.313   4.705  16.240  0.4133  0.6028 -0.7592
16940TIP3    H172235   5.328   4.777  16.179 -0.0529 -0.2392 -1.9022
16940TIP3    H272236   5.229   4.726  16.282 -0.0804  0.3838 -1.6155
16941TIP3   OH272237   5.856   2.566   4.697 -0.0558  0.1983  0.9335
16941TIP3    H172238   5.876   2.656   4.721  1.8143  0.7058 -2.0143
16941TIP3    H272239   5.763   2.567   4.673  0.4271  1.9329 -1.1460
16942TIP3   OH272240   0.971   5.967   1.975 -1.1308 -0.1159  0.1622
16942TIP3    H172241   0.932   6.011   2.050  1.8830 -0.3623  2.0457
16942TIP3    H272242   1.027   5.899   2.013 -0.7658 -1.4014 -2.4099
16943TIP3   OH272243   4.854   0.786   5.872 -0.1830  0.6732  0.1480
16943TIP3    H172244   4.819   0.738   5.797 -0.8591  0.9737  0.2660
16943TIP3    H272245   4.919   0.727   5.909 -0.7075  0.0114  0.0438
16944TIP3   OH272246   2.349   2.586   4.503  0.6479 -0.5057 -0.0019
16944TIP3    H172247   2.372   2.496   4.528 -0.2063 -0.4327  1.1555
16944TIP3    H272248   2.330   2.581   4.410  1.8893 -1.2503 -0.2410
16945TIP3   OH272249   6.001   5.404  12.823  0.5305  0.5367  0.4905
16945TIP3    H172250   5.947   5.466  12.872 -0.8551 -0.1853 -0.0618
16945TIP3    H272251   5.972   5.415  12.732 -1.1485 -2.1724  0.5715
16946TIP3   OH272252   4.813   3.852  12.040 -0.5900 -0.0967 -0.9089
16946TIP3    H172253   4.854   3.796  12.106  0.0069  1.6433  0.2744
16946TIP3    H272254   4.725   3.816  12.030  0.2714 -2.2059 -1.4192
16947TIP3   OH272255   2.269   6.254  16.562 -0.4814  0.3527  0.0614
16947TIP3    H172256   2.353   6.282  16.526 -0.1952 -0.7420 -0.1774
16947TIP3    H272257   2.228   6.334  16.595  0.1833  1.0619 -0.7924
16948TIP3   OH272258   2.958   4.207   4.632 -0.1141  0.4135 -0.7282
16948TIP3    H172259   3.050   4.216   4.653  0.3355  0.7059 -2.6041
16948TIP3    H272260   2.957   4.157   4.550 -1.5569  1.1633 -1.2086
16949TIP3   OH272261   4.408   6.115  16.969 -0.0194  0.6825 -0.1519
16949TIP3    H172262   4.338   6.098  17.032  0.3821 -2.5574 -0.4084
16949TIP3    H272263   4.487   6.080  17.011  0.4535 -0.5117 -1.9333
16950TIP3   OH272264   2.205   2.183  13.624 -0.3291 -0.3733 -0.0657
16950TIP3    H172265   2.300   2.176  13.631 -0.2516 -0.3696 -1.0306
16950TIP3    H272266   2.182   2.127  13.550 -0.7954  1.4688 -1.3913
16951TIP3   OH272267   4.264   5.048   5.019  1.2226 -1.1042 -0.0707
16951TIP3    H172268   4.325   5.052   4.944  1.7541 -0.6011  0.3813
16951TIP3    H272269   4.311   5.090   5.090  0.4449 -0.9712  0.3719
16952TIP3   OH272270   0.113   6.742   0.816  0.1084 -0.4472  0.2936
16952TIP3    H172271   0.112   6.700   0.902 -0.5332 -0.0039  0.5157
16952TIP3    H272272   0.065   6.682   0.759  0.0999 -0.5045  0.3615
16953TIP3   OH272273   4.077   2.061  13.362 -0.2104  0.3070  0.5137
16953TIP3    H172274   4.105   2.100  13.279  0.1287 -1.8949 -0.4931
16953TIP3    H272275   4.006   2.117  13.392 -0.7152  0.8868 -1.5741
16954TIP3   OH272276   1.687   3.854  14.039 -0.3710  0.0616  0.3325
16954TIP3    H172277   1.656   3.850  13.949  2.9959  1.0697 -1.0376
16954TIP3    H272278   1.706   3.763  14.062  1.2836 -0.0082 -1.0769
16955TIP3   OH272279   5.324   5.294   2.724  0.2798  0.0798  0.1819
16955TIP3    H172280   5.389   5.231   2.756  0.5293  0.1300 -0.2146
16955TIP3    H272281   5.255   5.294   2.790  0.3898 -0.4389  0.2954
16956TIP3   OH272282   2.925   2.625   1.976  0.2061 -0.2085 -0.5515
16956TIP3    H172283   2.997   2.562   1.985  0.9079  0.8422  2.8650
16956TIP3    H272284   2.860   2.595   2.040 -0.1718  1.5379 -0.0721
16957TIP3   OH272285   1.441   4.714  11.564 -0.7844 -0.8695 -0.2394
16957TIP3    H172286   1.442   4.736  11.470 -0.8264  0.5268  0.0599
16957TIP3    H272287   1.352   4.732  11.592 -0.7777 -1.3088  0.0758
16958TIP3   OH272288   1.799   1.893  12.986 -0.0200  0.5492  0.3686
16958TIP3    H172289   1.734   1.825  13.002  1.0821 -0.3481  1.2814
16958TIP3    H272290   1.800   1.903  12.890  1.9528 -3.0697 -0.1999
16959TIP3   OH272291   0.333   1.500   0.995 -0.2506 -0.4192  0.5105
16959TIP3    H172292   0.388   1.472   0.922  0.6345  0.9298  0.6399
16959TIP3    H272293   0.246   1.463   0.975  0.2620 -1.0795 -0.5930
16960TIP3   OH272294   2.486   2.248  12.782  0.0736  0.0261  0.3462
16960TIP3    H172295   2.494   2.159  12.747  0.8640  0.2413 -0.0227
16960TIP3    H272296   2.576   2.280  12.789 -0.2691  1.3531 -0.9219
16961TIP3   OH272297   1.418   1.251   6.029  0.2977 -0.2604 -0.2470
16961TIP3    H172298   1.495   1.199   6.007  1.3280  1.3347 -0.6099
16961TIP3    H272299   1.378   1.206   6.104  0.5050 -2.1280 -1.2064
16962TIP3   OH272300   4.717   3.582  11.107 -0.2205 -0.6691  0.3968
16962TIP3    H172301   4.735   3.585  11.013 -0.2534 -2.3453  0.3141
16962TIP3    H272302   4.797   3.614  11.147 -1.0266  2.4569 -0.1967
16963TIP3   OH272303   2.322   3.306   0.419  1.5911  0.6909  0.4729
16963TIP3    H172304   2.287   3.344   0.338  0.8195  0.8942  0.8899
16963TIP3    H272305   2.414   3.289   0.399  0.7170 -2.4654 -1.6154
16964TIP3   OH272306   4.801   3.734  17.031  0.9211 -0.0386 -0.2919
16964TIP3    H172307   4.804   3.795  16.958  1.6134 -0.0139 -0.2469
16964TIP3    H272308   4.762   3.784  17.103  0.4934  0.0182 -0.5583
16965TIP3   OH272309   6.359   6.561   4.988  0.2115 -0.5069  0.1757
16965TIP3    H172310   6.392   6.496   4.926 -1.8536  0.8376 -2.5467
16965TIP3    H272311   6.416   6.636   4.977 -0.1354 -0.2776 -0.0657
16966TIP3   OH272312   6.464   3.408   1.787  0.3172  0.1518  0.3318
16966TIP3    H172313   6.441   3.340   1.850 -0.3396  0.1203  0.0617
16966TIP3    H272314   6.413   3.484   1.813 -2.6907 -0.8003 -2.1052
16967TIP3   OH272315   3.466   4.155  16.453 -0.3706  0.5773  0.4346
16967TIP3    H172316   3.475   4.178  16.360  0.4050 -0.4794  0.2259
16967TIP3    H272317   3.501   4.230  16.500 -1.1873  1.3196 -0.1068
16968TIP3   OH272318   3.934   2.746   5.747  0.1761  0.4575 -0.0116
16968TIP3    H172319   3.909   2.657   5.773  1.0591 -0.0163 -0.7311
16968TIP3    H272320   4.029   2.750   5.763  0.0663  1.4263  0.4516
16969TIP3   OH272321   6.142   1.955  13.578 -0.0923 -0.0722 -0.7399
16969TIP3    H172322   6.187   2.010  13.514 -1.0358 -0.3339 -1.6503
16969TIP3    H272323   6.065   2.005  13.604 -0.0637 -0.2517 -0.2894
16970TIP3   OH272324   2.723   2.263  12.053  0.3400 -0.2835 -0.0705
16970TIP3    H172325   2.684   2.289  12.136 -1.0839 -1.4161 -0.3414
16970TIP3    H272326   2.784   2.193  12.076  0.9901  0.3410  0.1568
16971TIP3   OH272327   6.648   2.439   1.590  0.0164 -0.2601  0.0910
16971TIP3    H172328   6.635   2.530   1.616  0.8052 -0.4980  1.3837
16971TIP3    H272329   6.643   2.440   1.494 -1.6928  0.8566  0.1543
16972TIP3   OH272330   0.821   1.859  16.496  0.5595  0.1311  0.8049
16972TIP3    H172331   0.844   1.824  16.582  0.5698  1.1901  1.2510
16972TIP3    H272332   0.852   1.949  16.498  2.0843 -0.2894 -0.9183
16973TIP3   OH272333   1.777   0.967   2.992  0.4655  0.6015 -0.4527
16973TIP3    H172334   1.840   0.896   3.007  1.0556  1.0299 -0.8255
16973TIP3    H272335   1.709   0.953   3.057  1.8371  1.1535  1.1907
16974TIP3   OH272336   4.970   0.851  14.510 -0.2618  0.0143 -0.1266
16974TIP3    H172337   5.047   0.794  14.512 -0.7923 -0.6853  1.5267
16974TIP3    H272338   4.996   0.923  14.451  1.9067  0.1358  0.8782
16975TIP3   OH272339   0.189   6.761  15.683  0.0692  0.1994  0.2830
16975TIP3    H172340   0.136   6.841  15.679 -0.1520  0.1237  1.3140
16975TIP3    H272341   0.270   6.787  15.727  0.4087  0.0668 -0.2590
16976TIP3   OH272342   0.344   2.524   6.031  0.1277  0.1546 -0.3531
16976TIP3    H172343   0.255   2.487   6.031 -0.5674  1.5294  2.5476
16976TIP3    H272344   0.342   2.591   5.963 -0.7117 -0.4871 -0.9992
16977TIP3   OH272345   4.036   3.261  12.788  0.0809 -0.6192  0.5658
16977TIP3    H172346   3.953   3.251  12.834  1.1084 -1.2276  2.4123
16977TIP3    H272347   4.028   3.204  12.711 -1.4001 -0.2005  0.3861
16978TIP3   OH272348   1.969   5.687  14.430 -0.3329  0.3781 -0.3010
16978TIP3    H172349   1.947   5.777  14.405 -0.7847  0.6071  0.8714
16978TIP3    H272350   1.885   5.640  14.425  0.2404 -0.5397 -3.0200
16979TIP3   OH272351   4.919   0.459   0.348 -0.1817 -0.1179 -0.2701
16979TIP3    H172352   4.966   0.379   0.372 -0.2755 -0.3368 -0.8020
16979TIP3    H272353   4.948   0.478   0.259 -2.2196 -1.1048 -1.1987
16980TIP3   OH272354   5.669   1.385   1.506 -0.3747 -0.5530 -0.0016
16980TIP3    H172355   5.754   1.365   1.546 -1.0037 -0.0250  1.7077
16980TIP3    H272356   5.690   1.443   1.433  0.6950  0.0114  0.7277
16981TIP3   OH272357   2.869   1.847   3.317 -0.4097  0.0732  0.0405
16981TIP3    H172358   2.873   1.928   3.265  0.7000  0.8151  1.2093
16981TIP3    H272359   2.813   1.870   3.391  1.1325  0.2968  1.1818
16982TIP3   OH272360   3.702   1.439  12.362 -0.1404  0.0270 -0.1518
16982TIP3    H172361   3.673   1.388  12.286  0.6008  0.6182 -0.8502
16982TIP3    H272362   3.760   1.506  12.325  0.6823 -0.0200  1.0014
16983TIP3   OH272363   2.195   5.080   2.371 -0.2997 -0.6393 -0.1706
16983TIP3    H172364   2.221   5.114   2.457 -1.1650  1.6861 -0.7631
16983TIP3    H272365   2.253   5.005   2.357  1.2085  0.1155  1.5885
16984TIP3   OH272366   3.029   1.197  15.799  0.4262 -0.3662 -0.0102
16984TIP3    H172367   2.947   1.228  15.837 -0.0606 -1.5072 -0.1016
16984TIP3    H272368   3.092   1.267  15.818 -0.7615  0.9422 -0.7489
16985TIP3   OH272369   0.090   1.876  16.050 -0.3570  0.0684 -0.0006
16985TIP3    H172370   0.166   1.874  16.107 -0.3262 -1.2447 -0.0461
16985TIP3    H272371   0.125   1.858  15.963 -0.4422  1.7677 -0.4074
16986TIP3   OH272372   4.299   1.722   3.164  0.1489  0.0581 -0.1828
16986TIP3    H172373   4.220   1.745   3.212 -0.5260  1.2433 -1.7849
16986TIP3    H272374   4.268   1.696   3.077  1.5347  1.2979 -1.0982
16987TIP3   OH272375   0.193   0.376  16.997  0.3028 -0.5678  0.0688
16987TIP3    H172376   0.261   0.397  17.061  1.2696 -0.4621 -0.9578
16987TIP3    H272377   0.119   0.432  17.020  1.7431  1.8330 -0.7695
16988TIP3   OH272378   6.000   5.923   3.778  0.4621  0.0452  0.5796
16988TIP3    H172379   6.037   5.973   3.852 -0.0444  0.9252  0.2473
16988TIP3    H272380   5.988   5.988   3.709 -4.3396  0.5344  1.5412
16989TIP3   OH272381   5.217   4.000   4.408 -0.2466  0.6965  0.5258
16989TIP3    H172382   5.148   3.997   4.474  0.3064 -0.1803  1.0761
16989TIP3    H272383   5.176   3.967   4.328 -0.7468  1.1882  0.5724
16990TIP3   OH272384   3.130   4.169  16.223  0.0825  0.7600 -0.1751
16990TIP3    H172385   3.149   4.251  16.177  0.1933  0.9744  0.2449
16990TIP3    H272386   3.065   4.193  16.289 -0.5306  0.3329 -0.6123
16991TIP3   OH272387   4.876   3.850  14.137  0.4306  0.1139  0.5706
16991TIP3    H172388   4.937   3.803  14.080  1.0146 -0.2099  1.4363
16991TIP3    H272389   4.878   3.801  14.219 -0.9647  0.1290  0.6368
16992TIP3   OH272390   0.929   2.851  12.086  0.2072 -0.4229  0.0624
16992TIP3    H172391   0.845   2.897  12.086 -0.0687 -0.8901 -1.2080
16992TIP3    H272392   0.984   2.902  12.146 -0.6786  0.4465  0.1679
16993TIP3   OH272393   0.630   4.660   2.300  0.1818  0.1752  0.4422
16993TIP3    H172394   0.672   4.578   2.273 -0.0429 -0.6484  2.4034
16993TIP3    H272395   0.544   4.632   2.333 -0.7085  1.4663 -0.6705
16994TIP3   OH272396   0.732   2.538   3.082 -0.0484 -0.0120 -0.4636
16994TIP3    H172397   0.692   2.497   3.005  0.0338  1.2792 -1.2344
16994TIP3    H272398   0.798   2.597   3.046 -1.2696  2.0537  0.4289
16995TIP3   OH272399   5.623   6.549  13.023 -0.1318  0.6007  0.2742
16995TIP3    H172400   5.596   6.544  12.931 -0.7591  0.2106  0.4716
16995TIP3    H272401   5.542   6.569  13.070 -0.2851 -1.3976  0.9680
16996TIP3   OH272402   4.149   6.481  14.849  0.0498  1.0587 -0.3041
16996TIP3    H172403   4.129   6.388  14.859  0.1275  0.9695 -0.9565
16996TIP3    H272404   4.179   6.509  14.936  2.0336 -0.0024 -0.5991
16997TIP3   OH272405   0.003   5.076  15.123 -0.0110  0.0862  0.0228
16997TIP3    H172406  -0.060   5.072  15.051 -0.1103 -1.0168  0.1550
16997TIP3    H272407  -0.030   5.013  15.187  0.2546  0.8098  0.9020
16998TIP3   OH272408   5.329   0.178   6.437  0.1035 -0.2616  0.0999
16998TIP3    H172409   5.353   0.243   6.503 -0.5576  0.0200  0.0773
16998TIP3    H272410   5.408   0.127   6.423  0.6333  0.5294  0.1359
16999TIP3   OH272411   3.863   2.890  14.928  0.3186 -0.0067 -0.0671
16999TIP3    H172412   3.930   2.822  14.936  2.5989  1.9321 -1.2769
16999TIP3    H272413   3.877   2.946  15.004 -0.2797  0.1600 -0.0722
17000TIP3   OH272414   2.132   4.262  14.171 -0.4453 -0.8463 -0.3674
17000TIP3    H172415   2.094   4.286  14.255  0.3255 -0.5602 -0.0947
17000TIP3    H272416   2.226   4.271  14.183 -0.1761 -2.8337 -0.6195
17001TIP3   OH272417   4.297   1.475   0.797 -0.1000 -0.3659  0.1028
17001TIP3    H172418   4.340   1.398   0.834 -2.2014 -1.3802  0.5789
17001TIP3    H272419   4.277   1.530   0.873 -0.2369 -0.2319 -0.0297
17002TIP3   OH272420   4.015   2.244   1.821 -0.0715 -0.2629 -0.2692
17002TIP3    H172421   4.010   2.227   1.915  1.8990  2.0026  0.3293
17002TIP3    H272422   4.094   2.199   1.792 -0.1819 -0.2011 -0.6792
17003TIP3   OH272423   5.584   6.253   0.276 -0.0914 -0.3642  0.3084
17003TIP3    H172424   5.632   6.238   0.358  0.4452 -1.2451 -0.1394
17003TIP3    H272425   5.560   6.345   0.278 -1.0100 -0.5922  1.9383
17004TIP3   OH272426   4.168   0.922   0.590  0.3792  0.4911 -0.3761
17004TIP3    H172427   4.162   0.836   0.549  0.8278 -0.2386  1.0406
17004TIP3    H272428   4.138   0.983   0.522 -0.8039 -0.8545 -1.1026
17005TIP3   OH272429   3.714   4.981   4.033 -0.2510  0.4645 -0.2444
17005TIP3    H172430   3.640   5.037   4.010 -1.3155 -1.1216 -0.8820
17005TIP3    H272431   3.777   5.039   4.076 -3.1530  1.3590  3.2530
17006TIP3   OH272432   1.721   3.145  11.748  0.4867  0.3943 -0.2448
17006TIP3    H172433   1.724   3.050  11.754 -0.3718  0.2249 -1.9608
17006TIP3    H272434   1.629   3.168  11.756  0.6366  1.0575 -0.3085
17007TIP3   OH272435   3.341   4.729  12.203  0.0117 -0.4476 -0.4612
17007TIP3    H172436   3.259   4.691  12.173  0.1613  0.4964 -2.1870
17007TIP3    H272437   3.328   4.823  12.196  1.0103 -0.2696 -0.1128
17008TIP3   OH272438   2.074   1.796  13.507  0.0280  0.6469  0.5305
17008TIP3    H172439   2.144   1.783  13.571 -1.1147  2.1815  2.2016
17008TIP3    H272440   1.996   1.758  13.547 -0.2587 -0.5624 -1.0695
17009TIP3   OH272441   5.057   1.729  12.999  0.9069 -0.0066  0.2013
17009TIP3    H172442   5.053   1.657  12.935 -0.1740 -1.4205  1.7751
17009TIP3    H272443   5.150   1.734  13.024  0.8633 -1.5207  0.7520
17010TIP3   OH272444   1.772   6.047   0.709  0.2183  0.1363 -0.1232
17010TIP3    H172445   1.781   6.017   0.799  1.1140 -0.3650 -0.3600
17010TIP3    H272446   1.841   6.001   0.661 -0.8660 -0.3612 -1.2633
17011TIP3   OH272447   1.296   0.738   6.223  0.3902  0.4885 -0.4274
17011TIP3    H172448   1.253   0.654   6.237  0.5287  0.4737 -0.0609
17011TIP3    H272449   1.306   0.775   6.311  0.6105  0.7459 -0.5567
17012TIP3   OH272450   3.267   3.097   5.100 -0.1102  0.2409  0.3643
17012TIP3    H172451   3.316   3.066   5.024  1.9001 -0.6380  1.9330
17012TIP3    H272452   3.257   3.191   5.087  0.9225  0.2273 -0.5866
17013TIP3   OH272453   4.026   6.545   5.968  0.2846 -0.1545 -0.8610
17013TIP3    H172454   4.073   6.593   6.035  0.6039 -0.6977 -0.6879
17013TIP3    H272455   3.995   6.466   6.012 -2.4215  1.0297 -0.4426
17014TIP3   OH272456   4.134   6.517   0.686  0.1684 -0.0742 -0.3698
17014TIP3    H172457   4.115   6.589   0.627 -2.8762  0.2774  0.8777
17014TIP3    H272458   4.178   6.557   0.761 -1.5006  0.5504  0.3132
17015TIP3   OH272459   4.315   5.987   0.258 -0.0265 -0.6496 -0.5292
17015TIP3    H172460   4.232   5.942   0.248  0.1478 -0.7848 -1.4181
17015TIP3    H272461   4.345   5.964   0.346 -0.2835 -1.6804 -0.7049
17016TIP3   OH272462   6.487   1.188   2.219  0.2259  0.4196  0.2893
17016TIP3    H172463   6.454   1.260   2.273 -0.0589  2.7077 -2.6403
17016TIP3    H272464   6.410   1.155   2.175  0.5067 -1.1125  0.9050
17017TIP3   OH272465   3.034   1.879   5.890 -0.3655 -0.1656  0.3440
17017TIP3    H172466   3.069   1.879   5.979 -2.4791 -1.0396  1.2437
17017TIP3    H272467   2.981   1.959   5.885  2.0187  1.4586 -1.1940
17018TIP3   OH272468   1.393   4.284  16.596  0.5325 -0.2186  0.2555
17018TIP3    H172469   1.306   4.293  16.559  0.6244 -1.8349 -0.3932
17018TIP3    H272470   1.407   4.367  16.643 -1.4019  0.0028  0.5299
17019TIP3   OH272471   2.201   0.647   2.999 -0.0316 -0.1763  0.5191
17019TIP3    H172472   2.244   0.701   2.933 -1.3561  0.0819 -0.1796
17019TIP3    H272473   2.208   0.558   2.965  2.2858 -0.5151  1.7455
17020TIP3   OH272474   2.498   3.686   3.722  0.0079 -0.3298 -0.7749
17020TIP3    H172475   2.558   3.636   3.666 -0.1225  1.3305 -2.5218
17020TIP3    H272476   2.507   3.776   3.691 -3.4017 -0.0037 -1.1528
17021TIP3   OH272477   3.846   4.583   4.403 -0.1092 -0.4276  0.6670
17021TIP3    H172478   3.941   4.582   4.415 -0.2084  2.5511  2.7169
17021TIP3    H272479   3.833   4.635   4.323 -0.0213 -1.3696  0.0316
17022TIP3   OH272480   0.924   2.085   1.129  0.3562  0.1798  0.1124
17022TIP3    H172481   0.949   2.158   1.072  1.4660 -0.1657  0.1422
17022TIP3    H272482   0.873   2.126   1.199 -1.4310  0.5518 -1.3517
17023TIP3   OH272483   6.511   6.588  15.607 -0.0951  0.2888  0.1591
17023TIP3    H172484   6.502   6.643  15.529  0.8254  1.1154  0.6088
17023TIP3    H272485   6.578   6.524  15.584  0.7009  0.9845  0.5004
17024TIP3   OH272486   0.052   5.685  11.144 -0.3284 -0.0434 -0.0962
17024TIP3    H172487   0.141   5.677  11.178 -0.3677  0.5454  0.1646
17024TIP3    H272488   0.035   5.602  11.100  0.4578 -0.0553 -0.3975
17025TIP3   OH272489   5.035   1.228   1.439  0.2403  0.0433  0.7435
17025TIP3    H172490   5.074   1.282   1.508 -0.0151  1.7823 -0.4245
17025TIP3    H272491   5.072   1.263   1.357 -0.8723 -0.7629 -0.1312
17026TIP3   OH272492   3.714   3.989  14.412 -0.0108  0.0635 -0.0017
17026TIP3    H172493   3.682   4.067  14.457 -0.5527 -0.0221 -0.2280
17026TIP3    H272494   3.798   4.014  14.375  0.2391  0.2653  0.6921
17027TIP3   OH272495   4.261   1.483  16.546  0.6756 -0.3061 -0.1570
17027TIP3    H172496   4.214   1.422  16.603 -0.6241 -0.1307 -1.0088
17027TIP3    H272497   4.232   1.569  16.575  2.3161 -0.0356  0.8762
17028TIP3   OH272498   3.694   1.163  14.020 -0.0339 -0.0550 -0.0310
17028TIP3    H172499   3.760   1.101  14.052  1.9310  1.5156 -0.7971
17028TIP3    H272500   3.734   1.249  14.033 -1.8682  0.9664 -0.7603
17029TIP3   OH272501   6.774   3.973  12.921 -0.6163 -0.1022 -0.1265
17029TIP3    H172502   6.699   3.977  12.862  1.3082  0.5580 -2.6896
17029TIP3    H272503   6.776   3.882  12.951 -3.4022  0.2501  1.4868
17030TIP3   OH272504   0.147   5.228  13.402 -0.9893  0.4270  0.0152
17030TIP3    H172505   0.112   5.141  13.383 -1.4292  0.4971  0.4747
17030TIP3    H272506   0.195   5.252  13.323 -1.1580 -0.0863 -0.2506
17031TIP3   OH272507   0.174   0.384   6.103 -0.2578 -0.1895  0.4503
17031TIP3    H172508   0.212   0.469   6.083 -1.3102  0.2897  0.3865
17031TIP3    H272509   0.150   0.348   6.018 -2.5266  0.7909  0.5899
17032TIP3   OH272510   4.969   1.343  13.830  0.1424 -0.6315  0.0695
17032TIP3    H172511   4.918   1.340  13.911  1.2484 -0.6119  0.7828
17032TIP3    H272512   4.986   1.437  13.816  0.0225 -0.6408 -0.1494
17033TIP3   OH272513   2.308   3.636  16.154  0.3511  0.0922  0.0404
17033TIP3    H172514   2.336   3.629  16.245 -1.4649 -0.3025  0.6006
17033TIP3    H272515   2.242   3.704  16.154  1.2511  1.0266 -1.2567
17034TIP3   OH272516   1.608   1.850   3.089  0.3458 -0.1977 -0.2602
17034TIP3    H172517   1.574   1.761   3.083 -0.3634 -0.0112  0.8034
17034TIP3    H272518   1.543   1.904   3.045  0.5789 -0.1400 -0.5449
17035TIP3   OH272519   0.948   3.634   3.185 -0.0817 -0.2349 -0.2126
17035TIP3    H172520   0.936   3.540   3.193 -0.5441 -0.2564 -1.0651
17035TIP3    H272521   0.979   3.647   3.096  1.1713  0.3208  0.2861
17036TIP3   OH272522   4.712   2.344  11.720 -0.2061  0.7604 -0.0116
17036TIP3    H172523   4.643   2.282  11.697  0.2782 -0.2308  1.1366
17036TIP3    H272524   4.732   2.389  11.637 -1.1379 -0.0149 -0.6808
17037TIP3   OH272525   4.763   0.337  15.246 -0.3889 -0.0877  0.8016
17037TIP3    H172526   4.675   0.367  15.222 -0.4130 -0.5944  0.2250
17037TIP3    H272527   4.821   0.404  15.211 -0.3845 -1.0789 -1.2414
17038TIP3   OH272528   5.344   2.252   3.243 -0.2822  0.0317  0.0066
17038TIP3    H172529   5.326   2.215   3.156  0.1951 -2.4816  0.8767
17038TIP3    H272530   5.431   2.219   3.265 -0.1018  1.2048  1.1790
17039TIP3   OH272531   5.583   3.311   0.970  0.5334 -0.6580 -0.2491
17039TIP3    H172532   5.639   3.328   0.893  0.6335 -0.5629 -0.1557
17039TIP3    H272533   5.591   3.217   0.985  2.0872 -0.3980  0.8447
17040TIP3   OH272534   5.308   2.291   3.541 -0.1138 -0.0891 -0.0755
17040TIP3    H172535   5.249   2.270   3.468 -0.2670 -2.2539  0.5847
17040TIP3    H272536   5.371   2.352   3.504 -1.3376  0.3881 -1.4788
17041TIP3   OH272537   1.037   2.549  11.396  0.4720 -0.6194 -0.2639
17041TIP3    H172538   0.984   2.553  11.316  0.1230  0.6257  0.0166
17041TIP3    H272539   0.984   2.498  11.458  0.4461 -1.0058 -0.5993
17042TIP3   OH272540   5.159   2.417   5.055  0.2118 -0.4793  0.0608
17042TIP3    H172541   5.075   2.373   5.065  0.4254 -1.2649 -1.3445
17042TIP3    H272542   5.168   2.469   5.135 -2.9480  1.9056 -0.9093
17043TIP3   OH272543   2.174   2.637  14.780 -0.0751 -0.4185  0.2998
17043TIP3    H172544   2.088   2.663  14.812  0.5904 -0.4325  2.2540
17043TIP3    H272545   2.223   2.719  14.773  0.0903 -0.5193  0.2525
17044TIP3   OH272546   1.749   4.618   5.552  0.0395 -0.0391 -0.0181
17044TIP3    H172547   1.777   4.567   5.476  0.9899  0.5030 -0.0448
17044TIP3    H272548   1.728   4.704   5.517 -0.2761 -0.0171  0.2202
17045TIP3   OH272549   4.007   4.857  16.228  0.1881 -0.1664 -0.0857
17045TIP3    H172550   4.043   4.848  16.316  0.0815 -1.4778 -0.1496
17045TIP3    H272551   3.920   4.894  16.241  0.7042  0.9487  0.2420
17046TIP3   OH272552   3.850   5.145   3.729  0.0484  0.3923  0.4700
17046TIP3    H172553   3.774   5.094   3.757  0.3480  0.6034  1.7272
17046TIP3    H272554   3.843   5.148   3.634 -1.5886  0.5173  0.5680
17047TIP3   OH272555   6.473   5.750  11.193 -0.9237 -0.8301  0.2335
17047TIP3    H172556   6.560   5.777  11.163 -1.6005  0.1242 -0.9995
17047TIP3    H272557   6.451   5.813  11.262 -1.9349  1.0659 -1.7026
17048TIP3   OH272558   1.505   0.351  11.386 -0.2198  0.4411 -0.3555
17048TIP3    H172559   1.543   0.436  11.408  1.6522 -0.3484 -0.4134
17048TIP3    H272560   1.478   0.361  11.294  0.1163  0.9220 -0.4105
17049TIP3   OH272561   6.600   5.599   4.717  0.0945 -0.0183  0.4808
17049TIP3    H172562   6.615   5.579   4.625  1.8555 -0.2194  0.7649
17049TIP3    H272563   6.588   5.513   4.758  3.4974 -0.3667  1.0389
17050TIP3   OH272564   5.566   4.413   5.944 -0.3795 -0.4379  0.5657
17050TIP3    H172565   5.611   4.430   6.027  0.9014 -0.7646 -0.0335
17050TIP3    H272566   5.633   4.372   5.889 -1.3859 -0.7978 -0.4217
17051TIP3   OH272567   3.136   0.384   6.355  0.0013 -0.5193  0.4934
17051TIP3    H172568   3.225   0.376   6.321  0.5240  2.4505  0.9036
17051TIP3    H272569   3.097   0.455   6.304 -1.0203  0.4036  2.4399
17052TIP3   OH272570   3.648   4.667  12.887  0.2343  0.3229 -0.3813
17052TIP3    H172571   3.613   4.604  12.950 -0.4613  0.0894 -0.9850
17052TIP3    H272572   3.570   4.710  12.850  0.6985  2.2451  0.7062
17053TIP3   OH272573   4.967   3.319   0.181 -0.2262 -0.1357  0.2483
17053TIP3    H172574   4.915   3.337   0.103 -0.0967 -0.4663  0.0798
17053TIP3    H272575   5.041   3.379   0.176 -0.3307 -0.0094  0.2290
17054TIP3   OH272576   6.433   3.407  14.601 -0.0983 -0.0529  0.1011
17054TIP3    H172577   6.375   3.403  14.677 -0.7699  1.3805 -0.3077
17054TIP3    H272578   6.520   3.422  14.639 -0.6541  2.3045  0.5581
17055TIP3   OH272579   4.392   2.612  12.706 -0.2784 -0.7969 -0.0299
17055TIP3    H172580   4.462   2.668  12.674 -0.2823 -1.6662 -1.6531
17055TIP3    H272581   4.312   2.663  12.693 -0.2486 -1.0254 -1.1973
17056TIP3   OH272582   2.266   4.132  13.619 -0.1252 -0.3974 -0.1964
17056TIP3    H172583   2.286   4.226  13.627 -1.4079 -0.1092 -0.1444
17056TIP3    H272584   2.288   4.095  13.704  2.1478 -0.5171 -0.7797
17057TIP3   OH272585   3.363   0.259   3.179  0.2380 -0.5750  0.1037
17057TIP3    H172586   3.455   0.233   3.170  0.8292  1.5539 -0.5848
17057TIP3    H272587   3.335   0.279   3.090 -0.9194 -1.1755  0.3105
17058TIP3   OH272588   5.604   0.919  13.839  0.4426 -0.0761 -0.0158
17058TIP3    H172589   5.614   0.956  13.751  0.1726  3.2031  1.1841
17058TIP3    H272590   5.568   0.991  13.891  0.2431 -2.0043  2.7286
17059TIP3   OH272591   5.864   5.298  12.492  0.2502 -0.1692 -0.9761
17059TIP3    H172592   5.786   5.291  12.547 -0.8168  0.1082 -2.3997
17059TIP3    H272593   5.925   5.235  12.530  0.2161  1.1960  1.5365
17060TIP3   OH272594   1.366   2.195   3.427  0.5395  0.4260 -0.2260
17060TIP3    H172595   1.381   2.253   3.502  1.9450  1.2346 -1.0947
17060TIP3    H272596   1.280   2.221   3.394  0.1996  0.5165  0.6994
17061TIP3   OH272597   1.738   5.060  16.276  0.4247  0.4918  0.1363
17061TIP3    H172598   1.737   5.015  16.192  0.1868 -1.1154  0.9688
17061TIP3    H272599   1.670   5.017  16.328 -0.5341  2.4887  0.6693
17062TIP3   OH272600   6.691   4.186   4.346  0.0814 -0.1712  0.0314
17062TIP3    H172601   6.611   4.177   4.398  0.1689  0.7604  0.3623
17062TIP3    H272602   6.662   4.177   4.255 -0.6833  1.5858  0.0516
17063TIP3   OH272603   6.443   1.742   5.409  0.0547 -0.0787 -0.0029
17063TIP3    H172604   6.432   1.805   5.339 -2.0455 -3.1744 -2.7277
17063TIP3    H272605   6.392   1.777   5.482  0.6367  2.2649 -0.6618
17064TIP3   OH272606   3.301   2.363  11.103  0.5459  0.5404  0.2612
17064TIP3    H172607   3.241   2.434  11.079  0.1238 -0.3206 -1.3799
17064TIP3    H272608   3.244   2.295  11.141  0.5484 -0.0034 -0.6785
17065TIP3   OH272609   5.755   3.099   4.145  0.2622  0.0686  0.2384
17065TIP3    H172610   5.748   3.090   4.240 -0.5942  0.5409  0.2316
17065TIP3    H272611   5.665   3.111   4.115  0.5870  0.6805 -0.5552
17066TIP3   OH272612   5.788   4.748  16.146  0.2465 -0.0063 -0.4438
17066TIP3    H172613   5.826   4.660  16.152  2.1497  0.8117  0.4583
17066TIP3    H272614   5.851   4.798  16.094  0.4989  1.4258  1.1524
17067TIP3   OH272615   4.999   2.804   3.308  0.3342 -0.3887 -0.0200
17067TIP3    H172616   5.004   2.788   3.214  1.3418  1.3556 -0.3025
17067TIP3    H272617   5.073   2.754   3.344  0.2715 -0.6232 -0.2105
17068TIP3   OH272618   1.229   3.413  16.268  0.0323 -0.5105  0.0979
17068TIP3    H172619   1.256   3.391  16.358 -1.1471 -2.1162  0.1039
17068TIP3    H272620   1.162   3.347  16.247 -0.0303  0.1250 -1.8031
17069TIP3   OH272621   3.192   5.362  13.952  0.1923  0.3405 -0.8302
17069TIP3    H172622   3.258   5.429  13.971 -0.3212  0.4419  0.7487
17069TIP3    H272623   3.150   5.346  14.036 -1.2589 -0.3099 -1.6504
17070TIP3   OH272624   4.926   5.401  12.764  0.1460 -0.1225  0.3766
17070TIP3    H172625   4.971   5.452  12.697  0.8542  0.5428  1.3318
17070TIP3    H272626   4.925   5.312  12.729 -1.7895  0.6205 -1.6588
17071TIP3   OH272627   4.617   2.955  14.020  0.5279  0.2659 -0.0086
17071TIP3    H172628   4.702   2.962  13.976 -0.1586 -0.1138 -1.4563
17071TIP3    H272629   4.595   3.046  14.041  1.4538  0.3372  0.7447
17072TIP3   OH272630   5.501   0.414  14.670 -0.1152 -0.5592 -0.2967
17072TIP3    H172631   5.446   0.477  14.717  0.1558  0.3207 -1.1268
17072TIP3    H272632   5.570   0.468  14.631  0.0275 -1.3555 -1.1574
17073TIP3   OH272633   6.526   5.851   4.881 -0.3850  0.2060 -0.3105
17073TIP3    H172634   6.602   5.879   4.932  0.9373  1.0232 -2.5904
17073TIP3    H272635   6.551   5.766   4.846 -0.7736  0.2055 -0.5907
17074TIP3   OH272636   4.034   3.051  14.036  0.2583 -0.0763 -0.0971
17074TIP3    H172637   3.982   3.106  13.977 -0.0598 -1.4594 -1.1629
17074TIP3    H272638   3.980   2.974  14.052  1.1000 -0.5634  0.5145
17075TIP3   OH272639   1.888   3.170  16.254  0.4605 -0.0970  0.0076
17075TIP3    H172640   1.841   3.253  16.264  0.1564 -0.2706  0.0296
17075TIP3    H272641   1.886   3.153  16.160 -0.4755 -0.6489  0.1158
17076TIP3   OH272642   0.099   2.603  16.518  0.2696 -0.0565  0.0554
17076TIP3    H172643   0.005   2.589  16.509  0.6692 -1.6003 -2.9315
17076TIP3    H272644   0.122   2.561  16.601 -1.4582 -0.9011  0.1431
17077TIP3   OH272645   3.214   4.082  13.641  0.3082 -0.1559 -0.2467
17077TIP3    H172646   3.271   4.125  13.578  2.6361 -1.2805  0.9923
17077TIP3    H272647   3.208   3.991  13.610 -0.4755 -0.1656 -0.1070
17078TIP3   OH272648   5.620   0.861   1.289 -0.3748 -0.1316 -0.0592
17078TIP3    H172649   5.608   0.804   1.365 -0.3966  0.5411  0.4419
17078TIP3    H272650   5.577   0.943   1.313 -0.2964  0.1201 -0.7584
17079TIP3   OH272651   5.993   4.476   2.903 -0.0978 -0.3557  0.1502
17079TIP3    H172652   6.016   4.460   2.811 -1.7047  1.6259 -0.6945
17079TIP3    H272653   5.973   4.389   2.938  2.3207 -1.3736 -0.7954
17080TIP3   OH272654   6.695   0.905  11.646  0.7267  0.4506  0.0920
17080TIP3    H172655   6.663   0.993  11.622 -0.4399 -0.1107 -0.5057
17080TIP3    H272656   6.730   0.869  11.565  0.7624  0.1774  0.2291
17081TIP3   OH272657   6.531   5.328   4.280 -0.2520  0.3729  0.3790
17081TIP3    H172658   6.575   5.251   4.315  1.1429  0.1968 -1.5980
17081TIP3    H272659   6.588   5.360   4.210 -3.4705 -0.2516 -2.8594
17082TIP3   OH272660   5.474   1.870   2.681  0.1819  0.3558 -0.1254
17082TIP3    H172661   5.530   1.844   2.608 -0.6049  1.4440 -1.1652
17082TIP3    H272662   5.530   1.862   2.758  0.7919 -1.5909 -0.7126
17083TIP3   OH272663   2.705   2.309   5.575 -0.0105  0.1798 -0.1742
17083TIP3    H172664   2.775   2.320   5.639  0.2235 -0.6676 -0.2693
17083TIP3    H272665   2.677   2.398   5.554 -0.7726  0.4566  1.8442
17084TIP3   OH272666   2.076   2.685   5.769  0.1612 -0.3664 -0.0526
17084TIP3    H172667   2.108   2.708   5.682 -0.0673 -0.9038 -0.2833
17084TIP3    H272668   1.985   2.715   5.770  0.3814  0.3165  0.2728
17085TIP3   OH272669   0.517   4.877   0.293 -0.0386  0.4004 -0.2390
17085TIP3    H172670   0.436   4.927   0.304 -0.6741 -0.6629  0.1833
17085TIP3    H272671   0.488   4.793   0.256  0.5785 -0.7772  1.7645
17086TIP3   OH272672   1.876   3.503   0.341 -0.2907  0.1952 -0.1699
17086TIP3    H172673   1.896   3.429   0.398 -1.0651 -0.1484 -0.3337
17086TIP3    H272674   1.893   3.580   0.395 -0.2861 -0.1146  0.2745
17087TIP3   OH272675   0.237   4.995  17.201 -0.3206 -0.2096  0.0502
17087TIP3    H172676   0.147   5.010  17.231 -0.4399  0.8210 -0.7592
17087TIP3    H272677   0.232   4.911  17.155 -0.6023 -0.7285  0.9986
17088TIP3   OH272678   6.700   1.609   5.277  0.0122  0.4651 -0.2397
17088TIP3    H172679   6.789   1.608   5.311  0.1712 -0.1256 -0.6540
17088TIP3    H272680   6.668   1.698   5.294  0.1411  0.2552  1.2925
17089TIP3   OH272681   3.085   5.417   1.319  0.1605  0.1634  0.6245
17089TIP3    H172682   3.015   5.480   1.336  0.1567  0.4534 -0.4337
17089TIP3    H272683   3.137   5.456   1.249  0.0247 -1.1114 -0.2245
17090TIP3   OH272684   1.870   1.186  14.004  0.1187  0.3838 -0.4804
17090TIP3    H172685   1.931   1.186  13.930  0.2004  1.0707 -0.4189
17090TIP3    H272686   1.815   1.109  13.989 -0.0831  0.6966 -1.4359
17091TIP3   OH272687   4.717   5.032   2.589 -0.1975 -0.7607 -0.2764
17091TIP3    H172688   4.743   4.949   2.629 -0.2707 -1.3448 -1.4067
17091TIP3    H272689   4.776   5.096   2.628  0.4219 -1.4692 -0.0076
17092TIP3   OH272690   1.832   6.562   6.277 -0.3254  0.0339 -0.1435
17092TIP3    H172691   1.794   6.522   6.199  0.3403 -0.1686 -0.3736
17092TIP3    H272692   1.758   6.578   6.335 -0.6572 -1.1474 -0.2275
17093TIP3   OH272693   4.691   4.521  16.438  0.0643 -0.7699 -0.5271
17093TIP3    H172694   4.773   4.571  16.443  0.8039 -2.0635  1.2040
17093TIP3    H272695   4.652   4.549  16.355  1.1803  1.4881 -0.3759
17094TIP3   OH272696   1.889   4.476  11.220 -0.1628  0.5896  0.1360
17094TIP3    H172697   1.941   4.545  11.263  0.3963 -0.9279  2.0732
17094TIP3    H272698   1.952   4.405  11.205 -1.3945 -0.8629  1.5182
17095TIP3   OH272699   6.461   6.551  11.004 -0.1645 -0.0650 -0.3358
17095TIP3    H172700   6.444   6.640  10.971  3.3931  0.5035 -1.0764
17095TIP3    H272701   6.422   6.494  10.938 -1.4450  0.9209 -0.4838
17096TIP3   OH272702   1.885   1.509   0.767  0.1965 -0.5178  0.2599
17096TIP3    H172703   1.921   1.451   0.834 -2.2628 -1.2768  1.0664
17096TIP3    H272704   1.816   1.457   0.726 -0.8644  1.2124 -0.2472
17097TIP3   OH272705   4.210   1.925   1.154 -0.0998 -0.0074  0.6155
17097TIP3    H172706   4.172   1.940   1.067 -0.5779 -0.3411  0.7596
17097TIP3    H272707   4.286   1.870   1.138 -0.2608 -0.1763  0.4165
17098TIP3   OH272708   3.858   0.962  11.959  0.4756  0.5776 -0.5243
17098TIP3    H172709   3.790   0.950  12.026  0.4021 -1.3516 -0.8882
17098TIP3    H272710   3.925   0.897  11.981  1.5222  1.4549 -1.0330
17099TIP3   OH272711   5.244   1.668   4.835  0.1722  0.0430 -0.0529
17099TIP3    H172712   5.262   1.575   4.842 -1.4008 -0.4251 -1.5141
17099TIP3    H272713   5.314   1.710   4.885 -0.2972 -1.9839  2.5449
17100TIP3   OH272714   0.132   0.168  13.680  0.4166  0.3411  0.5477
17100TIP3    H172715   0.141   0.248  13.731 -4.1179  1.1191  0.5542
17100TIP3    H272716   0.054   0.126  13.715  0.4825 -2.1594 -1.9401
17101TIP3   OH272717   0.739   0.839  15.272 -0.2218  0.1228 -0.0967
17101TIP3    H172718   0.819   0.824  15.321  0.2047 -1.5897 -1.2179
17101TIP3    H272719   0.689   0.758  15.282 -0.2107 -0.2149 -2.2265
17102TIP3   OH272720   5.147   5.970   5.468  0.3723 -0.3485 -0.3380
17102TIP3    H172721   5.090   5.995   5.395  1.1197  1.4809 -0.3574
17102TIP3    H272722   5.087   5.945   5.538 -0.4205  0.0240 -0.8640
17103TIP3   OH272723   0.237   3.347   4.771  0.2107 -0.7727 -0.1943
17103TIP3    H172724   0.172   3.288   4.731  2.7638 -2.1399 -2.6971
17103TIP3    H272725   0.268   3.400   4.698  0.7523  1.0431  1.2832
17104TIP3   OH272726   5.762   1.404  11.252  0.0302 -0.4749  0.2475
17104TIP3    H172727   5.672   1.409  11.284  0.8970 -1.1141  2.9908
17104TIP3    H272728   5.759   1.449  11.167 -2.5048  1.0485  1.0280
17105TIP3   OH272729   5.917   3.956   5.651  0.0143  0.4138  0.5128
17105TIP3    H172730   5.989   3.904   5.686 -0.3444  1.0414  2.2887
17105TIP3    H272731   5.957   4.039   5.625  0.4292 -0.3544 -1.4724
17106TIP3   OH272732   4.060   6.392  17.163  0.0029  0.5283 -0.1581
17106TIP3    H172733   4.135   6.352  17.120  1.0258  0.2804  1.7471
17106TIP3    H272734   3.989   6.329  17.151  0.8076 -0.4961  0.2486
17107TIP3   OH272735   5.775   2.377   1.573 -0.3154  0.8302 -0.2658
17107TIP3    H172736   5.754   2.444   1.638 -0.2764 -0.1781  0.8164
17107TIP3    H272737   5.690   2.345   1.543 -0.3310  1.0963 -0.5140
17108TIP3   OH272738   1.714   3.706  10.516 -0.3029  0.4263 -0.0464
17108TIP3    H172739   1.767   3.783  10.537  0.7832 -0.2132 -0.3648
17108TIP3    H272740   1.769   3.654  10.458 -0.3315 -1.4234  1.4994
17109TIP3   OH272741   1.565   5.789   1.871 -0.2021  0.5033  0.0526
17109TIP3    H172742   1.616   5.847   1.815  2.9926 -0.6233  1.6084
17109TIP3    H272743   1.505   5.745   1.810  0.9267  1.5968 -1.9694
17110TIP3   OH272744   0.007   3.824  11.858  0.1351  0.2448  0.2853
17110TIP3    H172745   0.018   3.913  11.893  0.0135  0.1266  0.6264
17110TIP3    H272746   0.002   3.768  11.936  1.3980 -0.2122  0.0513
17111TIP3   OH272747   4.389   3.083   3.177 -0.1848 -0.2080 -0.0765
17111TIP3    H172748   4.326   3.115   3.112  1.2330  2.8743 -0.1460
17111TIP3    H272749   4.386   2.988   3.169 -0.7477 -0.0480 -4.0344
17112TIP3   OH272750   6.162   3.220   4.682  0.0677 -0.1029 -0.3101
17112TIP3    H172751   6.175   3.128   4.657  2.4542  0.3005 -0.8227
17112TIP3    H272752   6.200   3.228   4.769  2.1510  0.8515 -1.2394
17113TIP3   OH272753   3.084   1.739   3.884 -0.1915  0.0864  0.0662
17113TIP3    H172754   3.108   1.765   3.972 -1.4571  1.7613 -0.0230
17113TIP3    H272755   3.099   1.818   3.831  0.8253 -0.9704 -1.2962
17114TIP3   OH272756   2.148   2.528   0.535 -0.2707 -0.3641 -0.5367
17114TIP3    H172757   2.147   2.577   0.453  2.3067 -0.3045 -0.6103
17114TIP3    H272758   2.155   2.436   0.509 -3.9247 -0.8350 -0.3711
17115TIP3   OH272759   3.218   6.137   1.410 -0.0556  0.1784  0.0318
17115TIP3    H172760   3.237   6.220   1.366 -2.5144  0.4799 -0.6603
17115TIP3    H272761   3.207   6.074   1.339 -0.1724 -0.2737  0.4447
17116TIP3   OH272762   0.109   3.098  12.399 -0.2586  0.1418 -0.0621
17116TIP3    H172763   0.048   3.028  12.422  0.9885 -1.0532 -0.2825
17116TIP3    H272764   0.144   3.128  12.483  1.3397 -1.5117 -0.0761
17117TIP3   OH272765   2.288   0.587  13.805  0.3103 -0.2740 -0.6577
17117TIP3    H172766   2.340   0.515  13.770  0.7774  0.7869 -2.2599
17117TIP3    H272767   2.352   0.658  13.816 -0.1575 -0.0420  0.7990
17118TIP3   OH272768   3.642   0.261  16.758 -0.1682  0.1045 -0.9944
17118TIP3    H172769   3.664   0.244  16.850 -1.6892  0.0213 -0.6118
17118TIP3    H272770   3.719   0.305  16.722 -0.0897  1.4730  0.7146
17119TIP3   OH272771   2.868   3.042  15.119 -0.2058 -0.7373 -0.5261
17119TIP3    H172772   2.843   3.131  15.145 -0.2642 -0.7445 -0.5569
17119TIP3    H272773   2.785   3.000  15.095 -0.3676 -1.2518  0.8647
17120TIP3   OH272774   3.775   2.209   2.146 -0.7439  0.5173  0.2907
17120TIP3    H172775   3.721   2.222   2.068 -0.6946 -0.7552  0.0302
17120TIP3    H272776   3.796   2.116   2.146  0.6420  0.8010  0.9275
17121TIP3   OH272777   2.961   5.413  13.398  0.3167 -0.3051 -0.0107
17121TIP3    H172778   2.910   5.365  13.462 -0.2243  0.6685  0.3107
17121TIP3    H272779   2.906   5.415  13.319  0.2275 -0.0018  0.0580
17122TIP3   OH272780   5.265   3.811  12.662  0.6109  0.3751  0.3162
17122TIP3    H172781   5.263   3.715  12.669 -0.0545  0.3162 -0.4838
17122TIP3    H272782   5.208   3.842  12.732  0.2262  0.1497  0.1054
17123TIP3   OH272783   1.423   1.159  13.277  0.2782 -0.1305 -0.0079
17123TIP3    H172784   1.485   1.139  13.347 -0.6642 -0.0305  0.8665
17123TIP3    H272785   1.455   1.108  13.202  1.4167 -0.0656  0.4203
17124TIP3   OH272786   2.001   4.281   1.673  0.2566 -0.0403  0.7113
17124TIP3    H172787   1.918   4.250   1.708 -0.1514  0.3159  0.0860
17124TIP3    H272788   1.977   4.353   1.615  1.0896  0.7058  1.2739
17125TIP3   OH272789   2.678   2.979  16.909  0.1163 -0.1852 -0.1153
17125TIP3    H172790   2.719   3.064  16.893 -1.4408  0.4040 -1.3811
17125TIP3    H272791   2.593   3.001  16.948 -1.7764 -0.8341 -3.4747
17126TIP3   OH272792   3.773   5.362  17.230  0.1346 -0.3379 -0.3277
17126TIP3    H172793   3.722   5.389  17.153 -1.2964 -0.0516  0.6893
17126TIP3    H272794   3.860   5.399  17.214 -0.2323  0.0434 -1.6241
17127TIP3   OH272795   3.691   1.337  14.378 -0.0975  0.8015 -0.6411
17127TIP3    H172796   3.611   1.286  14.367 -0.0733  0.6068  0.0175
17127TIP3    H272797   3.758   1.288  14.330 -0.4109  1.0846 -1.3846
17128TIP3   OH272798   2.927   4.123   3.059  0.5702  0.1957 -0.4743
17128TIP3    H172799   2.860   4.082   3.004 -0.5253 -0.0350  0.9746
17128TIP3    H272800   3.008   4.076   3.037  0.6910  1.6153 -3.4937
17129TIP3   OH272801   5.101   4.863   2.808  0.7768  0.5266 -0.5154
17129TIP3    H172802   5.188   4.825   2.803  0.5628  0.0626 -0.6822
17129TIP3    H272803   5.077   4.856   2.901  1.9399  2.9510  0.0504
17130TIP3   OH272804   1.299   5.550  14.708 -0.3000 -0.2886  0.3062
17130TIP3    H172805   1.360   5.621  14.728  0.3571 -0.7180 -0.1684
17130TIP3    H272806   1.349   5.470  14.720 -0.6072 -0.6347 -0.6274
17131TIP3   OH272807   2.719   4.001  15.577 -0.2595  0.4117 -0.3192
17131TIP3    H172808   2.778   3.928  15.559  0.4132  0.8475  0.0606
17131TIP3    H272809   2.756   4.042  15.656 -1.4954  0.2409  0.3759
17132TIP3   OH272810   6.325   2.376   2.160  0.8056 -0.1308 -0.5402
17132TIP3    H172811   6.243   2.409   2.123  0.3164  2.0511  2.1924
17132TIP3    H272812   6.298   2.299   2.212  0.1532  1.3409  1.4270
17133TIP3   OH272813   0.044   4.945   0.497  0.5853  0.0408  0.0677
17133TIP3    H172814   0.044   4.966   0.590  1.5240  1.8093 -0.3057
17133TIP3    H272815   0.119   4.992   0.461  0.0535 -0.3504 -1.6471
17134TIP3   OH272816   4.263   4.487   4.912 -0.0938  0.7218 -0.4193
17134TIP3    H172817   4.298   4.576   4.910 -0.1044  0.7237 -0.5117
17134TIP3    H272818   4.168   4.499   4.919 -0.0860  0.7172 -0.3111
17135TIP3   OH272819   1.071   6.581   0.660  0.4985  0.3066 -0.0719
17135TIP3    H172820   1.118   6.552   0.581  1.6619  0.2315  0.6305
17135TIP3    H272821   1.114   6.663   0.685  0.2486  0.2430  0.5854
17136TIP3   OH272822   1.882   6.173   1.577  0.4120 -0.7952  0.6235
17136TIP3    H172823   1.842   6.251   1.538  1.3063 -0.6835 -0.1179
17136TIP3    H272824   1.849   6.100   1.525 -0.5464 -0.9318  1.4162
17137TIP3   OH272825   4.499   1.913   5.760  0.7101  0.1672 -0.2209
17137TIP3    H172826   4.530   2.002   5.748 -0.7618  0.5206 -1.8277
17137TIP3    H272827   4.511   1.872   5.674 -1.6231 -0.1477 -0.4593
17138TIP3   OH272828   5.556   0.818   2.180 -0.0720  1.0380  0.0732
17138TIP3    H172829   5.553   0.861   2.266 -2.2428  1.0999  0.0318
17138TIP3    H272830   5.646   0.787   2.172  0.2492  1.2140  2.2761
17139TIP3   OH272831   4.073   0.320  13.162  0.1591  0.9171  0.8170
17139TIP3    H172832   4.078   0.414  13.176 -1.5702  1.3321 -0.8478
17139TIP3    H272833   4.056   0.311  13.068  0.6127 -1.0693  0.8867
17140TIP3   OH272834   2.395   4.591   4.384  0.1137 -0.1283 -0.5085
17140TIP3    H172835   2.323   4.637   4.339  0.0664  0.0706 -0.2321
17140TIP3    H272836   2.370   4.499   4.381 -0.9117  0.0753  0.9195
17141TIP3   OH272837   0.019   5.491  14.959  0.0381  0.6167  0.2998
17141TIP3    H172838   0.071   5.469  15.036 -0.0270  0.9208  0.4320
17141TIP3    H272839   0.005   5.586  14.965 -0.3678  0.5704  0.1671
17142TIP3   OH272840   4.881   4.186   1.419 -0.6319 -0.1505 -0.1398
17142TIP3    H172841   4.849   4.149   1.501 -1.2335  1.6852  0.5006
17142TIP3    H272842   4.966   4.224   1.441  0.6422 -2.2120 -1.1054
17143TIP3   OH272843   3.542   1.557  13.195 -0.7803  0.4404  0.4346
17143TIP3    H172844   3.603   1.554  13.268  0.7918 -0.9096 -0.8412
17143TIP3    H272845   3.586   1.611  13.129 -2.1985  1.6928  0.4453
17144TIP3   OH272846   2.403   1.286   4.771  0.2577 -0.1360 -0.1226
17144TIP3    H172847   2.359   1.232   4.705  0.2477 -1.1788  0.6923
17144TIP3    H272848   2.475   1.231   4.802  0.1850  0.2722  0.8053
17145TIP3   OH272849   3.526   0.039   2.485  0.0623  0.5556 -0.3242
17145TIP3    H172850   3.508  -0.053   2.502 -1.4648  0.8502 -0.1670
17145TIP3    H272851   3.570   0.040   2.400 -0.4379 -0.2751 -0.6045
17146TIP3   OH272852   3.755   0.055  15.482  0.5168  0.3234 -0.1705
17146TIP3    H172853   3.741   0.019  15.569  0.1373  0.3222 -0.2313
17146TIP3    H272854   3.834   0.011  15.451 -0.5821 -1.3724 -0.7068
17147TIP3   OH272855   2.065   3.982   3.454  0.4235 -0.3152 -0.3451
17147TIP3    H172856   2.015   3.901   3.458  0.7967 -0.5051  1.3649
17147TIP3    H272857   2.147   3.958   3.411  1.4954 -1.4656  2.1034
17148TIP3   OH272858   2.346   6.472   0.787  0.5180 -0.4596  0.3011
17148TIP3    H172859   2.265   6.502   0.746  1.2782 -0.4348 -1.2395
17148TIP3    H272860   2.407   6.545   0.775  0.4514  0.0540  2.5867
17149TIP3   OH272861   3.624   2.216  12.208  0.2297 -0.4096  0.3171
17149TIP3    H172862   3.573   2.296  12.225 -1.1374 -1.7497  3.2195
17149TIP3    H272863   3.696   2.220  12.271  0.5524 -1.1623  0.0103
17150TIP3   OH272864   1.301   4.716  17.158  0.0563  0.0418 -0.4162
17150TIP3    H172865   1.265   4.731  17.071  2.7276 -0.5378 -1.7530
17150TIP3    H272866   1.363   4.788  17.171 -0.9694  0.6476  1.4541
17151TIP3   OH272867   4.118   6.640  15.464  0.5848  0.3628 -0.5961
17151TIP3    H172868   4.154   6.658  15.550  0.6790  3.0056 -1.1143
17151TIP3    H272869   4.126   6.723  15.416  0.9442 -1.1007 -3.3007
17152TIP3   OH272870   2.038   2.923  10.278  0.1314  0.2224  0.2054
17152TIP3    H172871   2.114   2.980  10.284 -0.7104  1.4227 -0.1926
17152TIP3    H272872   2.049   2.860  10.349  2.1335 -0.4581 -0.6251
17153TIP3   OH272873   2.430   1.585  15.630  0.3149  0.0142  0.0041
17153TIP3    H172874   2.430   1.616  15.720 -0.9157 -1.2231  0.4657
17153TIP3    H272875   2.366   1.641  15.586 -2.0916 -1.8427  0.8942
17154TIP3   OH272876   2.012   1.004  14.413  0.8310  0.3152  0.4033
17154TIP3    H172877   2.030   1.060  14.338  0.9811  0.3113  0.4367
17154TIP3    H272878   2.001   1.065  14.486 -1.7216  0.5251 -0.0415
17155TIP3   OH272879   0.853   3.756   4.516 -0.1301  0.2696  0.4194
17155TIP3    H172880   0.887   3.788   4.600  1.6373 -0.1314 -0.1042
17155TIP3    H272881   0.859   3.661   4.522 -1.8451  0.1402  0.5449
17156TIP3   OH272882   4.832   0.493   0.860  0.3374 -0.3919 -0.4207
17156TIP3    H172883   4.817   0.558   0.792 -0.2886 -0.2886 -0.1913
17156TIP3    H272884   4.886   0.539   0.925 -0.9225  0.2248  0.2125
17157TIP3   OH272885   1.247   6.352  12.003 -0.0431 -0.0547 -0.2308
17157TIP3    H172886   1.225   6.413  11.932  1.3713 -0.3080 -0.9401
17157TIP3    H272887   1.341   6.336  11.991  0.2264 -0.0953  1.7233
17158TIP3   OH272888   1.400   1.731  15.722 -0.3467  0.4529  0.0483
17158TIP3    H172889   1.375   1.752  15.812 -0.2240  0.6437  0.0380
17158TIP3    H272890   1.468   1.795  15.701 -0.0869  0.1492 -0.0385
17159TIP3   OH272891   4.591   4.772   5.018  0.3155  0.2620 -0.0446
17159TIP3    H172892   4.646   4.709   4.971 -0.8075 -2.0245  1.4867
17159TIP3    H272893   4.551   4.720   5.088 -4.0421  1.6696 -1.2058
17160TIP3   OH272894   4.790   2.473  15.118 -0.1354  0.8109  0.2344
17160TIP3    H172895   4.747   2.522  15.048 -0.5943 -2.7063 -2.1707
17160TIP3    H272896   4.884   2.487  15.103 -0.2549  1.3528 -0.0454
17161TIP3   OH272897   5.224   2.973  15.464 -0.1043  0.6884 -0.3083
17161TIP3    H172898   5.224   2.877  15.460 -0.5123  0.7070 -0.8157
17161TIP3    H272899   5.296   2.999  15.407 -0.3587  0.6980 -0.6278
17162TIP3   OH272900   4.490   0.701   6.126 -0.5442  0.5008  0.2109
17162TIP3    H172901   4.499   0.684   6.220  0.5738 -1.5193 -0.1949
17162TIP3    H272902   4.428   0.773   6.121  1.1362  2.2774  2.5970
17163TIP3   OH272903   4.174   0.089   0.354  0.1988  0.1860  0.1679
17163TIP3    H172904   4.158   0.174   0.312  0.7765  0.9626  1.4858
17163TIP3    H272905   4.263   0.094   0.387 -0.1627 -0.4720  1.3106
17164TIP3   OH272906   1.713   2.870   3.551 -0.2733 -0.3291  0.4331
17164TIP3    H172907   1.764   2.805   3.503  0.9901  0.2736  0.8973
17164TIP3    H272908   1.742   2.862   3.642  0.4075  1.2625  0.4088
17165TIP3   OH272909   1.757   3.752  13.247 -0.2120  0.1710 -0.0558
17165TIP3    H172910   1.662   3.750  13.247 -0.2240  0.2056 -1.3604
17165TIP3    H272911   1.783   3.663  13.270 -0.5275  0.4361  1.4669
17166TIP3   OH272912   1.106   3.888   3.448  0.1696 -0.1781  0.0692
17166TIP3    H172913   1.041   3.881   3.378 -0.6183  0.1918  0.7436
17166TIP3    H272914   1.071   3.955   3.506  2.4052  1.9505 -0.8514
17167TIP3   OH272915   1.117   0.084   1.814  0.1402 -0.4216 -0.4475
17167TIP3    H172916   1.118   0.098   1.719  0.0268 -1.2681 -0.5825
17167TIP3    H272917   1.177   0.011   1.828 -1.0280 -1.3491 -0.0576
17168TIP3   OH272918   1.148   4.997  17.147  0.2495  0.1794 -0.5814
17168TIP3    H172919   1.147   4.936  17.074 -0.5172  0.3074 -0.6886
17168TIP3    H272920   1.240   5.007  17.170  0.5425  0.4768 -1.8243
17169TIP3   OH272921   4.615   5.806   4.229  0.2673  0.4075 -0.4539
17169TIP3    H172922   4.587   5.846   4.311 -0.0676  1.0529 -0.8679
17169TIP3    H272923   4.544   5.825   4.167  0.3075 -0.4578 -0.7840
17170TIP3   OH272924   0.816   6.248   3.777  0.6142 -0.0212 -0.0542
17170TIP3    H172925   0.891   6.220   3.829  0.0531 -0.2055  0.6766
17170TIP3    H272926   0.800   6.339   3.804  0.1876 -0.1873  0.2640
17171TIP3   OH272927   0.673   0.526  10.614  0.3084  0.5029 -0.1506
17171TIP3    H172928   0.729   0.458  10.652  0.1995  1.1899  1.2956
17171TIP3    H272929   0.679   0.599  10.675  0.8103  2.0197 -1.9250
17172TIP3   OH272930   4.272   6.534  15.090  0.4308 -0.2180  0.5457
17172TIP3    H172931   4.341   6.469  15.082  0.2744 -0.4328  0.9112
17172TIP3    H272932   4.317   6.618  15.086  0.6117 -0.3411 -0.1348
17173TIP3   OH272933   2.132   1.936   1.178  0.2036  0.1783  0.0013
17173TIP3    H172934   2.219   1.920   1.141 -0.4557 -0.2869 -1.4240
17173TIP3    H272935   2.115   1.861   1.234 -0.4515 -1.3131 -2.0500
17174TIP3   OH272936   6.404   5.078   3.486  0.2380  0.5833  0.2192
17174TIP3    H172937   6.466   5.125   3.431 -0.9089  3.6445  1.3301
17174TIP3    H272938   6.457   5.036   3.553  1.3296  0.0381 -0.9439
17175TIP3   OH272939   5.654   2.687  16.388  0.2399  0.7533 -0.0718
17175TIP3    H172940   5.662   2.650  16.300 -0.1204 -0.1286  0.2649
17175TIP3    H272941   5.567   2.727  16.389  0.7793  2.0096 -0.5677
17176TIP3   OH272942   0.620   2.280   4.532  0.0402 -0.3783 -0.2587
17176TIP3    H172943   0.647   2.371   4.520  0.3420 -0.3540  0.5210
17176TIP3    H272944   0.613   2.269   4.627  0.3525 -1.2655 -0.3238
17177TIP3   OH272945   0.119   5.093  12.417  0.2317 -0.0268 -0.0343
17177TIP3    H172946   0.044   5.153  12.416  0.2583  0.0073  0.0404
17177TIP3    H272947   0.178   5.128  12.484  0.5170  0.1934 -0.3994
17178TIP3   OH272948   5.747   5.742   4.552  0.2968  0.0584 -0.1147
17178TIP3    H172949   5.824   5.739   4.495  0.5092 -1.4309  0.2090
17178TIP3    H272950   5.769   5.683   4.624 -0.9481  0.0079  0.2378
17179TIP3   OH272951   4.334   2.529  14.618 -0.3964  0.1420 -0.5774
17179TIP3    H172952   4.352   2.620  14.640 -0.9737  0.2465 -0.5247
17179TIP3    H272953   4.416   2.496  14.580  0.0837  0.4379  0.1886
17180TIP3   OH272954   3.532   6.178  12.175  0.2307 -0.3384 -0.3885
17180TIP3    H172955   3.511   6.257  12.125 -0.7239 -0.7551 -0.6700
17180TIP3    H272956   3.482   6.109  12.132 -1.9737 -0.4471  2.0761
17181TIP3   OH272957   2.051   0.334   2.218  0.5597  0.5535 -0.7830
17181TIP3    H172958   2.020   0.408   2.166 -1.0847 -0.7100 -1.6932
17181TIP3    H272959   2.146   0.341   2.215  0.4766  1.6025 -2.3646
17182TIP3   OH272960   6.390   2.235   3.749  0.4063  0.0016 -0.7482
17182TIP3    H172961   6.316   2.229   3.688 -1.0743  2.0968  0.7090
17182TIP3    H272962   6.407   2.144   3.774 -0.1740 -0.7370 -2.8158
17183TIP3   OH272963   6.674   2.225  12.054  0.2296  0.1560 -0.4316
17183TIP3    H172964   6.703   2.224  11.963  0.8221 -0.6618 -0.2520
17183TIP3    H272965   6.652   2.316  12.072 -0.7688  0.1825 -1.6569
17184TIP3   OH272966   3.486   0.121   1.497  0.8226  0.2023 -0.3161
17184TIP3    H172967   3.408   0.153   1.543  1.9371  1.2189  0.9654
17184TIP3    H272968   3.467   0.136   1.405 -0.6759  0.0069 -0.0644
17185TIP3   OH272969   4.608   5.095   5.610  0.3291  0.0757 -0.2550
17185TIP3    H172970   4.597   5.135   5.696  0.4325  0.7415 -0.5450
17185TIP3    H272971   4.519   5.082   5.577  0.2859 -0.3539  0.0316
17186TIP3   OH272972   3.484   2.176   1.105  0.0932  0.6261  0.0848
17186TIP3    H172973   3.430   2.144   1.033  0.8190  0.5503 -0.4386
17186TIP3    H272974   3.529   2.252   1.069  0.7398  0.3733  0.3343
17187TIP3   OH272975   1.002   0.564   3.620  0.0843  0.0209  0.3871
17187TIP3    H172976   0.985   0.658   3.610 -1.2772 -0.2700 -0.2359
17187TIP3    H272977   1.004   0.530   3.530  0.7206 -0.5261  0.6009
17188TIP3   OH272978   1.627   4.306   2.652  0.1480 -0.5785  0.2505
17188TIP3    H172979   1.708   4.309   2.602  0.3148 -1.9016  0.4079
17188TIP3    H272980   1.577   4.235   2.612 -0.9559  0.2449  0.1299
17189TIP3   OH272981   3.909   6.660   2.397 -0.0836  0.2836 -0.1495
17189TIP3    H172982   3.884   6.741   2.353 -1.9743  0.5106  1.2085
17189TIP3    H272983   3.878   6.671   2.487  2.6198 -0.6185  0.9801
17190TIP3   OH272984   2.305   1.080  11.864 -0.3551  0.0810 -0.0096
17190TIP3    H172985   2.234   1.101  11.803  0.6002  3.1115 -0.2294
17190TIP3    H272986   2.262   1.078  11.950 -0.8246  1.5515 -0.1767
17191TIP3   OH272987   3.914   5.652   2.811 -0.5350  0.2995 -0.0123
17191TIP3    H172988   3.840   5.607   2.772  0.1132 -0.2154 -0.6852
17191TIP3    H272989   3.915   5.738   2.770 -0.8222  0.3460  0.0802
17192TIP3   OH272990   3.284   2.858  15.017  0.4648 -0.0573 -0.2466
17192TIP3    H172991   3.228   2.935  15.028  0.1211 -0.3264 -0.0695
17192TIP3    H272992   3.367   2.892  14.984 -0.2820  0.1994 -1.9472
17193TIP3   OH272993   4.888   4.046  13.007  0.0997  0.5565 -0.4218
17193TIP3    H172994   4.799   4.012  12.997  0.4843 -0.0533 -2.1920
17193TIP3    H272995   4.919   4.009  13.089 -0.7219 -0.5354 -0.5830
17194TIP3   OH272996   5.253   4.116   1.311 -0.5676 -0.1916 -0.5121
17194TIP3    H172997   5.247   4.114   1.406 -1.6741 -1.5259 -0.5697
17194TIP3    H272998   5.268   4.024   1.286 -2.3642 -0.2097 -1.7072
17195TIP3   OH272999   5.210   2.147   4.700 -0.2398 -0.1935  0.0643
17195TIP3    H173000   5.257   2.197   4.767 -1.9325  0.2814  0.9393
17195TIP3    H273001   5.196   2.061   4.739 -1.3253  0.1170  0.3665
17196TIP3   OH273002   6.097   1.313  16.161  0.1417  0.2271  0.1543
17196TIP3    H173003   6.157   1.264  16.104 -0.2499  0.5266 -0.5329
17196TIP3    H273004   6.033   1.350  16.100 -0.2167  0.6505  0.7893
17197TIP3   OH273005   3.889   2.209  11.401 -0.5736  0.4964  0.0029
17197TIP3    H173006   3.950   2.215  11.474  0.9502 -2.9337 -0.7778
17197TIP3    H273007   3.808   2.247  11.435  0.9264  1.9106  2.3345
17198TIP3   OH273008   5.833   0.079  12.749  0.3019 -0.4672  0.4382
17198TIP3    H173009   5.907   0.039  12.704  2.7002 -0.9024  4.2988
17198TIP3    H273010   5.846   0.173  12.739  0.3120 -0.5504 -0.3864
17199TIP3   OH273011   6.119   0.564   0.795  0.3028  0.2091  0.4892
17199TIP3    H173012   6.123   0.626   0.722 -1.6181  0.6518  0.7161
17199TIP3    H273013   6.146   0.480   0.757 -0.1340  0.5455 -0.5928
17200TIP3   OH273014   6.437   0.837   1.138 -0.1084  0.6381 -0.0798
17200TIP3    H173015   6.351   0.797   1.153  0.8066 -0.7767  1.7800
17200TIP3    H273016   6.500   0.769   1.161  1.5707  1.2773 -2.4221
17201TIP3   OH273017   2.742   6.607   4.842  0.2690  0.2606 -0.4848
17201TIP3    H173018   2.717   6.548   4.771  0.5153  1.3339 -1.4928
17201TIP3    H273019   2.678   6.589   4.911 -0.1770 -0.5737 -1.0917
17202TIP3   OH273020   3.608   5.146   1.128 -0.1912  0.2227  0.1561
17202TIP3    H173021   3.512   5.146   1.123 -0.2060  0.4761  0.4090
17202TIP3    H273022   3.633   5.237   1.114 -0.0231  0.2598  0.6566
17203TIP3   OH273023   5.960   3.300  16.891  0.4482 -0.0131 -0.1119
17203TIP3    H173024   5.885   3.330  16.839  0.9881 -0.6389 -1.3172
17203TIP3    H273025   6.036   3.340  16.849  0.8456  0.1431  0.7320
17204TIP3   OH273026   4.619   4.754   0.340  0.0601  0.1990 -0.2645
17204TIP3    H173027   4.705   4.768   0.302  0.8300 -1.1186  0.9193
17204TIP3    H273028   4.571   4.836   0.322  1.5809  0.9968 -0.8237
17205TIP3   OH273029   0.173   1.288  14.909  0.4806  0.2208 -0.0135
17205TIP3    H173030   0.091   1.272  14.862 -0.3519  0.3384  1.3326
17205TIP3    H273031   0.225   1.209  14.895  0.3879  0.3653 -1.3331
17206TIP3   OH273032   5.765   1.888   5.647  0.9252 -0.0948 -0.9427
17206TIP3    H173033   5.814   1.827   5.592 -0.4972 -1.6527 -0.5578
17206TIP3    H273034   5.716   1.832   5.708 -1.5413  1.3297 -1.4872
17207TIP3   OH273035   1.154   1.187  11.986  0.1581  0.0736 -0.3097
17207TIP3    H173036   1.175   1.200  12.079  0.3971  0.5475 -0.4297
17207TIP3    H273037   1.240   1.180  11.943  0.0474 -0.1614 -0.4962
17208TIP3   OH273038   5.696   6.604  15.025 -0.4809 -0.0880 -0.0800
17208TIP3    H173039   5.667   6.589  14.935  2.3370  0.9162 -1.2829
17208TIP3    H273040   5.656   6.688  15.049 -0.4250  0.1499 -0.7902
17209TIP3   OH273041   0.302   3.294  14.775  0.0228 -0.1353 -0.3284
17209TIP3    H173042   0.296   3.348  14.696  2.6966 -0.2603 -0.7313
17209TIP3    H273043   0.311   3.357  14.846 -2.3903 -0.0222 -0.0455
17210TIP3   OH273044   5.869   1.911   2.289 -0.3569 -0.1922  0.2425
17210TIP3    H173045   5.844   1.876   2.203 -1.7175  0.9957  0.1307
17210TIP3    H273046   5.882   2.005   2.275  0.2748 -0.1227  1.1624
17211TIP3   OH273047   2.367   1.173   0.145 -0.0005 -0.4649  0.3827
17211TIP3    H173048   2.306   1.195   0.215 -0.5285  0.0196 -0.2168
17211TIP3    H273049   2.454   1.180   0.186 -0.2497  0.7329  0.7515
17212TIP3   OH273050   6.568   3.350  15.378  0.0804  0.2011 -0.0463
17212TIP3    H173051   6.477   3.371  15.399  0.7550  2.6985  0.7042
17212TIP3    H273052   6.597   3.294  15.449 -0.2674  1.2288  0.9393
17213TIP3   OH273053   5.802   5.252  10.570 -0.3598  0.0146 -0.3431
17213TIP3    H173054   5.869   5.197  10.528  0.2421  0.6977 -0.2888
17213TIP3    H273055   5.832   5.342  10.557 -1.9547  0.4224 -1.4924
17214TIP3   OH273056   6.417   4.805  12.844 -0.1976  0.3938 -0.3766
17214TIP3    H173057   6.508   4.833  12.852 -0.5407  1.6254 -0.4840
17214TIP3    H273058   6.412   4.724  12.893  0.6056  1.1247  0.9726
17215TIP3   OH273059   6.511   1.481   1.868  1.5925 -0.4322  0.2026
17215TIP3    H173060   6.472   1.499   1.954  0.9077  1.2226 -0.4109
17215TIP3    H273061   6.539   1.566   1.836  0.0835 -0.6833 -2.0213
17216TIP3   OH273062   3.058   2.571   2.303 -0.1163 -0.4016  0.2327
17216TIP3    H173063   3.150   2.564   2.329  0.1403 -2.3195 -1.0061
17216TIP3    H273064   3.052   2.522   2.221 -2.0330  0.6399 -0.3125
17217TIP3   OH273065   0.006   4.173   2.651 -0.1724 -0.0170  0.1002
17217TIP3    H173066   0.052   4.106   2.600  0.1661 -0.3412  0.8117
17217TIP3    H273067   0.074   4.213   2.706 -0.7039 -0.4277  1.0920
17218TIP3   OH273068   3.170   4.912   2.696 -0.4556  0.2640 -0.0739
17218TIP3    H173069   3.248   4.953   2.734 -1.2159  2.3072 -0.6215
17218TIP3    H273070   3.170   4.823   2.733  2.5394 -0.0974 -0.6956
17219TIP3   OH273071   4.421   3.685   2.948  0.8582 -0.3287 -0.0698
17219TIP3    H173072   4.480   3.666   3.022  0.1630 -1.3419  0.2415
17219TIP3    H273073   4.467   3.650   2.872  1.7827  1.1104 -0.2198
17220TIP3   OH273074   5.128   1.066   5.998 -0.2328  0.1431  0.1007
17220TIP3    H173075   5.218   1.043   6.022 -0.0099  0.9556  0.0516
17220TIP3    H273076   5.073   1.010   6.054  0.2971 -0.5807 -0.0912
17221TIP3   OH273077   2.207   1.363   5.681  0.8346  0.2439  0.1035
17221TIP3    H173078   2.164   1.449   5.687 -1.2903 -0.8230  1.4977
17221TIP3    H273079   2.297   1.383   5.653  0.4737  2.9306  0.5707
17222TIP3   OH273080   4.695   6.020   1.482 -0.3374 -0.6830  0.0495
17222TIP3    H173081   4.666   5.962   1.412  0.6079 -2.6936  1.1999
17222TIP3    H273082   4.686   6.108   1.447  0.1234 -1.5991 -2.5870
17223TIP3   OH273083   1.051   1.364   1.543 -0.3372  0.3878  0.3588
17223TIP3    H173084   1.089   1.296   1.488 -0.9254 -0.4157  0.9112
17223TIP3    H273085   1.075   1.446   1.501  2.0298 -0.0576  0.7122
17224TIP3   OH273086   0.881   4.045  16.834 -0.7973 -0.1790 -0.0648
17224TIP3    H173087   0.836   4.109  16.889  1.6073  1.2742  0.3643
17224TIP3    H273088   0.891   3.968  16.890  1.0079  1.0401  1.4143
17225TIP3   OH273089   4.587   0.357   2.746  0.1325  0.0175 -0.0663
17225TIP3    H173090   4.556   0.443   2.720 -0.2218 -0.1974 -0.3687
17225TIP3    H273091   4.559   0.347   2.837 -0.2056  0.0478 -0.1665
17226TIP3   OH273092   4.720   2.742   5.839 -0.0304  0.1902 -0.1801
17226TIP3    H173093   4.682   2.705   5.759  0.1552  0.1317 -0.2425
17226TIP3    H273094   4.793   2.684   5.860 -0.4760 -0.1677  0.3975
17227TIP3   OH273095   1.423   3.302   3.289  0.1625  0.5594  0.9860
17227TIP3    H173096   1.352   3.251   3.328 -0.8926 -0.2163 -1.7204
17227TIP3    H273097   1.385   3.388   3.273  0.2140  0.5079  0.5909
17228TIP3   OH273098   2.156   2.967   5.002  0.2663 -0.7419 -0.0990
17228TIP3    H173099   2.189   2.969   5.092  1.3425 -1.5288 -0.4448
17228TIP3    H273100   2.215   3.025   4.953 -0.2763 -0.3618 -0.3045
17229TIP3   OH273101   3.443   4.362   2.603  0.5346  0.1309 -0.0778
17229TIP3    H173102   3.493   4.344   2.524  1.2950 -0.3208  0.4945
17229TIP3    H273103   3.466   4.452   2.626  0.6716  0.1055 -0.1155
17230TIP3   OH273104   0.800   4.203   1.701 -0.0649 -0.2035  0.5639
17230TIP3    H173105   0.833   4.188   1.789 -0.6351  1.7990  1.1710
17230TIP3    H273106   0.815   4.297   1.685 -0.2567 -0.4491 -1.3549
17231TIP3   OH273107   1.131   5.768  15.245 -0.0538 -0.3234 -0.1404
17231TIP3    H173108   1.146   5.860  15.267 -4.7211  0.8940 -0.9968
17231TIP3    H273109   1.153   5.762  15.152  0.9035 -0.2988  0.0738
17232TIP3   OH273110   2.887   6.034   5.458 -0.4428  0.0577  0.4125
17232TIP3    H173111   2.924   6.114   5.494  0.7648 -0.3300  0.0639
17232TIP3    H273112   2.844   6.062   5.377  1.5248  0.1165 -0.6718
17233TIP3   OH273113   5.839   5.850  13.125  0.5773  0.2304  0.3134
17233TIP3    H173114   5.814   5.780  13.064 -1.6951 -0.6769  2.1202
17233TIP3    H273115   5.757   5.896  13.142  1.6033  1.9007  0.9463
17234TIP3   OH273116   2.141   6.081   3.398 -0.5050 -0.8580 -0.4266
17234TIP3    H173117   2.105   6.168   3.417  0.4706 -0.4235 -0.5428
17234TIP3    H273118   2.216   6.072   3.457  0.6942 -0.7377 -1.8813
17235TIP3   OH273119   3.689   4.910   2.719  0.1316 -0.5145 -0.4693
17235TIP3    H173120   3.612   4.873   2.763 -0.4617  0.9947 -0.1656
17235TIP3    H273121   3.754   4.920   2.788  0.5053 -1.5041 -0.6661
17236TIP3   OH273122   4.110   5.823   3.621 -0.0506  0.0466 -0.2216
17236TIP3    H173123   4.031   5.874   3.602  0.7132  0.5089 -2.4990
17236TIP3    H273124   4.079   5.733   3.627 -1.1453  0.4842  2.0413
17237TIP3   OH273125   6.026   1.403  16.408 -0.3447 -0.6158  0.2444
17237TIP3    H173126   6.023   1.362  16.321  0.5155 -0.8305  0.3087
17237TIP3    H273127   5.996   1.493  16.393  1.2761 -0.1779 -0.5733
17238TIP3   OH273128   2.457   4.799   1.064 -0.1669  0.1850  0.0520
17238TIP3    H173129   2.429   4.841   0.983 -1.4124 -0.7354 -0.0271
17238TIP3    H273130   2.426   4.709   1.057 -0.3025  0.0822  1.5415
17239TIP3   OH273131   2.883   4.596   4.407 -0.1072 -0.8659  0.3300
17239TIP3    H173132   2.843   4.553   4.483 -2.4836 -0.3842 -0.5623
17239TIP3    H273133   2.841   4.555   4.331 -0.1851  0.8639 -0.6188
17240TIP3   OH273134   5.997   3.699  13.476 -0.1936  0.4726  0.2771
17240TIP3    H173135   6.029   3.662  13.558 -0.8709 -0.4226  0.1417
17240TIP3    H273136   6.076   3.731  13.432  0.6051 -1.8625 -0.1383
17241TIP3   OH273137   4.691   2.661  16.586  0.6139  0.4696 -0.5433
17241TIP3    H173138   4.757   2.643  16.520  2.1195  0.7177  0.8375
17241TIP3    H273139   4.656   2.747  16.563  2.3052  1.3051 -0.1266
17242TIP3   OH273140   0.851   0.277  14.355 -0.2491 -0.2739 -0.1170
17242TIP3    H173141   0.913   0.314  14.293  0.0523 -1.6128 -0.6460
17242TIP3    H273142   0.787   0.346  14.370  0.9673  0.8901 -0.0995
17243TIP3   OH273143   6.008   1.733  15.355  0.0738  0.1837 -0.1844
17243TIP3    H173144   5.935   1.792  15.377 -0.5945  0.2074 -2.2611
17243TIP3    H273145   6.064   1.786  15.299  2.3910  0.5383  2.2686
17244TIP3   OH273146   4.298   6.375  17.000 -0.2530 -0.4709 -0.2486
17244TIP3    H173147   4.262   6.430  16.931 -0.5595 -1.3096 -0.7742
17244TIP3    H273148   4.332   6.298  16.953  2.0499  0.1783  0.2267
17245TIP3   OH273149   2.146   2.485   1.288 -0.2673  0.4835 -0.3875
17245TIP3    H173150   2.063   2.468   1.332 -0.0820  0.0090 -0.2163
17245TIP3    H273151   2.134   2.570   1.246 -1.3855 -0.2556 -1.6587
17246TIP3   OH273152   2.117   0.126   5.584 -0.0690  0.3059 -0.0433
17246TIP3    H173153   2.131   0.209   5.628  0.8872 -0.2383  0.7215
17246TIP3    H273154   2.161   0.135   5.500 -2.1902  1.4719 -1.1021
17247TIP3   OH273155   1.160   3.477  11.004 -0.1327 -0.4036 -0.6007
17247TIP3    H173156   1.093   3.544  11.018  0.8197  0.0886  1.9957
17247TIP3    H273157   1.110   3.398  10.982 -1.5869  0.0191  1.0071
17248TIP3   OH273158   2.585   1.915  17.165 -0.5193  0.2456  0.5368
17248TIP3    H173159   2.496   1.883  17.183 -1.9481  2.9034 -1.2625
17248TIP3    H273160   2.586   2.004  17.198  1.9750 -0.0942  1.6411
17249TIP3   OH273161   6.680   5.366   5.197 -0.0052  0.0801  0.1837
17249TIP3    H173162   6.643   5.302   5.257  0.7377  0.6773  1.3171
17249TIP3    H273163   6.709   5.439   5.253 -0.7782  1.3971 -1.0511
17250TIP3   OH273164   1.911   1.647   2.730  0.3899  0.2751  0.4344
17250TIP3    H173165   1.858   1.567   2.720  1.2722 -0.1996 -0.6613
17250TIP3    H273166   1.907   1.688   2.644  1.3904  0.4943  0.4927
17251TIP3   OH273167   6.159   4.445  15.930 -0.1342 -0.3499  0.2727
17251TIP3    H173168   6.241   4.485  15.903 -0.2798 -0.0884  0.2188
17251TIP3    H273169   6.137   4.487  16.013  0.2422 -1.0537  0.7440
17252TIP3   OH273170   6.037   5.549   4.567  0.8028  0.0329  0.4508
17252TIP3    H173171   6.046   5.620   4.503  0.8867  0.0141  0.4428
17252TIP3    H273172   6.013   5.473   4.515  1.3590 -0.1004  0.3836
17253TIP3   OH273173   1.394   2.526   1.036 -0.6641 -0.1984  0.3474
17253TIP3    H173174   1.322   2.557   0.981  0.2554  0.5109 -0.4776
17253TIP3    H273175   1.401   2.592   1.105  0.0562  0.4430 -0.3310
17254TIP3   OH273176   0.280   2.025   0.537 -0.5380  0.6736 -0.3180
17254TIP3    H173177   0.238   1.942   0.561  0.6856  0.5637  1.5845
17254TIP3    H273178   0.333   2.004   0.460  1.9355 -1.0681  1.7267
17255TIP3   OH273179   2.848   5.367   5.181  0.0542  0.6335  0.3464
17255TIP3    H173180   2.857   5.337   5.091 -0.9359  1.8684 -0.1886
17255TIP3    H273181   2.925   5.422   5.197 -0.6665  1.9001 -0.3860
17256TIP3   OH273182   0.646   1.460  12.911 -0.3748 -0.3727  0.0512
17256TIP3    H173183   0.680   1.480  12.823  0.1524 -2.5657 -0.3077
17256TIP3    H273184   0.569   1.406  12.895  0.1363 -1.3890  0.9324
17257TIP3   OH273185   1.528   1.847  16.452  0.2439 -0.2844  0.1434
17257TIP3    H173186   1.512   1.927  16.402  1.9431  0.5273  0.7972
17257TIP3    H273187   1.479   1.779  16.406 -1.7371  1.2168 -0.0830
17258TIP3   OH273188   0.753   1.272   0.592 -0.0226  0.0566 -0.2962
17258TIP3    H173189   0.725   1.360   0.566 -2.9079 -0.8228 -0.5339
17258TIP3    H273190   0.740   1.270   0.687  1.2916  0.2443 -0.0904
17259TIP3   OH273191   4.482   4.934  14.157 -0.0517  0.4041 -0.0867
17259TIP3    H173192   4.552   4.869  14.145 -0.1963  0.1420  0.4707
17259TIP3    H273193   4.404   4.893  14.120 -0.1827  0.1828  0.4287
17260TIP3   OH273194   1.043   0.746  16.298  0.5958  0.1526 -0.2729
17260TIP3    H173195   1.008   0.709  16.380  0.3817 -0.6247 -0.7022
17260TIP3    H273196   1.027   0.840  16.306  0.8208  0.1285  0.6972
17261TIP3   OH273197   3.891   3.959  14.699 -0.0366  0.0356  0.3206
17261TIP3    H173198   3.922   4.014  14.772 -0.1675  0.3997  0.1032
17261TIP3    H273199   3.827   3.900  14.740 -1.1449  1.1531  0.2639
17262TIP3   OH273200   1.700   3.473  12.457 -0.1648  0.3088 -0.1127
17262TIP3    H173201   1.670   3.457  12.368  0.1870  1.0195 -0.3661
17262TIP3    H273202   1.769   3.408  12.471 -0.8896 -0.4576  0.0045
17263TIP3   OH273203   0.524   4.778   6.548  0.1598 -0.0421 -0.3752
17263TIP3    H173204   0.594   4.719   6.519 -0.4732 -0.7138 -0.5791
17263TIP3    H273205   0.444   4.728   6.534 -0.2654  0.1069  1.3151
17264TIP3   OH273206   2.281   1.596  14.347  0.0648  0.1334 -0.0446
17264TIP3    H173207   2.298   1.621  14.438  0.4366 -1.9366  0.5088
17264TIP3    H273208   2.358   1.544  14.322  1.1586  2.6682 -2.4124
17265TIP3   OH273209   3.511   5.358  15.837  0.0547  0.4119  0.2330
17265TIP3    H173210   3.578   5.320  15.781  0.7979  0.7994  0.8431
17265TIP3    H273211   3.483   5.437  15.791  0.5604  0.6527  0.3404
17266TIP3   OH273212   0.056   1.287   4.574 -0.5414 -1.0119  0.1248
17266TIP3    H173213   0.009   1.271   4.656 -0.5254  2.0077  0.8684
17266TIP3    H273214   0.134   1.335   4.601  0.0612 -0.9662 -1.5795
17267TIP3   OH273215   1.674   1.277   6.262  0.0798  0.3813  0.0598
17267TIP3    H173216   1.641   1.196   6.224 -0.0537 -0.3778  1.6850
17267TIP3    H273217   1.600   1.337   6.259 -0.3528 -0.1220  0.3752
17268TIP3   OH273218   4.782   3.922  14.552  0.2520  0.9510 -0.2391
17268TIP3    H173219   4.813   3.849  14.499  1.0158  1.1437 -0.0748
17268TIP3    H273220   4.800   4.000  14.499  1.0743  1.1493  0.3105
17269TIP3   OH273221   0.367   2.642   3.896  0.3483  0.4300 -0.2969
17269TIP3    H173222   0.408   2.615   3.978 -2.3710 -1.2904  0.6357
17269TIP3    H273223   0.289   2.690   3.922 -0.4559  0.0359 -1.8618
17270TIP3   OH273224   6.237   1.984  14.727 -0.2790 -0.2636  0.4553
17270TIP3    H173225   6.233   2.076  14.700 -0.6174 -0.5518 -0.5227
17270TIP3    H273226   6.262   1.937  14.648 -1.6318 -1.1728  0.5304
17271TIP3   OH273227   3.429   0.564   3.375 -0.2729  0.0546 -0.5237
17271TIP3    H173228   3.420   0.524   3.288  2.3892 -0.1930 -0.7747
17271TIP3    H273229   3.427   0.489   3.435 -0.3612  0.0464 -0.5370
17272TIP3   OH273230   6.316   3.402  15.483  0.1057 -0.0026  0.2947
17272TIP3    H173231   6.310   3.496  15.500  1.6601  0.0232  0.9086
17272TIP3    H273232   6.307   3.362  15.570  3.5476 -0.1353  0.7156
17273TIP3   OH273233   5.303   0.111  17.026 -0.2412 -0.0875 -0.4848
17273TIP3    H173234   5.302   0.159  17.109 -1.2779  0.8386 -1.0175
17273TIP3    H273235   5.382   0.056  17.031 -1.0596 -1.1927  1.7418
17274TIP3   OH273236   3.501   1.763   2.063 -0.5929 -0.0322 -0.6590
17274TIP3    H173237   3.412   1.735   2.041 -0.7485  0.0425 -0.1426
17274TIP3    H273238   3.523   1.827   1.995 -0.2392 -1.3541 -1.8317
17275TIP3   OH273239   2.552   6.721   2.291  0.0375  0.1950  0.4778
17275TIP3    H173240   2.471   6.720   2.342 -0.0179 -0.5578  0.3786
17275TIP3    H273241   2.581   6.630   2.288  1.4146  0.5782  1.3246
17276TIP3   OH273242   6.769   4.863  15.294  0.3442  0.1366 -0.1300
17276TIP3    H173243   6.707   4.853  15.366 -1.2296  1.3594 -1.2336
17276TIP3    H273244   6.751   4.789  15.236  0.9647 -0.3286  0.2587
17277TIP3   OH273245   0.710   4.446   2.128 -0.3573 -0.6108  0.1446
17277TIP3    H173246   0.782   4.458   2.066  0.1647 -0.8584  0.6904
17277TIP3    H273247   0.640   4.407   2.076 -0.8633  1.4899 -0.8760
17278TIP3   OH273248   1.187   5.305   5.379 -0.3644  0.3850  0.3060
17278TIP3    H173249   1.174   5.347   5.464  0.9498  1.4745  0.0051
17278TIP3    H273250   1.278   5.325   5.356 -0.2406 -1.1294 -0.6929
17279TIP3   OH273251   6.421   0.784  14.550 -0.2632 -0.0128 -0.3489
17279TIP3    H173252   6.410   0.830  14.467  0.9876 -0.3358 -0.7198
17279TIP3    H273253   6.378   0.699  14.537 -2.4972  0.9404  0.3060
17280TIP3   OH273254   5.310   2.072   2.037  0.0243 -0.2533 -0.3589
17280TIP3    H173255   5.253   2.038   2.106  0.0355 -0.1777 -0.3116
17280TIP3    H273256   5.296   2.014   1.963 -2.4963  1.5744 -1.4506
17281TIP3   OH273257   0.845   3.305   0.035  0.0285 -0.3636  0.2911
17281TIP3    H173258   0.773   3.258  -0.007  0.1428 -0.0438 -0.2718
17281TIP3    H273259   0.818   3.315   0.126  0.4832 -2.5091  0.7216
17282TIP3   OH273260   1.929   0.704   1.017 -0.3042 -0.1414  0.5420
17282TIP3    H173261   1.932   0.725   1.110  0.7107  1.5946  0.1490
17282TIP3    H273262   2.021   0.703   0.990 -0.5567 -1.1514 -0.3550
17283TIP3   OH273263   3.571   3.803  11.247  0.4136 -0.4753  0.1445
17283TIP3    H173264   3.523   3.786  11.166 -0.2256 -0.2957  0.4746
17283TIP3    H273265   3.648   3.853  11.220  1.8662 -3.0048 -0.7419
17284TIP3   OH273266   0.572   0.622   0.942  0.3154 -0.4796 -0.5327
17284TIP3    H173267   0.542   0.599   1.030 -1.4203  1.0607 -0.6575
17284TIP3    H273268   0.509   0.578   0.884  0.6780 -0.4320 -0.9658
17285TIP3   OH273269   5.402   5.643  14.710  0.3355 -0.2197  0.0901
17285TIP3    H173270   5.431   5.731  14.688 -0.5581  0.2667  0.8287
17285TIP3    H273271   5.419   5.592  14.630  0.3754  0.7264 -0.5185
17286TIP3   OH273272   5.146   4.291   4.562 -0.2271  0.0826 -0.2479
17286TIP3    H173273   5.129   4.384   4.574  3.7456  0.9328  0.1237
17286TIP3    H273274   5.135   4.276   4.468 -0.9197  0.9029 -0.3056
17287TIP3   OH273275   1.685   4.830   1.900  0.2383  0.3589  0.4140
17287TIP3    H173276   1.694   4.764   1.831 -0.8400 -0.6123  1.1748
17287TIP3    H273277   1.610   4.801   1.951  0.6799  1.3668  1.6745
17288TIP3   OH273278   3.155   6.743   0.863 -0.2134  0.8083  0.0370
17288TIP3    H173279   3.130   6.701   0.781 -1.3123 -0.4618  0.9771
17288TIP3    H273280   3.222   6.806   0.838  1.4018 -1.3456 -1.5054
17289TIP3   OH273281   4.710   0.260  13.453 -0.1335  0.3560  0.0332
17289TIP3    H173282   4.729   0.336  13.508  0.5889  1.7285 -2.0072
17289TIP3    H273283   4.760   0.189  13.493  0.8527  1.4424  0.8132
17290TIP3   OH273284   0.046   4.937   2.860 -0.3336 -0.0521 -0.0439
17290TIP3    H173285   0.020   4.920   2.770  0.1247  1.4732 -0.4816
17290TIP3    H273286  -0.029   4.907   2.912  0.1611 -2.7784 -0.7331
17291TIP3   OH273287   0.117   0.871  14.309 -0.3988 -0.3080 -0.2281
17291TIP3    H173288   0.046   0.846  14.249 -0.7939  0.7427 -0.2202
17291TIP3    H273289   0.192   0.887  14.251 -0.3668 -0.6897 -0.3011
17292TIP3   OH273290   6.543   4.275   4.118  1.0134  0.1846 -0.2655
17292TIP3    H173291   6.600   4.345   4.152  0.6672  0.2304  0.2235
17292TIP3    H273292   6.458   4.292   4.158  1.2272 -1.2710  0.9017
17293TIP3   OH273293   1.038   3.252   4.831 -0.5549  0.4330 -0.3928
17293TIP3    H173294   0.975   3.181   4.816 -0.9249  0.6682  0.0191
17293TIP3    H273295   1.071   3.236   4.920  0.3863 -0.0080 -0.8135
17294TIP3   OH273296   5.096   6.694   2.769  0.0538  0.0836 -0.5925
17294TIP3    H173297   5.185   6.724   2.786  0.0093  1.0849 -1.9834
17294TIP3    H273298   5.105   6.625   2.704  0.0374 -2.2033  1.6705
17295TIP3   OH273299   2.062   5.403  16.113  0.5031 -0.0964  0.1768
17295TIP3    H173300   1.995   5.417  16.180 -1.9572  2.0090 -2.4503
17295TIP3    H273301   2.122   5.477  16.122 -0.0484  0.3973 -0.1548
17296TIP3   OH273302   2.524   3.407  15.528  0.6198  0.0068  0.3239
17296TIP3    H173303   2.437   3.424  15.492  0.2428 -1.6829  0.3715
17296TIP3    H273304   2.507   3.369  15.614  1.3792 -0.9126  0.0803
17297TIP3   OH273305   0.759   1.730  13.863  0.4013 -0.0377 -0.2450
17297TIP3    H173306   0.703   1.673  13.810  0.9777 -0.8630  0.0052
17297TIP3    H273307   0.840   1.680  13.874  1.0554  0.9831 -0.3013
17298TIP3   OH273308   2.509   6.697   0.726  0.3281  0.2661 -0.0587
17298TIP3    H173309   2.474   6.736   0.646  1.6923  1.1165 -0.2644
17298TIP3    H273310   2.476   6.753   0.796 -0.2174 -0.0138 -0.0879
17299TIP3   OH273311   2.260   0.405  13.290 -0.1682 -0.1915 -0.2123
17299TIP3    H173312   2.353   0.386  13.277  0.6461  3.9840 -2.2326
17299TIP3    H273313   2.256   0.441  13.378  0.1180 -0.3629 -0.1240
17300TIP3   OH273314   1.506   6.687  16.041  0.1185  0.1984  0.3621
17300TIP3    H173315   1.445   6.648  16.103  1.0967 -0.9947  0.6096
17300TIP3    H273316   1.535   6.768  16.083  1.3671 -0.9729  1.8887
17301TIP3   OH273317   2.974   1.872   4.699 -0.2066  0.0694  0.0455
17301TIP3    H173318   2.884   1.862   4.669 -0.2729  0.4485  0.1249
17301TIP3    H273319   3.015   1.929   4.634 -0.6606  1.8781  1.3026
17302TIP3   OH273320   3.566   0.727  11.270  0.2132  0.3494 -0.1784
17302TIP3    H173321   3.529   0.778  11.342 -0.8216  0.7089 -0.9232
17302TIP3    H273322   3.660   0.742  11.276  0.2252 -0.1810  1.4838
17303TIP3   OH273323   0.731   5.534   0.383  0.1805 -0.4849 -0.3698
17303TIP3    H173324   0.795   5.463   0.378  0.9555  0.1161  0.5938
17303TIP3    H273325   0.667   5.504   0.446 -0.8323 -1.3262 -1.7479
17304TIP3   OH273326   1.946   1.982  11.754  0.1367 -0.0452  0.3421
17304TIP3    H173327   1.932   1.918  11.823 -1.0931  1.7574  1.8550
17304TIP3    H273328   2.031   2.022  11.775  0.7483 -0.8939 -0.4169
17305TIP3   OH273329   0.890   6.643  11.947  0.5177 -0.0101 -0.1523
17305TIP3    H173330   0.816   6.672  12.000  0.5924  0.2676 -0.2004
17305TIP3    H273331   0.966   6.687  11.986  0.4369  1.0674 -1.1637
17306TIP3   OH273332   2.438   2.629   1.317  0.4918  0.0098 -0.3436
17306TIP3    H173333   2.504   2.602   1.253 -0.0777 -1.3573 -0.3857
17306TIP3    H273334   2.423   2.551   1.371  0.6419  1.0060  1.1993
17307TIP3   OH273335   2.814   6.402   4.242 -0.3575 -0.2562 -0.2213
17307TIP3    H173336   2.730   6.438   4.216  0.4003  0.0122 -2.5537
17307TIP3    H273337   2.792   6.320   4.287 -1.8448 -0.2351 -0.8555
17308TIP3   OH273338   1.976   6.680  11.534  0.1276  0.2411  0.5029
17308TIP3    H173339   2.025   6.657  11.455 -0.7535  2.7905 -0.9068
17308TIP3    H273340   1.889   6.644  11.520  0.2500 -0.1801  0.8027
17309TIP3   OH273341   4.052   3.327  15.379  0.3215 -0.1882  0.0556
17309TIP3    H173342   4.038   3.334  15.285 -0.1235  0.4000  0.1555
17309TIP3    H273343   4.049   3.418  15.410  1.5021 -0.2840  0.4988
17310TIP3   OH273344   4.320   2.455   1.781 -0.7855  0.0824 -0.0683
17310TIP3    H173345   4.235   2.500   1.782 -0.2212  1.1978  0.4461
17310TIP3    H273346   4.382   2.523   1.809 -0.0685 -1.3997  2.2491
17311TIP3   OH273347   4.327   1.891  11.574  0.1814 -0.2604  0.2639
17311TIP3    H173348   4.417   1.862  11.558  0.3962 -0.2481  1.4012
17311TIP3    H273349   4.328   1.924  11.664 -0.5142  1.4967 -0.3282
17312TIP3   OH273350   1.141   6.022  15.352  0.2300  0.1498  0.2707
17312TIP3    H173351   1.060   6.026  15.301 -0.5223 -0.5463  1.3700
17312TIP3    H273352   1.196   6.091  15.315 -0.1607 -0.5082 -1.6745
17313TIP3   OH273353   6.028   4.647  13.459  0.6311  0.1334  0.4841
17313TIP3    H173354   6.003   4.659  13.551  1.1398  1.1497  0.4968
17313TIP3    H273355   5.997   4.559  13.438  0.1162  0.0506  1.5004
17314TIP3   OH273356   5.908   6.110  14.593 -0.1500 -0.6408 -0.1865
17314TIP3    H173357   5.896   6.015  14.594 -2.4848 -0.4242 -1.6103
17314TIP3    H273358   5.848   6.143  14.660 -0.1063 -0.1110 -0.3999
17315TIP3   OH273359   0.179   3.137  12.644 -0.2642 -0.2333  1.1013
17315TIP3    H173360   0.218   3.051  12.655  0.0500 -0.2046  0.2166
17315TIP3    H273361   0.098   3.133  12.695 -1.1102 -1.6085 -0.2629
17316TIP3   OH273362   2.458   5.229  14.259  0.1285 -0.0225 -0.3576
17316TIP3    H173363   2.413   5.145  14.256  0.2707 -0.0960 -0.4761
17316TIP3    H273364   2.548   5.209  14.232  0.6370 -0.1404  1.3146
17317TIP3   OH273365   4.320   0.589   1.603 -0.4681 -0.1760 -0.0474
17317TIP3    H173366   4.269   0.646   1.545  0.7128  2.9010  1.6951
17317TIP3    H273367   4.390   0.555   1.548 -0.3544  1.3000 -0.8744
17318TIP3   OH273368   5.127   4.934   4.481 -0.6159 -0.0950  0.3056
17318TIP3    H173369   5.150   4.979   4.400 -0.3540  0.3522  0.6189
17318TIP3    H273370   5.202   4.950   4.539 -0.5727 -0.8434  0.4672
17319TIP3   OH273371   4.975   1.810   2.058 -0.2797 -0.7030  0.1278
17319TIP3    H173372   5.021   1.729   2.082 -1.8485 -1.6748  0.0232
17319TIP3    H273373   4.923   1.785   1.982  0.8990  1.0436 -1.3322
17320TIP3   OH273374   0.473   2.285   2.152 -0.5893  0.0340  0.1091
17320TIP3    H173375   0.417   2.356   2.182 -0.0680 -0.4770  2.5335
17320TIP3    H273376   0.417   2.232   2.096 -1.3969  1.5537 -0.5773
17321TIP3   OH273377   4.480   0.452  14.268 -0.3376  0.0527 -0.0446
17321TIP3    H173378   4.565   0.481  14.301  1.0141 -1.4988 -1.9503
17321TIP3    H273379   4.434   0.420  14.346  0.5491  1.5043  1.1181
17322TIP3   OH273380   4.774   1.350   0.690 -0.2430 -0.0253  0.2314
17322TIP3    H173381   4.719   1.427   0.705 -0.1914  0.0110  0.2338
17322TIP3    H273382   4.782   1.345   0.594 -0.0809  0.0888  0.2396
17323TIP3   OH273383   3.380   3.023  13.585 -0.6435  0.3050  0.2698
17323TIP3    H173384   3.293   3.030  13.624 -0.7464  2.0787 -0.1865
17323TIP3    H273385   3.368   2.968  13.508 -1.0658 -0.6120  0.9751
17324TIP3   OH273386   5.523   4.803   3.799  0.2576 -0.1114  0.4346
17324TIP3    H173387   5.464   4.727   3.795 -0.5891  0.4660  1.4777
17324TIP3    H273388   5.608   4.769   3.772 -0.3238 -1.2056 -0.0747
17325TIP3   OH273389   2.414   1.054  14.140  0.1216  0.0062 -0.7235
17325TIP3    H173390   2.371   0.968  14.144  0.7372 -0.3094 -0.8388
17325TIP3    H273391   2.342   1.115  14.127 -0.1586 -0.6789 -2.8045
17326TIP3   OH273392   1.272   1.480  15.849 -0.1087 -1.0229 -0.3070
17326TIP3    H173393   1.336   1.532  15.898  0.0137 -0.7992 -0.6973
17326TIP3    H273394   1.302   1.485  15.759 -0.7692 -0.7775 -0.5186
17327TIP3   OH273395   3.975   4.687  12.351 -0.1991 -0.0616  0.2594
17327TIP3    H173396   3.970   4.628  12.276 -0.8639 -0.0563  0.2969
17327TIP3    H273397   3.941   4.636  12.424 -2.1028  0.8066  0.0200
17328TIP3   OH273398   5.001   3.650   4.818  0.5319 -0.4943 -0.3910
17328TIP3    H173399   4.978   3.734   4.858 -0.6848 -0.4919 -1.0462
17328TIP3    H273400   5.089   3.664   4.782 -0.0191  0.8186 -1.3178
17329TIP3   OH273401   0.701   5.138  13.933 -0.3430 -0.0815 -0.0778
17329TIP3    H173402   0.658   5.080  13.996 -0.3691  0.6676  0.6110
17329TIP3    H273403   0.656   5.222  13.943  1.7702  0.9938  1.2967
17330TIP3   OH273404   3.482   2.225  17.030 -0.6212 -0.1342 -0.3697
17330TIP3    H173405   3.466   2.155  16.967 -0.3759 -0.4138 -0.1266
17330TIP3    H273406   3.403   2.279  17.026 -0.5230 -0.0331 -1.0558
17331TIP3   OH273407   1.637   2.781  14.830  0.1185 -0.4943 -0.4050
17331TIP3    H173408   1.608   2.705  14.779 -2.5952  0.6800 -0.7918
17331TIP3    H273409   1.582   2.853  14.798 -1.6602  0.3864  3.9813
17332TIP3   OH273410   0.185   2.376   0.998  0.1169  0.0543  0.2334
17332TIP3    H173411   0.190   2.306   1.063  0.1776 -1.0431 -0.9206
17332TIP3    H273412   0.172   2.331   0.915  1.7889  1.2957 -0.7704
17333TIP3   OH273413   1.968   1.021  15.798 -0.0686 -0.1859 -0.1686
17333TIP3    H173414   1.890   1.074  15.786 -0.0860 -0.1841 -0.0461
17333TIP3    H273415   2.040   1.084  15.799 -0.0294 -0.2187 -0.6486
17334TIP3   OH273416   5.382   1.862  12.652 -0.1851  0.2931 -0.0590
17334TIP3    H173417   5.434   1.929  12.696 -0.5272  0.6731 -0.2324
17334TIP3    H273418   5.430   1.781  12.667 -0.3798  0.3799  1.1734
17335TIP3   OH273419   6.323   1.077   5.538  0.0822  0.3108 -0.0500
17335TIP3    H173420   6.335   1.071   5.633  0.1322  2.0458  0.0870
17335TIP3    H273421   6.354   0.993   5.504 -1.0041 -0.8020  1.5572
17336TIP3   OH273422   1.835   6.279  13.228 -0.4998 -0.0695 -0.0367
17336TIP3    H173423   1.858   6.213  13.293  0.9985  1.0407  0.6312
17336TIP3    H273424   1.856   6.239  13.144  1.0298 -0.2423  0.3977
17337TIP3   OH273425   1.648   0.969  15.498  0.4827 -0.3186  0.2228
17337TIP3    H173426   1.604   0.949  15.416 -0.1841  0.0190  0.4894
17337TIP3    H273427   1.716   1.033  15.475  1.5214 -1.5826 -0.3540
17338TIP3   OH273428   3.502   1.228  14.927  0.5634 -0.1114 -0.1382
17338TIP3    H173429   3.576   1.284  14.902  0.4709 -0.7154 -1.9017
17338TIP3    H273430   3.425   1.284  14.915  0.5523 -0.2750 -0.9052
17339TIP3   OH273431   0.668   0.111  14.249  0.7837 -0.0703 -0.0097
17339TIP3    H173432   0.698   0.050  14.316  0.2515  0.7434  0.9912
17339TIP3    H273433   0.720   0.190  14.263 -1.3127  1.1586  1.3882
17340TIP3   OH273434   1.670   2.301  14.775 -0.0743 -0.3281  0.1411
17340TIP3    H173435   1.671   2.285  14.681  0.8280  3.0045 -0.5159
17340TIP3    H273436   1.592   2.354  14.790  1.1184  1.3300  0.7891
17341TIP3   OH273437   2.999   6.719  12.068 -0.3806  0.1715 -0.1796
17341TIP3    H173438   2.932   6.667  12.022  0.5159 -0.2657 -1.0257
17341TIP3    H273439   2.958   6.804  12.081 -1.3293 -0.2820 -0.1290
17342TIP3   OH273440   4.248   4.640   2.647 -0.6056  0.4762  0.4911
17342TIP3    H173441   4.164   4.603   2.674  0.1630 -0.5011  1.6485
17342TIP3    H273442   4.293   4.659   2.729  0.7054  0.0436 -0.1100
17343TIP3   OH273443   6.688   1.410   5.807 -0.4009  0.7706 -0.0033
17343TIP3    H173444   6.768   1.384   5.852 -0.2478  1.7838  0.3382
17343TIP3    H273445   6.652   1.329   5.772 -0.5842 -0.0909  2.0261
17344TIP3   OH273446   1.953   6.763  13.835 -0.1127  0.0155 -0.2730
17344TIP3    H173447   1.919   6.676  13.857 -2.8383  0.6348 -1.5444
17344TIP3    H273448   1.915   6.782  13.750  1.6286  1.8836 -0.7003
17345TIP3   OH273449   2.706   2.456   3.109 -0.5179  0.2284  0.0748
17345TIP3    H173450   2.783   2.403   3.088  0.1754 -0.1423  3.1458
17345TIP3    H273451   2.635   2.393   3.122 -0.7191  0.3821 -0.2575
17346TIP3   OH273452   6.637   5.873   3.517 -0.2653  0.1066 -0.2572
17346TIP3    H173453   6.704   5.814   3.550  0.1600  0.8272  0.1931
17346TIP3    H273454   6.628   5.850   3.424  0.9032  0.2909 -0.4213
17347TIP3   OH273455   2.100   1.615  11.463 -0.4373  0.3889  0.0355
17347TIP3    H173456   2.163   1.639  11.395  0.7612 -0.2835  0.8641
17347TIP3    H273457   2.129   1.529  11.493 -1.9847 -0.1148  0.2004
17348TIP3   OH273458   0.342   0.474  14.439 -0.2566  0.3832  0.3271
17348TIP3    H173459   0.260   0.463  14.391 -0.3759 -0.6854  0.7438
17348TIP3    H273460   0.356   0.569  14.442 -1.0410  0.5379 -0.4632
17349TIP3   OH273461   4.890   0.499   0.050 -0.1035  0.0717 -0.3833
17349TIP3    H173462   4.966   0.542   0.010 -0.0635  1.5088  1.1639
17349TIP3    H273463   4.922   0.412   0.075  0.8683  0.4651 -0.2346
17350TIP3   OH273464   5.325   6.551  14.119  0.0310 -0.3631  0.5263
17350TIP3    H173465   5.321   6.522  14.210  0.8484 -1.8577  0.1203
17350TIP3    H273466   5.412   6.591  14.110  1.9016 -4.1842 -0.5995
17351TIP3   OH273467   1.895   5.231   4.910  1.0124  0.5812 -0.5714
17351TIP3    H173468   1.980   5.238   4.954 -0.0058  1.0943  1.4283
17351TIP3    H273469   1.905   5.284   4.831  2.5434  0.6427 -0.3669
17352TIP3   OH273470   1.012   6.544   4.269 -0.2539  0.4694  0.2017
17352TIP3    H173471   1.001   6.605   4.342 -1.1818 -1.5151  1.8257
17352TIP3    H273472   1.073   6.477   4.303 -0.3986 -0.2803 -0.9705
17353TIP3   OH273473   1.741   6.138   5.098 -0.2159  0.0617  0.0468
17353TIP3    H173474   1.782   6.099   5.175  1.2836 -0.2559 -0.8810
17353TIP3    H273475   1.702   6.219   5.131  1.3121  0.4733  0.9515
17354TIP3   OH273476   3.225   0.516  11.564  0.4847 -0.8665 -0.6448
17354TIP3    H173477   3.245   0.429  11.598 -1.0611 -1.1213 -0.3007
17354TIP3    H273478   3.181   0.561  11.636 -0.6287 -0.5626 -1.4752
17355TIP3   OH273479   0.394   3.872   1.868 -0.5712  0.3345 -0.7002
17355TIP3    H173480   0.483   3.908   1.862 -0.6061  0.5431 -0.0329
17355TIP3    H273481   0.406   3.779   1.883 -0.4210  0.6445  1.3587
17356TIP3   OH273482   6.331   0.223  16.525  0.5687 -0.4009  1.0918
17356TIP3    H173483   6.358   0.150  16.469  2.6673  0.6779  0.6071
17356TIP3    H273484   6.381   0.210  16.606 -1.4992 -1.2455  2.3205
17357TIP3   OH273485   1.455   2.567   2.760  0.0145 -0.6579  0.0554
17357TIP3    H173486   1.475   2.539   2.849 -0.5227 -0.0220  0.3848
17357TIP3    H273487   1.384   2.509   2.732  1.5100 -2.1975 -0.7182
17358TIP3   OH273488   1.587   0.618   3.641  0.4329 -0.4037  0.2718
17358TIP3    H173489   1.647   0.549   3.670  2.3653  0.5964 -1.1212
17358TIP3    H273490   1.560   0.591   3.553 -1.4947 -0.9925  0.9916
17359TIP3   OH273491   3.652   3.435   0.108  0.1472 -0.3369 -0.2925
17359TIP3    H173492   3.662   3.366   0.173  1.1345  0.6503  0.6640
17359TIP3    H273493   3.597   3.501   0.151  0.0832 -0.0695 -0.7780
17360TIP3   OH273494   0.960   2.011   2.028  0.2257 -0.1966  0.2274
17360TIP3    H173495   1.051   2.038   2.033 -0.0911  0.9533  0.0921
17360TIP3    H273496   0.911   2.093   2.020 -0.9525 -0.6553  2.1503
17361TIP3   OH273497   1.076   5.380   1.403 -0.2693  0.2695  0.0875
17361TIP3    H173498   1.150   5.348   1.350  1.4731  3.0245  0.6277
17361TIP3    H273499   0.999   5.363   1.349  0.8707 -1.4373 -1.1403
17362TIP3   OH273500   4.978   4.267   1.136  0.0317  0.2843 -0.1681
17362TIP3    H173501   5.027   4.332   1.188 -0.6559 -0.2008  1.1310
17362TIP3    H273502   4.901   4.249   1.189  0.6137 -2.2283 -0.0781
17363TIP3   OH273503   1.922   0.408   3.184 -0.3434 -0.0225 -0.1421
17363TIP3    H173504   1.830   0.385   3.199 -0.2106 -0.7650 -0.4137
17363TIP3    H273505   1.962   0.328   3.149  1.1176 -0.7711  2.8732
17364TIP3   OH273506   1.480   4.789   1.027  0.0243 -0.3366  0.6360
17364TIP3    H173507   1.402   4.739   1.001 -1.4769  0.7751  2.6200
17364TIP3    H273508   1.473   4.872   0.979 -0.9517  0.3946  1.9572
17365TIP3   OH273509   3.278   6.201  11.839 -0.1937  0.7120 -0.2031
17365TIP3    H173510   3.211   6.267  11.856 -0.6327 -0.2381  2.1500
17365TIP3    H273511   3.244   6.121  11.880  2.3989  0.2364  1.2477
17366TIP3   OH273512   6.647   3.446  12.844  0.3645  0.0473 -0.3724
17366TIP3    H173513   6.663   3.388  12.918 -1.0147 -0.9364 -0.7939
17366TIP3    H273514   6.553   3.436  12.826  0.6243  0.4494 -2.0996
17367TIP3   OH273515   0.589   3.319  17.018 -0.0978  0.2508 -0.0977
17367TIP3    H173516   0.620   3.241  16.972  0.8239  1.7244 -2.0957
17367TIP3    H273517   0.498   3.329  16.990 -0.0541  0.1885 -0.2612
17368TIP3   OH273518   5.682   5.746  15.190 -0.2938 -0.3711 -0.0560
17368TIP3    H173519   5.647   5.660  15.212  0.3594 -0.8999 -1.0345
17368TIP3    H273520   5.609   5.793  15.150 -0.5272 -0.6338  0.0613
17369TIP3   OH273521   4.477   6.719  16.979 -0.4233  0.3076 -0.1651
17369TIP3    H173522   4.458   6.665  17.055  0.9354 -0.6799 -0.4914
17369TIP3    H273523   4.543   6.781  17.008 -1.7224  1.6124  0.1122
17370TIP3   OH273524   5.148   2.655   0.184  0.1270 -0.1326  0.3191
17370TIP3    H173525   5.087   2.694   0.247  0.3683  2.6081 -0.9955
17370TIP3    H273526   5.105   2.574   0.156 -1.3927  0.1199  1.7760
17371TIP3   OH273527   2.734   4.338   6.257 -0.0470 -0.4302  0.6326
17371TIP3    H173528   2.757   4.248   6.235  0.4379 -0.0731 -0.3589
17371TIP3    H273529   2.661   4.359   6.200  0.5448  0.1578  0.0725
17372TIP3   OH273530   4.790   4.104   4.573 -0.1480  0.7453 -0.1585
17372TIP3    H173531   4.704   4.141   4.593 -0.3540  0.7994 -1.1028
17372TIP3    H273532   4.780   4.066   4.486  0.9525  1.3008 -0.5449
17373TIP3   OH273533   2.147   3.045  15.421 -0.0665  0.1686 -0.4498
17373TIP3    H173534   2.059   3.079  15.434  0.1395  0.4132  0.3570
17373TIP3    H273535   2.165   3.058  15.328 -0.6200  0.7341 -0.4779
17374TIP3   OH273536   2.574   4.233   1.205  0.1170 -0.4480  0.2553
17374TIP3    H173537   2.545   4.259   1.118  2.2031  0.5405 -0.1927
17374TIP3    H273538   2.664   4.202   1.194 -0.1762 -2.0884  1.7948
17375TIP3   OH273539   0.886   0.280  17.130 -0.0457 -0.1877 -0.5621
17375TIP3    H173540   0.823   0.344  17.098  2.1101  0.7809 -3.2646
17375TIP3    H273541   0.966   0.330  17.145  0.9030 -1.7967  0.0641
17376TIP3   OH273542   6.754   0.425  15.140 -0.6821 -0.5459  0.2607
17376TIP3    H173543   6.750   0.358  15.208 -2.6736  3.0580  4.0690
17376TIP3    H273544   6.846   0.452  15.138 -0.4353 -1.3141  0.8175
17377TIP3   OH273545   1.629   2.160  14.165 -0.0542  0.4825 -0.6064
17377TIP3    H173546   1.559   2.138  14.226 -0.4928 -0.2925 -1.3666
17377TIP3    H273547   1.697   2.094  14.179  1.6153  2.5101  1.7259
17378TIP3   OH273548   0.361   4.073   0.862 -0.1186 -0.7030  0.2839
17378TIP3    H173549   0.360   4.019   0.783 -0.5550  2.4885 -2.1013
17378TIP3    H273550   0.440   4.127   0.854 -1.2517  1.1531  0.8822
17379TIP3   OH273551   3.986   6.485  12.646 -0.3792 -0.1698 -0.4990
17379TIP3    H173552   3.962   6.578  12.638 -1.7326 -0.5602 -1.1806
17379TIP3    H273553   3.906   6.442  12.675  0.2368 -1.1418 -0.2112
17380TIP3   OH273554   5.036   2.659  11.939 -0.3394 -0.2538 -0.1740
17380TIP3    H173555   5.023   2.745  11.900  0.3019 -0.8730 -1.8385
17380TIP3    H273556   4.966   2.605  11.901 -0.8292 -0.4419  0.9711
17381TIP3   OH273557   3.923   5.537  15.417  0.0511  0.0322 -0.5930
17381TIP3    H173558   3.857   5.606  15.418  0.3565  0.3981  2.4334
17381TIP3    H273559   3.881   5.462  15.460  1.1034 -0.2348  0.0037
17382TIP3   OH273560   3.459   6.221  12.790 -0.0129 -0.0759  0.1847
17382TIP3    H173561   3.530   6.215  12.854 -0.9322 -1.3096  1.1348
17382TIP3    H273562   3.384   6.253  12.841  0.1233  2.5506 -1.0688
17383TIP3   OH273563   0.090   2.769   1.326 -0.3733 -0.3057  0.0732
17383TIP3    H173564   0.047   2.773   1.241 -1.4353  1.4089  0.6419
17383TIP3    H273565   0.018   2.779   1.389  0.4357 -1.1932  1.1593
17384TIP3   OH273566   0.230   0.977   5.741 -0.9498  0.1804  0.3367
17384TIP3    H173567   0.225   0.940   5.829 -1.2832  0.5798  0.4884
17384TIP3    H273568   0.178   1.057   5.745  1.0885  1.5726  0.4630
17385TIP3   OH273569   2.746   6.188   5.269 -0.5175 -0.7931  0.2794
17385TIP3    H173570   2.742   6.283   5.268  0.9935 -0.6997 -0.8321
17385TIP3    H273571   2.787   6.165   5.186 -3.7464 -2.6096 -1.0137
17386TIP3   OH273572   1.343   1.330  15.321 -0.2785  0.3348 -0.1291
17386TIP3    H173573   1.343   1.390  15.246  0.9322  1.9628  1.0906
17386TIP3    H273574   1.281   1.370  15.383  0.5947  0.4137  0.7274
17387TIP3   OH273575   5.153   3.814  16.151 -0.4547 -0.1114 -0.2266
17387TIP3    H173576   5.098   3.892  16.158  1.2843  1.1400  0.2991
17387TIP3    H273577   5.135   3.780  16.064 -3.0478 -0.6018  0.4045
17388TIP3   OH273578   1.779   0.738  13.758 -0.6441  0.1718 -0.0219
17388TIP3    H173579   1.784   0.808  13.824 -0.1027 -0.6541  0.8320
17388TIP3    H273580   1.831   0.771  13.684 -0.2484  0.6042  0.4402
17389TIP3   OH273581   4.877   6.204   0.723 -0.2877 -0.0930 -0.6957
17389TIP3    H173582   4.791   6.239   0.701  0.5043  1.4196 -1.5286
17389TIP3    H273583   4.860   6.113   0.748 -1.8175 -0.5487 -3.1209
17390TIP3   OH273584   1.743   4.162  13.816  0.2916 -0.1171 -0.1014
17390TIP3    H173585   1.675   4.196  13.758  1.3614  0.5141 -1.0222
17390TIP3    H273586   1.822   4.208  13.790  1.6893 -2.7739 -0.9242
17391TIP3   OH273587   4.189   3.716   5.137  0.0379 -0.0272  0.0346
17391TIP3    H173588   4.210   3.677   5.052 -1.7519  0.2238 -0.5758
17391TIP3    H273589   4.115   3.774   5.118  0.3501  0.9089  1.5697
17392TIP3   OH273590   3.238   5.652   5.931  0.0004 -0.0162 -0.8355
17392TIP3    H173591   3.320   5.607   5.909  1.9263  2.4359  0.7220
17392TIP3    H273592   3.212   5.616   6.015  0.4173  0.3337 -0.5516
17393TIP3   OH273593   4.817   0.717   3.799  0.0091 -0.3081  0.6393
17393TIP3    H173594   4.892   0.709   3.859 -1.8206  0.3936  3.2050
17393TIP3    H273595   4.822   0.807   3.766  1.3868 -0.8934 -0.8817
17394TIP3   OH273596   5.188   6.429  13.151  0.1204  0.2816  0.5254
17394TIP3    H173597   5.160   6.494  13.086  0.3040 -0.1037  0.0546
17394TIP3    H273598   5.214   6.481  13.227  2.1542  0.9045 -0.5191
17395TIP3   OH273599   0.757   0.318  12.123 -0.1340  0.0453 -0.0508
17395TIP3    H173600   0.841   0.364  12.111  0.3606 -0.9730 -0.6739
17395TIP3    H273601   0.708   0.337  12.043 -0.5931  0.7855  0.3888
17396TIP3   OH273602   1.483   0.264  15.628  0.5870  0.4653 -0.1836
17396TIP3    H173603   1.519   0.338  15.675  0.6079  0.8087 -0.7288
17396TIP3    H273604   1.516   0.273  15.538  0.9932 -0.4753 -0.1422
17397TIP3   OH273605   4.274   3.979  16.121 -0.3501 -0.0275 -0.4323
17397TIP3    H173606   4.346   4.042  16.117  0.0980 -0.3449  1.6499
17397TIP3    H273607   4.317   3.894  16.115 -0.3659 -0.2622  1.9101
17398TIP3   OH273608   6.613   5.703   5.561  0.0809 -0.2757 -0.1282
17398TIP3    H173609   6.580   5.791   5.578  1.5093 -0.0636  1.9431
17398TIP3    H273610   6.535   5.647   5.560 -0.7334  0.8276 -0.2492
17399TIP3   OH273611   5.446   0.270   0.414 -0.1858  0.4669 -0.4862
17399TIP3    H173612   5.357   0.302   0.429 -0.6859 -1.3357  0.6885
17399TIP3    H273613   5.488   0.275   0.500 -1.0116 -3.9572  0.3927
17400TIP3   OH273614   1.940   2.158  16.085  0.0127 -0.0256  0.0663
17400TIP3    H173615   1.852   2.148  16.122 -0.3542  0.3809 -0.6670
17400TIP3    H273616   1.971   2.242  16.120  0.1974 -0.2619  0.4823
17401TIP3   OH273617   2.915   2.109  10.776 -0.5864 -0.2498 -0.0585
17401TIP3    H173618   2.862   2.096  10.697 -0.3244  1.8255 -0.6545
17401TIP3    H273619   3.001   2.073  10.754 -0.5460  0.2259 -0.7010
17402TIP3   OH273620   4.309   0.353   3.248  0.2774 -0.0692 -0.1175
17402TIP3    H173621   4.255   0.423   3.285  1.0752  0.0447  0.8854
17402TIP3    H273622   4.247   0.295   3.203 -0.7892 -0.3749  1.6589
17403TIP3   OH273623   0.575   3.635  11.145  0.4414  0.2615  0.4838
17403TIP3    H173624   0.550   3.585  11.223  0.3425 -0.4921 -0.0137
17403TIP3    H273625   0.494   3.677  11.117 -0.3020 -1.8908 -0.9210
17404TIP3   OH273626   0.623   1.594   4.186 -0.0468  0.7473  0.8710
17404TIP3    H173627   0.608   1.684   4.214 -0.0735  0.4436  1.8832
17404TIP3    H273628   0.708   1.571   4.225  0.2968  0.5639  0.0306
17405TIP3   OH273629   4.338   5.438   3.857 -0.3112  0.8319  0.4815
17405TIP3    H173630   4.414   5.380   3.853 -1.0236 -0.1430  0.7572
17405TIP3    H273631   4.299   5.434   3.770 -0.3668  0.8912  0.5031
17406TIP3   OH273632   3.753   2.166   2.900 -0.4740  0.3257  0.1430
17406TIP3    H173633   3.729   2.165   2.807 -0.7916 -0.4557  0.2235
17406TIP3    H273634   3.708   2.242   2.936 -1.4242 -0.1209 -0.0709
17407TIP3   OH273635   0.543   0.300   5.662  0.0388 -0.5982 -0.2921
17407TIP3    H173636   0.597   0.379   5.666  0.9053 -1.2117  0.6660
17407TIP3    H273637   0.575   0.246   5.734 -0.6939 -1.7279 -0.7916
17408TIP3   OH273638   3.316   6.742  14.351  0.7088 -0.3700 -0.8115
17408TIP3    H173639   3.375   6.716  14.421 -0.4253 -1.1446 -0.1125
17408TIP3    H273640   3.341   6.687  14.277  0.3076 -1.3142 -0.2575
17409TIP3   OH273641   1.202   0.472  12.885 -0.1000  0.5872  0.0098
17409TIP3    H173642   1.142   0.408  12.847  0.8201  0.6519 -1.6481
17409TIP3    H273643   1.228   0.528  12.812  2.0009  0.5245  0.6217
17410TIP3   OH273644   3.585   1.026   2.114 -0.5447 -0.0616  0.5319
17410TIP3    H173645   3.504   0.981   2.090 -0.3546 -0.8658  1.3510
17410TIP3    H273646   3.622   0.973   2.185  2.1187 -1.3898 -1.6314
17411TIP3   OH273647   5.595   2.566   6.135  0.3912 -0.5138 -0.5123
17411TIP3    H173648   5.519   2.525   6.095 -0.5090 -1.1066  1.7218
17411TIP3    H273649   5.575   2.660   6.133 -0.5616 -0.6898  0.3698
17412TIP3   OH273650   2.833   4.921  14.375  0.2755 -0.0613 -0.0090
17412TIP3    H173651   2.873   4.871  14.304  0.5932 -1.8829  1.3847
17412TIP3    H273652   2.903   4.932  14.439 -1.2776 -3.4705  2.5777
17413TIP3   OH273653   4.517   5.281   0.274 -0.2851  0.0658  0.8528
17413TIP3    H173654   4.595   5.234   0.244  1.2419  2.1097  1.3236
17413TIP3    H273655   4.466   5.217   0.322  0.9528 -1.4317  0.2465
17414TIP3   OH273656   2.663   1.378  16.380  0.5170  0.4565  0.1840
17414TIP3    H173657   2.713   1.298  16.363 -0.9933 -0.6874  0.8856
17414TIP3    H273658   2.650   1.378  16.475 -1.3965  0.3185 -0.0406
17415TIP3   OH273659   5.141   1.902  17.180  0.4818 -0.3287 -0.8842
17415TIP3    H173660   5.108   1.969  17.241  0.5605 -0.6467 -0.4896
17415TIP3    H273661   5.200   1.950  17.122 -0.6759  0.2521 -1.6127
17416TIP3   OH273662   4.080   5.874  15.895 -0.2297  0.1463  0.6725
17416TIP3    H173663   4.142   5.812  15.934 -0.3740 -0.2826  0.2324
17416TIP3    H273664   4.106   5.880  15.803  0.7192  1.9021  1.0089
17417TIP3   OH273665   4.943   1.008   4.340  0.0530  0.0773  0.4179
17417TIP3    H173666   4.913   1.083   4.390 -1.0203 -0.2191  0.2335
17417TIP3    H273667   4.892   0.934   4.373  1.9595 -0.8493  1.4928
17418TIP3   OH273668   4.813   4.336  11.194  0.4368  0.2865  0.1865
17418TIP3    H173669   4.881   4.386  11.151  0.8023  2.2320  2.7932
17418TIP3    H273670   4.853   4.250  11.209  1.5112  0.6934 -0.2278
17419TIP3   OH273671   4.975   1.831   0.310  0.1305 -0.0062 -0.5447
17419TIP3    H173672   4.996   1.812   0.401 -1.5744 -0.4272 -0.2089
17419TIP3    H273673   4.950   1.923   0.310 -1.9582 -0.5356 -0.1473
17420TIP3   OH273674   6.631   6.608   2.048 -0.1822 -0.1854  0.4156
17420TIP3    H173675   6.680   6.530   2.072  2.0207  0.9605 -0.0455
17420TIP3    H273676   6.694   6.680   2.058 -1.3513  1.2302 -1.5418
17421TIP3   OH273677   5.158   6.030   2.388 -0.0404 -0.2932 -0.2593
17421TIP3    H173678   5.103   6.058   2.461  1.2274  0.2142  0.5398
17421TIP3    H273679   5.134   5.938   2.373 -0.6948 -0.2419  0.4335
17422TIP3   OH273680   6.550   3.437   4.862  0.6669 -0.2058 -0.1645
17422TIP3    H173681   6.574   3.466   4.950 -1.4174 -2.5103  1.2607
17422TIP3    H273682   6.529   3.518   4.815  2.1436  1.0944  1.2888
17423TIP3   OH273683   0.298   4.569   5.440 -0.2309  0.0650 -0.5733
17423TIP3    H173684   0.280   4.511   5.366  1.4342  0.0183 -0.9929
17423TIP3    H273685   0.353   4.638   5.402 -0.3132  0.6686  0.3898
17424TIP3   OH273686   0.528   0.633   4.567  0.4780  0.3890  0.2774
17424TIP3    H173687   0.569   0.710   4.527 -2.1488  0.9067 -1.6949
17424TIP3    H273688   0.473   0.669   4.636  2.2192 -0.1780  2.0344
17425TIP3   OH273689   0.997   6.358  12.649  0.1386  0.1485 -0.6776
17425TIP3    H173690   1.036   6.317  12.726  0.4674  0.0831 -0.8770
17425TIP3    H273691   0.916   6.309  12.633  1.7900 -2.1807 -2.4796
17426TIP3   OH273692   3.104   4.491   3.746  0.4406  0.6969 -0.4435
17426TIP3    H173693   3.117   4.396   3.744 -1.7764  0.3338 -0.2342
17426TIP3    H273694   3.084   4.515   3.656 -0.2373  0.7439 -0.2871
17427TIP3   OH273695   2.602   6.302  16.273 -0.4471 -0.2174 -0.3932
17427TIP3    H173696   2.595   6.346  16.188 -1.3428 -0.2395 -0.3451
17427TIP3    H273697   2.690   6.265  16.274 -0.2163  0.2913 -1.0640
17428TIP3   OH273698   1.964   2.021  16.605 -0.4163 -0.8009  0.3225
17428TIP3    H173699   1.927   2.097  16.559  0.5524  0.6661  1.8340
17428TIP3    H273700   2.029   1.985  16.545 -1.8239 -1.3059 -0.9630
17429TIP3   OH273701   1.426   5.894   0.745  0.3498  0.0456 -0.6811
17429TIP3    H173702   1.495   5.840   0.784  0.1527  0.5751  0.4371
17429TIP3    H273703   1.439   5.885   0.650  1.0821 -0.9632 -0.4964
17430TIP3   OH273704   0.497   5.254  11.830 -0.5598 -0.0738  0.5305
17430TIP3    H173705   0.560   5.304  11.777 -0.9197  1.0237  1.1148
17430TIP3    H273706   0.549   5.222  11.904  0.1943 -2.4846 -0.9201
17431TIP3   OH273707   2.572   2.143   2.532 -0.2027  0.0479  0.4193
17431TIP3    H173708   2.652   2.119   2.484 -0.0107 -0.2075  0.8579
17431TIP3    H273709   2.507   2.079   2.504 -0.1075 -0.0622  0.4466
17432TIP3   OH273710   0.172   6.385  12.197  0.4389  0.2199 -0.0758
17432TIP3    H173711   0.120   6.465  12.196  0.2017  0.0566 -0.6444
17432TIP3    H273712   0.108   6.315  12.207  0.5881  0.0483 -0.3282
17433TIP3   OH273713   2.473   2.383   5.933 -0.2293 -0.3520  0.0456
17433TIP3    H173714   2.531   2.450   5.897  0.0254  0.4151  1.7743
17433TIP3    H273715   2.389   2.426   5.944 -0.2662 -0.5274  0.4782
17434TIP3   OH273716   2.866   5.076  12.564  0.2457 -0.1575  0.3091
17434TIP3    H173717   2.795   5.133  12.533  1.9619  1.8259 -0.2740
17434TIP3    H273718   2.877   5.099  12.656  0.7351  0.2539  0.1535
17435TIP3   OH273719   0.316   5.918  12.860 -0.1173 -0.1745  0.4005
17435TIP3    H173720   0.275   5.832  12.870  0.4669 -0.2784  2.2034
17435TIP3    H273721   0.327   5.929  12.766  0.5053 -2.4044  0.1743
17436TIP3   OH273722   1.381   6.555  15.059 -0.2377 -0.0263 -0.3487
17436TIP3    H173723   1.370   6.496  15.134  1.8422  0.9552  0.8106
17436TIP3    H273724   1.382   6.643  15.098  1.4379  0.4698 -1.4105
17437TIP3   OH273725   5.195   0.452   6.075  0.0156 -0.1248  0.4029
17437TIP3    H173726   5.288   0.434   6.078  0.0903 -0.0805 -1.0457
17437TIP3    H273727   5.165   0.439   6.165  2.0168  3.2387  1.7651
17438TIP3   OH273728   2.433   2.919   4.072 -0.1806 -0.0872 -0.3129
17438TIP3    H173729   2.516   2.884   4.041 -0.3189 -0.1584 -0.6093
17438TIP3    H273730   2.381   2.842   4.094 -0.1985 -0.0447 -0.2060
17439TIP3   OH273731   0.203   4.537   2.859 -0.7735  0.3443 -0.2120
17439TIP3    H173732   0.274   4.487   2.819 -0.2022  0.6959  0.3552
17439TIP3    H273733   0.195   4.502   2.947 -0.8421  0.7699 -0.0453
17440TIP3   OH273734   1.820   4.639  14.736  0.4458  0.2558 -0.2605
17440TIP3    H173735   1.893   4.610  14.791 -0.3653 -0.1331  0.6372
17440TIP3    H273736   1.851   4.719  14.695  1.9821 -0.7426 -1.1746
17441TIP3   OH273737   4.172   5.616  13.536  0.2159  0.2703  1.4847
17441TIP3    H173738   4.084   5.581  13.524  0.5805 -1.5496  3.3928
17441TIP3    H273739   4.202   5.637  13.448 -0.8029 -2.5700  0.3356
17442TIP3   OH273740   1.799   5.700   0.466  0.2339  0.1810 -0.5874
17442TIP3    H173741   1.705   5.714   0.478 -0.2569 -0.9636 -2.5419
17442TIP3    H273742   1.824   5.640   0.536 -0.1844  1.4630  0.7071
17443TIP3   OH273743   3.953   6.558   4.603  0.2929 -0.2048  0.7666
17443TIP3    H173744   3.878   6.501   4.587  0.7383 -0.5804 -0.0541
17443TIP3    H273745   3.984   6.532   4.690 -0.4934 -0.0818  1.0880
17444TIP3   OH273746   0.429   2.904   4.401 -0.2195  0.1840  0.1878
17444TIP3    H173747   0.446   2.943   4.315 -2.7804  0.4888 -0.2420
17444TIP3    H273748   0.420   2.979   4.460  0.2772  0.0113  0.4950
17445TIP3   OH273749   0.104   2.471   0.660  0.5285  0.4388 -0.0936
17445TIP3    H173750   0.123   2.377   0.656  1.8729  0.7253 -1.4185
17445TIP3    H273751   0.012   2.478   0.635 -0.0319 -0.6270  1.5360
17446TIP3   OH273752   3.591   3.578   5.739  0.3564 -0.0851  0.1784
17446TIP3    H173753   3.538   3.508   5.778  2.4952 -1.0914  1.5411
17446TIP3    H273754   3.672   3.577   5.791  0.8369  2.8183 -0.3779
17447TIP3   OH273755   4.279   4.781  11.331 -0.2358  0.5597  0.6167
17447TIP3    H173756   4.373   4.778  11.312 -0.2452 -2.0176  0.7326
17447TIP3    H273757   4.268   4.861  11.383  1.7783  1.1871  0.1606
17448TIP3   OH273758   4.619   1.980   3.758  0.2824 -0.6308 -0.0660
17448TIP3    H173759   4.694   1.949   3.706 -0.2783 -3.0330  0.4133
17448TIP3    H273760   4.659   2.020   3.836  1.1225 -2.4295  0.4815
17449TIP3   OH273761   3.929   2.770  15.307 -0.2704 -0.0930 -0.3639
17449TIP3    H173762   3.957   2.797  15.395 -0.0038 -1.1911 -0.0960
17449TIP3    H273763   3.833   2.767  15.312 -0.2259 -1.3869  0.3039
17450TIP3   OH273764   6.571   5.521  11.918  0.0031  0.1678 -0.3066
17450TIP3    H173765   6.603   5.464  11.849  0.4757  2.7857 -2.4313
17450TIP3    H273766   6.487   5.553  11.885 -1.2690 -0.8202  1.7788
17451TIP3   OH273767   4.258   1.779  12.631  0.0159 -0.1782  0.2213
17451TIP3    H173768   4.228   1.794  12.721 -1.7816  0.6834 -0.4811
17451TIP3    H273769   4.190   1.726  12.591  0.2974  0.2854 -0.9164
17452TIP3   OH273770   3.907   3.511  14.610  0.5366 -0.1459  0.1786
17452TIP3    H173771   3.906   3.551  14.523 -0.2381  0.7639  0.5829
17452TIP3    H273772   3.931   3.419  14.595 -0.9880 -0.3579 -1.1558
17453TIP3   OH273773   2.152   6.146  14.285  0.2802  0.3543 -0.0348
17453TIP3    H173774   2.161   6.149  14.190  0.8729  0.7916  0.0223
17453TIP3    H273775   2.239   6.118  14.316 -0.6627 -2.5422  0.2630
17454TIP3   OH273776   6.530   4.675  16.453 -0.0079  0.4305 -0.0207
17454TIP3    H173777   6.588   4.697  16.525 -0.1544 -1.5193  0.7629
17454TIP3    H273778   6.537   4.749  16.392  1.5571  1.2523  1.0967
17455TIP3   OH273779   4.514   1.395  12.349  0.0180 -0.2283  0.3328
17455TIP3    H173780   4.554   1.453  12.284 -0.4853  0.8051  0.9252
17455TIP3    H273781   4.420   1.413  12.343 -0.2114 -1.4190  0.1229
17456TIP3   OH273782   3.548   5.226  11.951  0.0488 -0.0308  0.7238
17456TIP3    H173783   3.590   5.212  12.036  0.2425  0.0621  0.6433
17456TIP3    H273784   3.599   5.173  11.890  0.9158  1.1605  0.3804
17457TIP3   OH273785   2.241   1.490  12.631 -0.6387 -0.0701  0.9905
17457TIP3    H173786   2.153   1.526  12.645 -1.1943 -0.4597 -1.0902
17457TIP3    H273787   2.225   1.400  12.601  0.4486 -0.0289  0.2457
17458TIP3   OH273788   6.269   2.674   3.619 -0.7147  0.0656  0.5704
17458TIP3    H173789   6.249   2.765   3.598  0.6204  0.6273  1.5785
17458TIP3    H273790   6.221   2.623   3.554 -1.9271  1.4571  0.3222
17459TIP3   OH273791   0.550   6.630  15.385 -0.1379  0.3531  0.3615
17459TIP3    H173792   0.628   6.575  15.390 -1.4515 -1.6865 -0.4308
17459TIP3    H273793   0.539   6.662  15.475 -0.9288 -3.1182  1.6704
17460TIP3   OH273794   2.919   0.333   2.384  0.1269 -0.4208  0.0135
17460TIP3    H173795   2.945   0.363   2.471  0.8991 -1.0173 -0.0033
17460TIP3    H273796   2.870   0.252   2.400  2.0568 -1.6997 -0.1917
17461TIP3   OH273797   1.490   5.534   5.468 -0.7451  0.4279  0.0000
17461TIP3    H173798   1.566   5.550   5.411 -0.7995 -0.3693 -0.3027
17461TIP3    H273799   1.501   5.597   5.540 -1.8044  2.9927 -1.9186
17462TIP3   OH273800   6.546   3.175   1.164  0.4278 -0.4246 -0.3882
17462TIP3    H173801   6.567   3.209   1.251 -2.0353  1.4247 -0.4005
17462TIP3    H273802   6.470   3.118   1.178  1.7357 -2.4183 -1.0201
17463TIP3   OH273803   0.125   6.670  11.743 -0.5219 -0.1498  0.0115
17463TIP3    H173804   0.182   6.593  11.737  2.3770  1.9123 -0.8240
17463TIP3    H273805   0.109   6.696  11.653 -1.3242  0.3275  0.2830
17464TIP3   OH273806   6.551   5.093  16.149  0.4575 -0.2851  0.4124
17464TIP3    H173807   6.527   5.141  16.228  1.0151 -0.2001  0.5366
17464TIP3    H273808   6.633   5.049  16.172  0.2827 -0.7865  0.0922
17465TIP3   OH273809   0.709   0.957   5.805 -0.0239 -0.3664 -0.5343
17465TIP3    H173810   0.619   0.990   5.808 -0.2982 -1.0775 -0.5635
17465TIP3    H273811   0.717   0.903   5.884  0.3304 -0.4183 -0.6030
17466TIP3   OH273812   4.086   3.362  12.431  0.1774  0.1232 -0.4737
17466TIP3    H173813   4.148   3.357  12.503 -0.5897  2.2920  0.4016
17466TIP3    H273814   4.000   3.364  12.473 -0.2587  2.1692 -1.3649
17467TIP3   OH273815   5.963   0.893  11.211  0.4522 -0.1186 -0.6656
17467TIP3    H173816   5.880   0.897  11.163 -0.5684 -0.1073  1.0072
17467TIP3    H273817   5.965   0.805  11.249  1.1980 -0.1160 -0.6891
17468TIP3   OH273818   4.461   0.379   5.563  0.3491  0.5548 -0.2292
17468TIP3    H173819   4.434   0.460   5.607 -0.5952  0.3151 -0.3290
17468TIP3    H273820   4.393   0.364   5.498  0.0605 -0.7441  0.3312
17469TIP3   OH273821   4.059   2.849  12.025  0.5755  0.4078  0.1590
17469TIP3    H173822   4.137   2.808  12.065  2.8907  3.4247 -0.8963
17469TIP3    H273823   3.997   2.777  12.015  3.4402 -2.3228  0.5104
17470TIP3   OH273824   6.465   0.613  12.642 -0.1474 -0.4528 -0.0070
17470TIP3    H173825   6.406   0.649  12.709 -0.5552 -0.8962 -0.1260
17470TIP3    H273826   6.549   0.601  12.688 -0.7520 -1.9120  0.7730
17471TIP3   OH273827   2.230   1.071  15.943  0.0505  0.2894  0.0387
17471TIP3    H173828   2.196   1.098  16.028 -0.4851 -3.2188  1.1183
17471TIP3    H273829   2.236   0.976  15.950 -0.2175 -0.1533 -3.9660
17472TIP3   OH273830   3.247   5.392  12.006 -0.3365 -0.5240 -0.1962
17472TIP3    H173831   3.185   5.421  12.073  1.2085  0.0999  1.0230
17472TIP3    H273832   3.196   5.334  11.950 -2.2549  0.7111  0.1792
17473TIP3   OH273833   3.195   6.620   5.361 -0.3337  0.0736  0.2284
17473TIP3    H173834   3.273   6.568   5.380 -0.2696 -0.2179 -0.8042
17473TIP3    H273835   3.140   6.610   5.439  0.5182  0.0292  0.8376
17474TIP3   OH273836   5.455   0.846  15.893 -0.8667 -0.1890 -0.0013
17474TIP3    H173837   5.513   0.824  15.966 -1.0944 -0.9840 -0.0455
17474TIP3    H273838   5.450   0.941  15.894  1.4772  0.0223 -0.7793
17475TIP3   OH273839   1.132   5.846  11.601  0.4784 -0.4932 -0.9667
17475TIP3    H173840   1.189   5.777  11.566  1.7137  0.1614 -0.2845
17475TIP3    H273841   1.105   5.813  11.687  1.2277 -0.0663 -0.5555
17476TIP3   OH273842   4.366   3.389  15.544  0.1980  0.2408  0.1541
17476TIP3    H173843   4.348   3.478  15.515 -0.4332 -0.6747 -2.6917
17476TIP3    H273844   4.308   3.376  15.619 -1.6250  1.4896 -0.9327
17477TIP3   OH273845   5.979   4.700  13.762 -0.0335 -0.3342  0.0767
17477TIP3    H173846   6.022   4.769  13.712 -0.2138 -0.3455 -0.0922
17477TIP3    H273847   5.969   4.737  13.850 -0.7664  0.1227 -0.1911
17478TIP3   OH273848   1.010   6.141   5.779 -0.0284 -0.1013 -1.0985
17478TIP3    H173849   0.985   6.052   5.755  0.6970 -0.7359  0.3651
17478TIP3    H273850   0.938   6.172   5.833  0.7131 -0.6421  0.2318
17479TIP3   OH273851   2.299   4.234   1.325 -0.1995  0.6905  0.2919
17479TIP3    H173852   2.391   4.224   1.301  0.4778  1.8162  2.1854
17479TIP3    H273853   2.301   4.279   1.409 -2.4791 -0.2967  0.9443
17480TIP3   OH273854   4.838   5.831   3.226  0.1465  0.0940 -0.1768
17480TIP3    H173855   4.841   5.924   3.202 -0.9687 -0.0612 -0.9754
17480TIP3    H273856   4.839   5.831   3.321 -2.4653  1.0736 -0.0742
17481TIP3   OH273857   1.097   0.773  14.637  0.1961 -0.2746  0.4001
17481TIP3    H173858   1.022   0.716  14.622  0.2048 -0.2347  0.2033
17481TIP3    H273859   1.173   0.723  14.607  0.3026 -0.4880  1.0037
17482TIP3   OH273860   4.545   1.835   2.371  0.3540 -0.0323 -0.5148
17482TIP3    H173861   4.586   1.911   2.330  1.2967 -0.4506 -0.3681
17482TIP3    H273862   4.579   1.835   2.460  0.8379 -0.9679 -0.6910
17483TIP3   OH273863   6.327   2.388  12.723  0.4710 -0.1325  0.4262
17483TIP3    H173864   6.330   2.404  12.817 -1.1774  1.6018  0.2669
17483TIP3    H273865   6.273   2.459  12.689  0.1182 -1.3283 -1.7032
17484TIP3   OH273866   5.352   3.954   2.586 -0.0447  0.2994 -0.2007
17484TIP3    H173867   5.402   4.035   2.580  0.6180  0.0458  1.5028
17484TIP3    H273868   5.361   3.914   2.499  1.2608  1.0811 -0.4501
17485TIP3   OH273869   0.505   1.384  11.473  0.2877 -0.2705 -0.7319
17485TIP3    H173870   0.498   1.468  11.428 -0.9691  0.7605  1.2184
17485TIP3    H273871   0.597   1.377  11.496  0.2598  1.0453 -0.1273
17486TIP3   OH273872   0.521   2.373  13.440 -0.5688 -0.5070  0.4983
17486TIP3    H173873   0.467   2.450  13.424 -1.3706 -1.1436  0.0379
17486TIP3    H273874   0.581   2.399  13.510 -1.0405  0.4233  0.5681
17487TIP3   OH273875   3.709   1.744  14.795  0.1266 -0.6507  0.5492
17487TIP3    H173876   3.617   1.757  14.773  0.0603  2.0371  1.9385
17487TIP3    H273877   3.756   1.761  14.713 -0.5141  0.9005  0.4646
17488TIP3   OH273878   0.013   3.220   6.134  0.2894  0.0879  0.0380
17488TIP3    H173879   0.029   3.292   6.196 -0.0336  0.3161 -0.1418
17488TIP3    H273880  -0.082   3.209   6.135  0.0872  1.3303 -1.7892
17489TIP3   OH273881   4.165   1.066  10.703 -0.1548 -0.1569  0.0848
17489TIP3    H173882   4.109   1.031  10.633  2.2303  1.6268 -2.9494
17489TIP3    H273883   4.104   1.111  10.762 -2.2735 -1.6883 -0.7918
17490TIP3   OH273884   3.900   3.472   2.804 -0.0108 -0.1676 -0.3799
17490TIP3    H173885   3.965   3.412   2.843 -2.3970 -1.7007  1.5706
17490TIP3    H273886   3.920   3.471   2.711  3.9605  1.0434  0.2894
17491TIP3   OH273887   4.489   2.012  12.722  0.1485  0.0526  0.0850
17491TIP3    H173888   4.522   1.923  12.716  1.5003  0.5568 -0.4427
17491TIP3    H273889   4.420   2.017  12.656 -0.3343 -0.7518  0.5164
17492TIP3   OH273890   1.276   3.505  15.709  0.1953 -0.1458  0.0097
17492TIP3    H173891   1.223   3.583  15.725 -2.8657 -2.0796  0.0926
17492TIP3    H273892   1.314   3.483  15.795 -0.4981  0.1671  0.4000
17493TIP3   OH273893   1.273   3.720   1.453 -0.1736 -0.4601 -0.8392
17493TIP3    H173894   1.214   3.795   1.448 -1.8522 -1.5830  0.7004
17493TIP3    H273895   1.257   3.671   1.372  1.1200  0.8926 -1.9761
17494TIP3   OH273896   1.677   0.398  11.074 -0.1447 -0.0457 -0.2024
17494TIP3    H173897   1.592   0.355  11.087 -0.5691  1.0969  1.0343
17494TIP3    H273898   1.657   0.474  11.019 -0.3707  1.4403  1.8124
17495TIP3   OH273899   3.660   1.778  17.007 -0.3089 -0.2516  0.2822
17495TIP3    H173900   3.686   1.850  17.065  0.5296  1.7754 -2.3510
17495TIP3    H273901   3.731   1.773  16.943 -1.9568 -1.1066 -1.5807
17496TIP3   OH273902   4.304   2.451  13.892 -0.3905 -0.2637 -0.0763
17496TIP3    H173903   4.400   2.449  13.886 -0.4602 -1.0304 -1.4362
17496TIP3    H273904   4.285   2.522  13.954  1.0515 -0.2085  0.3462
17497TIP3   OH273905   6.086   6.705   5.751 -0.0467  0.6290 -0.6348
17497TIP3    H173906   6.088   6.694   5.846 -1.0230  0.0954 -0.6668
17497TIP3    H273907   6.114   6.795   5.736  0.9836  0.4462  0.0942
17498TIP3   OH273908   3.069   3.686  17.061 -0.1385 -0.0598  0.2589
17498TIP3    H173909   3.025   3.680  16.977  1.2682  0.3509 -0.5251
17498TIP3    H273910   3.135   3.754  17.050  0.9005 -0.8509  1.3062
17499TIP3   OH273911   3.968   3.804  12.487  0.4671  0.6029 -0.2930
17499TIP3    H173912   4.059   3.778  12.479  0.4760  0.1269  1.1407
17499TIP3    H273913   3.963   3.888  12.439  1.8712  1.1248  0.4262
17500TIP3   OH273914   3.063   1.208  10.874 -0.2774 -0.0170  0.5454
17500TIP3    H173915   3.114   1.184  10.952 -1.0367 -0.0060  1.0505
17500TIP3    H273916   3.100   1.154  10.804  2.1872  1.8301  0.2985
17501TIP3   OH273917   6.213   2.762   4.847 -0.3837  0.2827 -0.1021
17501TIP3    H173918   6.292   2.816   4.843  0.7745 -1.3160  0.4442
17501TIP3    H273919   6.226   2.696   4.779 -0.7037 -0.6793  0.7506
17502TIP3   OH273920   6.306   5.935   1.226  0.5207  0.3212 -0.1623
17502TIP3    H173921   6.222   5.891   1.242  1.1924 -0.0924  2.6830
17502TIP3    H273922   6.294   6.023   1.261  1.0147  0.5465 -0.5521
17503TIP3   OH273923   2.928   3.627   6.416 -0.4898  0.0676  0.0041
17503TIP3    H173924   2.925   3.722   6.412 -1.4560  0.0915  0.7283
17503TIP3    H273925   2.902   3.606   6.506  1.7792 -0.8195  0.5112
17504TIP3   OH273926   2.716   0.104  12.270 -0.4054 -0.3042  0.5059
17504TIP3    H173927   2.659   0.126  12.344  0.1518  1.3687  0.4777
17504TIP3    H273928   2.783   0.047  12.307  0.7504  1.7149  1.6972
17505TIP3   OH273929   3.105   2.411   2.059  0.5275 -0.3841 -0.0779
17505TIP3    H173930   3.171   2.450   2.002 -0.2645 -2.6197 -2.8237
17505TIP3    H273931   3.108   2.317   2.038 -4.1898 -0.5371 -1.3731
17506TIP3   OH273932   4.211   6.741   3.836 -0.3348 -0.0370  0.0651
17506TIP3    H173933   4.286   6.691   3.868  1.1815  1.8639 -0.3183
17506TIP3    H273934   4.178   6.690   3.761 -1.2543 -2.3209  1.8932
17507TIP3   OH273935   0.775   4.877   0.727  0.1413  0.4542 -0.3217
17507TIP3    H173936   0.706   4.828   0.683 -0.1613  0.1693  0.4604
17507TIP3    H273937   0.849   4.874   0.666 -0.1102 -0.3393 -0.5961
17508TIP3   OH273938   0.458   3.336  15.319 -0.1727 -0.1366  0.2460
17508TIP3    H173939   0.439   3.326  15.225 -2.4350 -2.1412  0.8394
17508TIP3    H273940   0.443   3.429  15.337 -0.5194  0.1073 -1.1884
17509TIP3   OH273941   1.000   1.350  16.474 -0.1626 -0.0103  0.1599
17509TIP3    H173942   0.970   1.319  16.388 -0.1492 -0.1093  0.1911
17509TIP3    H273943   0.944   1.425  16.494  0.9061  1.0762 -0.7076
17510TIP3   OH273944   1.168   5.788   6.038  0.0816 -0.0271 -0.2860
17510TIP3    H173945   1.218   5.746   6.108  0.6814 -2.3745 -1.9815
17510TIP3    H273946   1.126   5.863   6.079  0.7308 -1.0732  2.4649
17511TIP3   OH273947   3.594   1.599  11.914 -0.1343  0.8924  0.3407
17511TIP3    H173948   3.571   1.611  11.822 -0.7097  1.8641  0.5871
17511TIP3    H273949   3.684   1.632  11.921  0.4931 -0.6346 -0.1549
17512TIP3   OH273950   1.835   2.214   0.488 -0.2372  0.0879  0.4434
17512TIP3    H173951   1.780   2.136   0.477 -0.7553  0.3336  1.2195
17512TIP3    H273952   1.789   2.282   0.439  0.1686 -0.0646 -0.1593
17513TIP3   OH273953   1.355   1.213  16.725 -0.1414 -0.5205  0.2120
17513TIP3    H173954   1.322   1.132  16.685  0.9132 -0.8628  0.0182
17513TIP3    H273955   1.280   1.273  16.720 -0.8701 -1.4007  0.1576
17514TIP3   OH273956   3.698   4.242  15.629  0.0736  0.4429 -0.0672
17514TIP3    H173957   3.709   4.335  15.652  0.8259  0.3380  0.0198
17514TIP3    H273958   3.672   4.243  15.537  0.0614  0.7390 -0.0634
17515TIP3   OH273959   5.760   2.626  13.544 -0.1109  0.6906 -0.1191
17515TIP3    H173960   5.684   2.568  13.555  1.1597 -0.9819  0.3255
17515TIP3    H273961   5.794   2.603  13.458  2.2018 -1.5965  1.2633
17516TIP3   OH273962   1.338   3.598  13.206 -1.2446 -0.4210 -0.6887
17516TIP3    H173963   1.287   3.678  13.192  0.8248  0.9525 -0.8453
17516TIP3    H273964   1.348   3.592  13.301 -0.3373  0.2765 -0.7183
17517TIP3   OH273965   0.644   0.228  10.795  0.2258  0.0138 -0.0575
17517TIP3    H173966   0.677   0.148  10.836 -0.6705 -0.4722 -0.2689
17517TIP3    H273967   0.722   0.275  10.767  0.7823 -0.5047  0.5956
17518TIP3   OH273968   3.532   2.576  13.368 -0.5075 -0.3542 -0.6249
17518TIP3    H173969   3.456   2.550  13.316  0.6152 -2.0294 -1.5475
17518TIP3    H273970   3.509   2.662  13.403 -3.6931 -1.6464  0.9085
17519TIP3   OH273971   6.524   3.988  16.541 -0.4004 -0.4313  0.2683
17519TIP3    H173972   6.473   3.957  16.615 -1.8988  0.2082 -0.4596
17519TIP3    H273973   6.567   4.068  16.573 -0.8189 -0.3097  0.5349
17520TIP3   OH273974   0.892   2.652   0.918  0.1474  0.2643 -0.1029
17520TIP3    H173975   0.837   2.575   0.935  2.7964 -1.5550  1.0835
17520TIP3    H273976   0.855   2.721   0.972  0.1648 -1.4963  2.3371
17521TIP3   OH273977   0.780   1.070   3.021 -0.5105  0.6078  0.4061
17521TIP3    H173978   0.704   1.030   2.979 -0.4977  0.5434  0.4446
17521TIP3    H273979   0.853   1.015   2.995 -0.6742 -0.1435  1.5089
17522TIP3   OH273980   3.264   3.996   3.985  0.3196  0.6927  0.0982
17522TIP3    H173981   3.285   3.919   4.037  0.5712 -0.0583 -1.0666
17522TIP3    H273982   3.187   3.971   3.934 -0.6229  1.8108  0.9250
17523TIP3   OH273983   3.784   2.434  16.692  0.1358  0.3084 -0.1083
17523TIP3    H173984   3.707   2.470  16.648  1.0685  3.7984  0.8335
17523TIP3    H273985   3.753   2.409  16.779 -0.3284 -0.3061 -0.4426
17524TIP3   OH273986   2.929   4.213  16.448  0.2796 -0.3106 -0.1215
17524TIP3    H173987   2.875   4.143  16.410  1.5372 -0.2874 -2.0742
17524TIP3    H273988   2.965   4.174  16.528 -1.9298 -0.5822  0.8418
17525TIP3   OH273989   1.005   2.212  12.874  0.0133 -0.3794 -0.0439
17525TIP3    H173990   0.990   2.209  12.969 -0.8593 -2.3809 -0.2104
17525TIP3    H273991   1.075   2.149  12.859 -0.3991 -0.6592 -0.8236
17526TIP3   OH273992   2.820   2.813  11.280  0.3148  0.6427 -0.6794
17526TIP3    H173993   2.757   2.753  11.240 -0.7197  2.0355 -1.2342
17526TIP3    H273994   2.906   2.779  11.256 -0.2343 -0.8022 -0.6657
17527TIP3   OH273995   3.954   0.627  14.566  0.1611 -0.1509  0.8425
17527TIP3    H173996   3.931   0.713  14.602 -0.3677 -0.2950  0.8549
17527TIP3    H273997   3.870   0.580  14.560  0.5950 -1.1085  1.9925
17528TIP3   OH273998   4.890   1.041  16.921  0.1243  0.2277  0.2007
17528TIP3    H173999   4.911   1.128  16.956  0.7928  0.2667 -0.2739
17528TIP3    H274000   4.947   1.032  16.844  0.5099 -0.8817  0.5972
17529TIP3   OH274001   5.538   3.133   5.665 -0.1243  0.7723  0.4112
17529TIP3    H174002   5.533   3.038   5.673 -2.8062  0.7748 -0.3964
17529TIP3    H274003   5.597   3.147   5.591 -1.4288 -0.3830 -0.9014
17530TIP3   OH274004   5.736   6.141  15.314 -0.0325  0.3195  0.1315
17530TIP3    H174005   5.667   6.087  15.352  0.4496  0.2094  0.8726
17530TIP3    H274006   5.711   6.152  15.222 -1.9486  1.7072  0.7606
17531TIP3   OH274007   2.790   2.083   3.187 -0.4878  0.0261  0.2972
17531TIP3    H174008   2.714   2.137   3.211 -1.4922 -1.8369  1.5899
17531TIP3    H274009   2.787   2.079   3.091 -0.5495  1.9803  0.1847
17532TIP3   OH274010   0.500   5.037  17.283 -0.0041 -0.3777  0.0952
17532TIP3    H174011   0.492   5.107  17.348 -0.8766 -0.3289 -0.0605
17532TIP3    H274012   0.411   5.003  17.274  0.0944 -0.3283 -1.1374
17533TIP3   OH274013   1.958   5.797   0.141 -0.5144 -0.0366  0.0156
17533TIP3    H174014   1.935   5.890   0.142 -0.7825 -0.0531 -1.8684
17533TIP3    H274015   2.033   5.791   0.083 -0.2758 -0.9739  0.3910
17534TIP3   OH274016   1.569   2.883  12.464  0.3128  0.3144 -0.3461
17534TIP3    H174017   1.548   2.835  12.384  0.3898  0.8381 -0.6875
17534TIP3    H274018   1.489   2.933  12.483 -0.7940 -2.0240  1.5699
17535TIP3   OH274019   3.446   3.247   4.439 -0.3312  0.3498 -0.4207
17535TIP3    H174020   3.485   3.163   4.414 -0.6385  0.4344 -1.2017
17535TIP3    H274021   3.434   3.240   4.534 -1.5134 -0.9722 -0.6410
17536TIP3   OH274022   5.956   1.614   2.247  0.3654  0.0851 -0.0410
17536TIP3    H174023   5.894   1.551   2.283  0.6526  0.0358  0.3807
17536TIP3    H274024   5.984   1.666   2.322  0.8048  0.1273 -0.2281
17537TIP3   OH274025   0.410   4.909   3.370 -0.0246 -0.1189 -0.2642
17537TIP3    H174026   0.414   4.815   3.385  1.8679  0.1073  0.9159
17537TIP3    H274027   0.420   4.919   3.275 -1.3990 -1.1065 -0.5514
17538TIP3   OH274028   6.355   0.821  14.242  0.0696 -0.1324 -0.0689
17538TIP3    H174029   6.319   0.781  14.164  0.9932  0.0208 -0.5948
17538TIP3    H274030   6.315   0.908  14.246 -0.5813 -0.4312  0.0854
17539TIP3   OH274031   6.161   5.567   5.948 -0.6524 -0.0163 -0.0511
17539TIP3    H174032   6.134   5.650   5.907 -0.3789  0.1525  0.1123
17539TIP3    H274033   6.096   5.504   5.917 -1.4756  0.4672  0.6586
17540TIP3   OH274034   3.802   6.722   5.360 -0.2182 -0.2162 -0.0396
17540TIP3    H174035   3.800   6.721   5.455  0.1032 -1.3603 -0.0264
17540TIP3    H274036   3.817   6.814   5.337  2.9874 -0.3281  1.1023
17541TIP3   OH274037   4.069   4.649   3.189 -0.3365 -0.4492  0.1458
17541TIP3    H174038   4.104   4.613   3.108  0.8173  0.3715  0.2557
17541TIP3    H274039   4.019   4.577   3.228 -2.2071 -0.4364 -1.9904
17542TIP3   OH274040   1.507   3.980  12.448  0.2861 -0.0368  0.3683
17542TIP3    H174041   1.423   3.958  12.490  0.0794  0.0680  0.0177
17542TIP3    H274042   1.560   4.017  12.518 -0.7879  2.0997  0.1483
17543TIP3   OH274043   2.340   3.773  10.841  0.1157  0.1670  0.2711
17543TIP3    H174044   2.421   3.786  10.890  0.0079 -0.4073  0.6183
17543TIP3    H274045   2.312   3.684  10.865  0.2500 -0.2681 -1.1139
17544TIP3   OH274046   0.408   6.550   0.839  0.1553  0.0136 -0.2251
17544TIP3    H174047   0.468   6.580   0.907 -2.5657  0.7134  2.0467
17544TIP3    H274048   0.321   6.565   0.875 -1.4957  0.5789 -3.9734
17545TIP3   OH274049   3.357   2.922  15.918 -0.2943 -0.3432  0.2906
17545TIP3    H174050   3.361   2.827  15.912  0.5501 -0.2377 -1.4149
17545TIP3    H274051   3.266   2.941  15.940 -0.4124 -1.5475  0.9078
17546TIP3   OH274052   0.458   3.702  16.803  0.2798  0.0645 -0.8924
17546TIP3    H174053   0.527   3.754  16.844 -0.2389 -0.5799  0.8595
17546TIP3    H274054   0.486   3.694  16.712  2.8173 -0.6726 -0.1287
17547TIP3   OH274055   6.293   4.448   5.197 -0.4031  0.2374  0.6186
17547TIP3    H174056   6.388   4.446   5.205 -0.4503  0.6536  1.3392
17547TIP3    H274057   6.266   4.357   5.210 -0.2429  0.4106  2.4126
17548TIP3   OH274058   4.085   4.247  11.313  0.6281 -0.7475 -0.3514
17548TIP3    H174059   4.165   4.300  11.314  0.2271 -0.0876 -1.2675
17548TIP3    H274060   4.104   4.177  11.250  0.6372 -0.8208 -0.2660
17549TIP3   OH274061   2.957   1.599   3.287 -0.2444  0.3247 -0.6333
17549TIP3    H174062   2.925   1.584   3.198 -1.7371 -0.7451  0.0519
17549TIP3    H274063   2.952   1.694   3.299 -2.1390  0.2853 -0.9531
17550TIP3   OH274064   5.898   3.296   4.384 -0.0747  0.2877  0.6460
17550TIP3    H174065   5.916   3.296   4.478  1.2162  0.8616  0.4274
17550TIP3    H274066   5.971   3.247   4.346 -1.6614 -1.7882  0.0871
17551TIP3   OH274067   1.643   5.447  16.292 -0.0316 -0.0080 -0.6003
17551TIP3    H174068   1.649   5.541  16.279  0.1040  0.2761  1.2747
17551TIP3    H274069   1.628   5.411  16.204 -0.4654  1.7780 -1.2844
17552TIP3   OH274070   5.649   3.450   4.345 -0.1919 -0.0258 -0.7443
17552TIP3    H174071   5.615   3.420   4.430 -0.6720 -0.7713 -1.1818
17552TIP3    H274072   5.737   3.412   4.340  0.1727  0.7346 -0.2155
17553TIP3   OH274073   0.845   0.867   0.040 -0.0144  0.5931  0.4414
17553TIP3    H174074   0.780   0.824  -0.015  1.0861 -0.9177  0.2738
17553TIP3    H274075   0.869   0.801   0.105 -0.7744  2.1030  2.3595
17554TIP3   OH274076   5.461   5.733   4.766  0.0332 -0.3199 -0.1601
17554TIP3    H174077   5.551   5.699   4.764  0.8170  1.5239  1.0279
17554TIP3    H274078   5.448   5.759   4.857 -1.3690  0.3304 -0.5263
17555TIP3   OH274079   0.070   1.846   5.774  0.0547 -0.3576 -0.3755
17555TIP3    H174080   0.151   1.808   5.741 -0.7647 -1.2290 -1.4783
17555TIP3    H274081   0.036   1.780   5.835  0.1368 -0.0179  0.0439
17556TIP3   OH274082   5.909   3.117   0.359  0.4489  0.1309  0.3066
17556TIP3    H174083   5.863   3.201   0.359 -1.1882 -0.7038 -0.5797
17556TIP3    H274084   5.989   3.133   0.310 -0.1583  1.0342 -0.4370
17557TIP3   OH274085   2.911   1.166   6.203 -0.5494 -0.1092  0.3302
17557TIP3    H174086   2.982   1.214   6.162 -0.0249 -0.0666  1.2653
17557TIP3    H274087   2.910   1.082   6.158  0.4622 -0.3157  0.6650
17558TIP3   OH274088   6.695   5.171  11.445  0.7330  0.6176  0.2442
17558TIP3    H174089   6.622   5.232  11.452  0.6361  0.3825  1.6825
17558TIP3    H274090   6.731   5.167  11.534  1.2855 -0.7571 -0.0171
17559TIP3   OH274091   0.461   0.903   0.375 -0.2248  0.0068 -0.1224
17559TIP3    H174092   0.401   0.882   0.447  1.2087 -0.2784  1.0419
17559TIP3    H274093   0.502   0.820   0.353  1.5927  0.5842  0.8743
17560TIP3   OH274094   4.266   3.074   6.114 -0.1029  0.3205 -0.3422
17560TIP3    H174095   4.210   3.134   6.163 -0.3785 -1.4704  1.6849
17560TIP3    H274096   4.207   3.032   6.051 -0.6426 -0.1961  0.4942
17561TIP3   OH274097   6.078   6.328  16.671 -0.5671 -0.5039  0.2146
17561TIP3    H174098   6.006   6.360  16.726  0.9861  1.2747  1.3546
17561TIP3    H274099   6.058   6.360  16.583 -2.0033 -1.5352  0.1346
17562TIP3   OH274100   0.225   3.987  13.318  0.3993  0.2443 -0.1107
17562TIP3    H174101   0.303   3.937  13.342  0.8228  0.4953 -0.9250
17562TIP3    H274102   0.152   3.928  13.335  0.8457 -0.4039 -0.4152
17563TIP3   OH274103   1.117   4.498  13.494  0.2269  0.4041 -0.0905
17563TIP3    H174104   1.201   4.503  13.539  0.6072  0.0852 -0.7473
17563TIP3    H274105   1.133   4.535  13.407  0.0828 -1.0032 -0.7464
17564TIP3   OH274106   3.825   3.218  14.902 -0.1356  0.6753  0.1886
17564TIP3    H174107   3.788   3.132  14.923 -1.1162  1.0945  0.2674
17564TIP3    H274108   3.778   3.246  14.824  2.5238 -0.2712 -1.8957
17565TIP3   OH274109   2.184   5.393  15.659  0.3597  0.1355 -0.1645
17565TIP3    H174110   2.194   5.418  15.751  1.7991  0.5214 -0.3956
17565TIP3    H274111   2.197   5.475  15.611  2.3311 -0.4891 -0.8105
17566TIP3   OH274112   5.787   6.414  12.280  0.2471  0.3483  0.6482
17566TIP3    H174113   5.802   6.382  12.191 -0.7268 -1.4041  1.0597
17566TIP3    H274114   5.715   6.477  12.271 -1.9671 -2.0240  0.4773
17567TIP3   OH274115   5.196   5.319   4.099  0.3872  0.6346 -0.2873
17567TIP3    H174116   5.252   5.321   4.177  0.3894 -2.5386 -0.0865
17567TIP3    H274117   5.252   5.282   4.031 -0.8147 -0.5697 -0.6524
17568TIP3   OH274118   4.405   2.002   5.133  0.7011 -0.0724 -0.2858
17568TIP3    H174119   4.359   1.922   5.158 -1.9496  1.0060 -1.2880
17568TIP3    H274120   4.362   2.029   5.051  3.4364  0.8887 -1.5182
17569TIP3   OH274121   2.223   5.720   2.443 -0.1579  0.1451 -0.0754
17569TIP3    H174122   2.150   5.767   2.402  1.1663  1.0829 -1.4680
17569TIP3    H274123   2.300   5.753   2.398  1.1371 -0.8458  1.3426
17570TIP3   OH274124   0.260   4.698  14.704  0.3221  0.7324  0.2908
17570TIP3    H174125   0.173   4.680  14.741  0.7264  1.8773  1.8814
17570TIP3    H274126   0.262   4.794  14.694  1.0499  0.6298 -0.7014
17571TIP3   OH274127   3.701   3.381   3.445  0.4060  0.1488  0.4450
17571TIP3    H174128   3.767   3.434   3.400  0.7021  0.2450  0.9889
17571TIP3    H274129   3.619   3.428   3.432  0.5291  0.2967  0.2025
17572TIP3   OH274130   4.535   1.752   0.495  0.4491  0.1888  0.6764
17572TIP3    H174131   4.595   1.803   0.440  0.5260  0.6557  1.1745
17572TIP3    H274132   4.464   1.726   0.436  0.3744  0.9355  0.4214
17573TIP3   OH274133   2.081   3.606   2.321  0.0928  0.2430 -0.1571
17573TIP3    H174134   1.987   3.608   2.303 -0.2323  0.3107  1.4756
17573TIP3    H274135   2.103   3.513   2.327 -0.0027  0.2403  0.1421
17574TIP3   OH274136   5.803   4.542  14.756 -0.3608  0.3162  0.1114
17574TIP3    H174137   5.819   4.623  14.707 -0.3864  0.8651  0.9902
17574TIP3    H274138   5.848   4.474  14.705  1.8024  1.2569  0.6469
17575TIP3   OH274139   3.674   4.548  15.014  0.1737 -0.0255 -0.1581
17575TIP3    H174140   3.716   4.562  14.929  3.0961 -0.2756  1.1405
17575TIP3    H274141   3.623   4.628  15.028 -0.4454 -0.0085 -2.1136
17576TIP3   OH274142   4.718   2.659  14.089  0.2604 -0.1749  0.3846
17576TIP3    H174143   4.730   2.620  14.176  0.8392  0.4143  0.5844
17576TIP3    H274144   4.694   2.750  14.107  0.9732  0.1142 -0.0647
17577TIP3   OH274145   6.242   5.395   6.234  0.1715 -0.3205  0.1149
17577TIP3    H174146   6.283   5.389   6.320  1.7287 -0.3086 -0.5847
17577TIP3    H274147   6.211   5.486   6.229 -1.6446 -0.8222  1.3547
17578TIP3   OH274148   0.156   5.762   1.387 -0.7535  0.0583 -0.0225
17578TIP3    H174149   0.214   5.838   1.390 -1.4657  0.5802  0.9764
17578TIP3    H274150   0.211   5.688   1.411 -0.1088  0.2760 -0.7704
17579TIP3   OH274151   5.971   2.320   4.733  0.3750 -0.6472 -0.8402
17579TIP3    H174152   5.986   2.297   4.641  1.0367  0.3573 -0.9989
17579TIP3    H274153   5.919   2.400   4.729  1.8414  0.3701 -0.3843
17580TIP3   OH274154   5.300   0.575  14.763 -0.4392  0.1528 -0.1775
17580TIP3    H174155   5.320   0.630  14.686 -0.4559  0.7691  0.2469
17580TIP3    H274156   5.208   0.554  14.754 -0.0859 -1.0797 -1.1345
17581TIP3   OH274157   2.215   2.707   5.241 -0.1728 -0.4256  0.1633
17581TIP3    H174158   2.243   2.630   5.191 -0.5604 -0.0671 -0.6211
17581TIP3    H274159   2.272   2.777   5.211 -0.7780 -0.0801 -0.1926
17582TIP3   OH274160   2.531   5.102   2.500 -0.3453  0.3580  0.2929
17582TIP3    H174161   2.517   5.020   2.548  1.0538  0.2613  0.5847
17582TIP3    H274162   2.624   5.100   2.476 -0.3177  1.8062  0.1940
17583TIP3   OH274163   0.860   4.003   0.861 -0.0102  0.1931 -0.1468
17583TIP3    H174164   0.883   4.082   0.910 -2.4929  0.5782  0.5645
17583TIP3    H274165   0.770   3.985   0.886  0.3275 -2.6487 -0.6528
17584TIP3   OH274166   4.558   6.391   5.299 -0.1113 -0.1507  0.4066
17584TIP3    H174167   4.522   6.302   5.306  2.6090 -1.4468 -0.9047
17584TIP3    H274168   4.505   6.433   5.231 -0.1461 -1.4833 -0.4269
17585TIP3   OH274169   2.906   0.957  16.161  0.6815 -0.4038 -0.1804
17585TIP3    H174170   2.812   0.938  16.164  0.1203  2.0881  1.1811
17585TIP3    H274171   2.936   0.917  16.080 -1.7075 -0.6659 -1.0356
17586TIP3   OH274172   4.327   0.966  17.062  0.9444  0.4638  0.6426
17586TIP3    H174173   4.275   0.947  16.984  1.0219  1.2455  0.3888
17586TIP3    H274174   4.415   0.980  17.029  2.1503 -3.8999  1.3455
17587TIP3   OH274175   5.947   4.126   2.650 -0.2648  0.9637  0.1175
17587TIP3    H174176   6.032   4.098   2.616  0.4925  1.0313  1.8341
17587TIP3    H274177   5.885   4.109   2.579  1.1148  0.5334 -1.0194
17588TIP3   OH274178   3.024   6.569   4.909  0.3325  0.3367 -0.2321
17588TIP3    H174179   3.020   6.590   5.002 -1.6564  0.1665 -0.2499
17588TIP3    H274180   2.942   6.603   4.873  0.6933 -0.3439 -1.7730
17589TIP3   OH274181   6.050   3.425   0.520 -0.0393 -0.2292 -0.5138
17589TIP3    H174182   6.087   3.344   0.555  0.2125  0.7122  1.5192
17589TIP3    H274183   5.961   3.402   0.494 -0.1382 -1.0484  0.4995
17590TIP3   OH274184   0.727   3.048  12.519  0.1666 -0.1978  0.1827
17590TIP3    H174185   0.641   3.073  12.485 -0.2456 -1.1000  0.5077
17590TIP3    H274186   0.759   2.983  12.456  0.3906 -0.2234  0.3225
17591TIP3   OH274187   3.461   4.526  14.641  0.2939  0.5584 -0.1113
17591TIP3    H174188   3.506   4.578  14.707 -0.5358  1.0105  0.1129
17591TIP3    H274189   3.463   4.436  14.676 -0.5516  0.8652  0.7743
17592TIP3   OH274190   4.891   2.221   5.426  0.2152  0.3093 -0.5783
17592TIP3    H174191   4.960   2.159   5.448  2.0280  2.0301 -1.0749
17592TIP3    H274192   4.810   2.176   5.448  1.5444 -0.7442  2.8365
17593TIP3   OH274193   4.382   3.667  13.692 -0.6040  0.1453  0.0722
17593TIP3    H174194   4.353   3.740  13.747  0.0055  0.1268  0.4252
17593TIP3    H274195   4.443   3.617  13.747 -0.9330 -0.5729 -0.2020
17594TIP3   OH274196   5.339   1.614  12.190  0.2808 -0.2455 -0.7383
17594TIP3    H174197   5.292   1.536  12.160  0.0094  0.6709 -2.8202
17594TIP3    H274198   5.431   1.594  12.173  0.2073 -0.0871 -1.3172
17595TIP3   OH274199   2.824   5.322   1.455  0.1618  0.0977 -0.1258
17595TIP3    H174200   2.745   5.303   1.405  0.9106 -1.7611 -0.7120
17595TIP3    H274201   2.847   5.412   1.431 -0.7052 -0.0083 -1.4567
17596TIP3   OH274202   5.373   0.961  16.314 -0.1425 -0.1204  0.6443
17596TIP3    H174203   5.281   0.962  16.288 -0.1271  0.6686  0.5928
17596TIP3    H274204   5.409   1.041  16.277  0.6661 -0.6330  0.3155
17597TIP3   OH274205   3.167   6.492  12.070  0.1002 -0.1443 -0.3927
17597TIP3    H174206   3.121   6.571  12.041 -0.6028 -0.3958  0.0260
17597TIP3    H274207   3.098   6.428  12.087  0.6668 -0.9351 -0.9512
17598TIP3   OH274208   1.733   2.859  17.194 -0.7097 -0.4571 -0.3059
17598TIP3    H174209   1.782   2.920  17.249  0.3331  0.2556 -1.9556
17598TIP3    H274210   1.690   2.914  17.129  1.8045 -1.4545 -3.0637
17599TIP3   OH274211   2.238   3.738  16.859 -0.2509 -0.0214 -0.0560
17599TIP3    H174212   2.248   3.793  16.937 -1.3539  0.6690 -0.3790
17599TIP3    H274213   2.188   3.662  16.890  2.1527 -1.4075  0.6214
17600TIP3   OH274214   5.711   1.462   4.398 -0.5120 -0.4475  0.1058
17600TIP3    H174215   5.700   1.449   4.492  0.1029  1.2593  0.4462
17600TIP3    H274216   5.682   1.552   4.383  1.6648  0.1322 -0.9170
17601TIP3   OH274217   4.092   1.285  16.624  0.0163 -0.0282 -0.1681
17601TIP3    H174218   4.042   1.305  16.545 -2.7407 -0.6734  1.2620
17601TIP3    H274219   4.104   1.190  16.621 -0.5206 -0.1199  0.3830
17602TIP3   OH274220   3.838   0.792  14.855  0.1765  0.1099 -0.2865
17602TIP3    H174221   3.835   0.795  14.760 -3.3315  0.9904 -0.3021
17602TIP3    H274222   3.774   0.724  14.879 -1.0872  1.7456  1.3644
17603TIP3   OH274223   3.408   0.845   3.164  0.5121 -0.2486 -0.3686
17603TIP3    H174224   3.399   0.752   3.145 -0.2475 -0.0140 -1.2742
17603TIP3    H274225   3.329   0.885   3.127  0.3881  0.6517  0.7736
17604TIP3   OH274226   0.725   3.835   5.048  0.5731  0.3068  0.2131
17604TIP3    H174227   0.804   3.791   5.079  1.4277  0.5615 -1.4994
17604TIP3    H274228   0.657   3.806   5.109  1.3722 -2.2962  0.0021
17605TIP3   OH274229   6.069   5.130  16.633  0.3282 -0.1452  0.2913
17605TIP3    H174230   6.020   5.124  16.551  0.2172 -1.9433  0.4657
17605TIP3    H274231   6.153   5.169  16.608 -0.1414  0.4103 -0.4650
17606TIP3   OH274232   6.472   5.736   5.172  0.4860 -0.3970 -0.1199
17606TIP3    H174233   6.482   5.798   5.099 -1.1128 -0.3382 -0.3219
17606TIP3    H274234   6.411   5.778   5.232 -0.4694 -1.6755 -0.1571
17607TIP3   OH274235   5.879   4.490  11.722 -0.2160 -0.1751 -0.2460
17607TIP3    H174236   5.852   4.399  11.733 -0.5156 -0.1791 -0.9690
17607TIP3    H274237   5.867   4.508  11.628 -0.2781  0.6440 -0.0884
17608TIP3   OH274238   2.827   0.612  11.164 -0.0197  0.8354  0.9750
17608TIP3    H174239   2.822   0.708  11.169  1.1285  0.8692  1.7750
17608TIP3    H274240   2.920   0.593  11.157 -0.3121 -0.0785 -3.7773
17609TIP3   OH274241   3.658   5.933   2.043 -0.3831 -0.1346 -0.3548
17609TIP3    H174242   3.584   5.901   1.992 -1.7313  1.9854  0.1771
17609TIP3    H274243   3.697   5.853   2.080 -3.5602 -1.2519  0.9139
17610TIP3   OH274244   5.938   4.105  14.878 -0.5551  0.0497 -0.0303
17610TIP3    H174245   6.010   4.145  14.926 -0.2268  1.3728 -1.5409
17610TIP3    H274246   5.969   4.016  14.858 -0.1721 -0.0632  1.0294
17611TIP3   OH274247   4.302   4.747   4.977  0.4373  0.4096  0.1432
17611TIP3    H174248   4.249   4.756   5.056  0.8727  1.9287  0.2922
17611TIP3    H274249   4.369   4.815   4.985  3.4191 -2.3878  0.6868
17612TIP3   OH274250   5.436   2.501   4.943  0.5188  0.8194  0.3819
17612TIP3    H174251   5.396   2.561   4.880 -1.8911  0.8786  1.8747
17612TIP3    H274252   5.416   2.539   5.029 -0.4540 -1.6920  1.3585
17613TIP3   OH274253   0.612   6.457  16.956  0.1194 -0.8745  0.1391
17613TIP3    H174254   0.563   6.517  16.901 -0.2703 -1.0775  0.2601
17613TIP3    H274255   0.695   6.443  16.909 -0.0809 -0.8027 -0.2400
17614TIP3   OH274256   2.178   2.787  14.435  0.3543 -0.0138 -1.1301
17614TIP3    H174257   2.167   2.859  14.498  3.1389 -0.6485  0.2516
17614TIP3    H274258   2.212   2.830  14.356  0.3165  0.4038 -0.9248
17615TIP3   OH274259   2.657   4.622  15.531  0.1073 -0.4509  0.3224
17615TIP3    H174260   2.752   4.608  15.525  0.0169 -1.7422  1.4253
17615TIP3    H274261   2.633   4.656  15.445  1.5189 -0.4310 -0.0987
17616TIP3   OH274262   3.837   1.144   0.092 -0.5426 -0.4256 -0.1041
17616TIP3    H174263   3.927   1.127   0.066 -0.8045 -1.5045 -0.3520
17616TIP3    H274264   3.794   1.059   0.087 -1.4075 -0.0527  0.6869
17617TIP3   OH274265   1.734   6.212  13.833 -0.1724  0.0986 -0.4350
17617TIP3    H174266   1.721   6.164  13.752  0.2089 -0.0466 -0.4129
17617TIP3    H274267   1.657   6.269  13.840 -0.6621 -0.5631 -0.4160
17618TIP3   OH274268   3.518   6.537  12.586 -0.4560  0.0082 -0.1280
17618TIP3    H174269   3.506   6.448  12.552 -0.1141  0.0146 -0.2680
17618TIP3    H274270   3.437   6.555  12.633 -0.4988 -0.4081 -0.0332
17619TIP3   OH274271   0.447   1.023  12.995  0.1586  0.0536  0.2799
17619TIP3    H174272   0.424   0.949  12.939 -0.4743  1.6139 -1.6608
17619TIP3    H274273   0.526   0.995  13.041 -1.8240 -3.0096  2.1584
17620TIP3   OH274274   3.680   5.503   5.547  0.0579 -0.5814  0.5859
17620TIP3    H174275   3.722   5.533   5.467  1.2048 -0.5310  1.1949
17620TIP3    H274276   3.750   5.463   5.599 -0.8428 -1.5294  1.1394
17621TIP3   OH274277   4.339   2.290  12.182  0.1895 -0.1123 -0.3040
17621TIP3    H174278   4.432   2.309  12.169  0.4979 -0.6448  0.9979
17621TIP3    H274279   4.336   2.230  12.256 -1.1185 -1.1059 -1.1074
17622TIP3   OH274280   3.021   4.308  15.006 -0.6973  0.5713  0.1475
17622TIP3    H174281   3.083   4.308  15.078 -1.2469  0.1652  0.6295
17622TIP3    H274282   3.070   4.342  14.932 -0.1822  1.1818  0.7610
17623TIP3   OH274283   2.095   3.299  13.310  0.2071 -0.5999  0.0192
17623TIP3    H174284   2.089   3.365  13.378  3.3414 -0.1143 -0.0401
17623TIP3    H274285   2.144   3.227  13.349  2.3539 -0.1892 -1.6973
17624TIP3   OH274286   3.051   2.122  12.862  0.1931 -0.3108  0.3988
17624TIP3    H174287   2.978   2.181  12.879  0.4161 -0.1390  0.7685
17624TIP3    H274288   3.122   2.155  12.918  0.9887  0.3547 -0.9347
17625TIP3   OH274289   5.165   5.652   1.846 -0.0420  0.2510 -0.5202
17625TIP3    H174290   5.121   5.709   1.909  0.9371 -1.1505  1.5615
17625TIP3    H274291   5.238   5.705   1.813 -1.1060  1.3226 -1.2389
17626TIP3   OH274292   6.414   6.401   0.754  0.6935  0.0287 -0.6343
17626TIP3    H174293   6.432   6.318   0.709 -0.9432 -1.1058  0.6921
17626TIP3    H274294   6.321   6.415   0.741  0.4627  0.4052  1.1491
17627TIP3   OH274295   5.819   3.829   1.433  0.2015  0.6605 -0.2070
17627TIP3    H174296   5.878   3.842   1.359  0.9922 -1.2331  0.0437
17627TIP3    H274297   5.834   3.905   1.489 -2.0466  3.3546 -2.9361
17628TIP3   OH274298   3.717   1.551  15.156 -0.7176 -0.5847 -0.2938
17628TIP3    H174299   3.635   1.578  15.114 -0.1299 -0.5495 -1.4600
17628TIP3    H274300   3.771   1.630  15.156 -1.1298 -0.2608  1.6515
17629TIP3   OH274301   6.582   5.154  16.638 -0.3319 -0.9108 -0.0867
17629TIP3    H174302   6.565   5.106  16.719 -0.2970  0.0679  0.5259
17629TIP3    H274303   6.653   5.214  16.661 -0.3526 -0.5873 -0.8366
17630TIP3   OH274304   6.611   1.153  11.080  0.4049 -0.0063  0.2164
17630TIP3    H174305   6.529   1.103  11.081 -0.5709  1.4761  3.1134
17630TIP3    H274306   6.587   1.238  11.045  0.1294  1.1421  2.9738
17631TIP3   OH274307   0.630   0.636   5.235 -0.4643  0.2500  0.0712
17631TIP3    H174308   0.588   0.576   5.296  2.1894 -1.2990  0.5613
17631TIP3    H274309   0.601   0.723   5.262 -1.2781 -0.5786  1.9785
17632TIP3   OH274310   4.266   2.552   0.396 -0.0944 -0.2680 -0.1323
17632TIP3    H174311   4.329   2.621   0.414 -0.4419  0.3779 -1.3158
17632TIP3    H274312   4.257   2.505   0.479  0.3709  0.9130  0.5985
17633TIP3   OH274313   4.126   4.540   0.636  0.0661  0.1521  0.5750
17633TIP3    H174314   4.073   4.586   0.701  0.0091  0.5395  0.2532
17633TIP3    H274315   4.215   4.543   0.672  0.3239  1.7972 -0.1347
17634TIP3   OH274316   3.582   0.333   3.394 -0.1611  0.6396 -0.0137
17634TIP3    H174317   3.607   0.243   3.415 -0.6500  0.5398  0.1472
17634TIP3    H274318   3.659   0.385   3.418 -0.6725  0.5319  1.9907
17635TIP3   OH274319   3.982   0.419  11.221  0.1531  0.0221  0.2015
17635TIP3    H174320   4.074   0.440  11.208  0.2339  1.1227  2.1391
17635TIP3    H274321   3.982   0.330  11.258  0.4737  0.1644  0.5453
17636TIP3   OH274322   3.135   6.301  16.034  0.1980 -0.5813  0.0956
17636TIP3    H174323   3.173   6.388  16.045  0.4556 -0.8563  1.7174
17636TIP3    H274324   3.062   6.314  15.974 -1.1235  1.2026  1.9352
17637TIP3   OH274325   2.270   3.411   4.413  0.4161 -0.0844 -0.3826
17637TIP3    H174326   2.340   3.409   4.348  0.4532 -2.2395 -0.3506
17637TIP3    H274327   2.216   3.335   4.392 -1.2011  0.8133  0.3806
17638TIP3   OH274328   0.876   0.001  15.538  0.4997 -0.2114  0.1763
17638TIP3    H174329   0.847   0.040  15.621 -1.8055  0.1729 -0.7214
17638TIP3    H274330   0.894   0.076  15.481 -1.2516 -0.4049 -0.6948
17639TIP3   OH274331   1.724   5.309   2.458  0.4281  0.3009 -0.0984
17639TIP3    H174332   1.669   5.348   2.525 -0.5267 -0.6427 -0.2946
17639TIP3    H274333   1.763   5.383   2.412 -0.8317  0.9990 -0.0744
17640TIP3   OH274334   5.371   5.363  15.945  0.1418 -0.0736  0.2543
17640TIP3    H174335   5.352   5.441  15.997 -0.0047 -0.1250  0.2798
17640TIP3    H274336   5.464   5.347  15.959  0.2835  0.3961 -0.1663
17641TIP3   OH274337   5.885   3.902   0.410 -0.7679  0.1829  0.5399
17641TIP3    H174338   5.952   3.917   0.343 -0.3159  1.8535  1.3298
17641TIP3    H274339   5.935   3.894   0.492 -1.5092  1.1181  1.0903
17642TIP3   OH274340   1.756   5.281   5.741 -0.5773  0.3538  0.0012
17642TIP3    H174341   1.785   5.295   5.831  0.0062  1.7563 -0.3750
17642TIP3    H274342   1.667   5.246   5.750 -0.4850  0.3622  1.1192
17643TIP3   OH274343   2.110   1.903   2.063  0.1479 -0.1105  0.1582
17643TIP3    H174344   2.124   1.927   1.971 -1.7052 -1.2239 -0.4595
17643TIP3    H274345   2.019   1.875   2.067  0.7943 -2.2174  1.8620
17644TIP3   OH274346   2.912   3.783  14.700 -0.0305  0.3151  0.1552
17644TIP3    H174347   2.918   3.835  14.620  1.4017 -1.7200 -1.1507
17644TIP3    H274348   2.967   3.830  14.763 -0.0197  1.2076 -0.5023
17645TIP3   OH274349   3.663   6.486  16.254  0.0873  0.4125  0.5014
17645TIP3    H174350   3.752   6.453  16.241  0.5956  1.0127  2.1992
17645TIP3    H274351   3.673   6.558  16.317 -1.6775 -0.0452  1.3659
17646TIP3   OH274352   4.632   6.080  11.346 -0.6764  0.0790  0.6094
17646TIP3    H174353   4.617   6.113  11.258  0.2660 -1.8786 -0.3501
17646TIP3    H274354   4.545   6.057  11.379 -0.8368 -1.7007 -0.9071
17647TIP3   OH274355   3.404   4.490   0.706  0.1434  0.4670  0.0155
17647TIP3    H174356   3.452   4.462   0.628  0.3072 -0.2181  0.3509
17647TIP3    H274357   3.344   4.557   0.674 -0.2115 -0.2223 -0.8300
17648TIP3   OH274358   2.119   3.726   0.240  0.5874 -0.0740 -0.2757
17648TIP3    H174359   2.027   3.740   0.221  1.3514  3.3869 -2.4792
17648TIP3    H274360   2.136   3.781   0.317  1.0069  0.1593 -0.5312
17649TIP3   OH274361   4.536   3.213   0.502 -0.0716 -0.0996 -0.3119
17649TIP3    H174362   4.480   3.153   0.551 -1.1453  0.4532 -0.8345
17649TIP3    H274363   4.606   3.237   0.563  1.0658 -2.7473 -0.4356
17650TIP3   OH274364   5.884   0.421   5.369  0.1738  0.6700  0.5708
17650TIP3    H174365   5.816   0.359   5.396  0.3670  0.6242  0.9550
17650TIP3    H274366   5.875   0.494   5.431 -0.6080  1.4231 -0.3821
17651TIP3   OH274367   4.150   0.114   1.957  0.6111 -0.4774 -0.5328
17651TIP3    H174368   4.189   0.031   1.987 -1.2305 -1.5442 -0.9148
17651TIP3    H274369   4.216   0.180   1.975  0.9790 -1.5527  2.6927
17652TIP3   OH274370   3.195   5.922  11.884 -0.1719 -0.3284 -0.0344
17652TIP3    H174371   3.115   5.955  11.843  0.1532  1.0618  0.3760
17652TIP3    H274372   3.181   5.828  11.894 -1.4204 -0.2281 -0.6905
17653TIP3   OH274373   3.581   5.382   1.477 -0.0854 -0.0657  0.1025
17653TIP3    H174374   3.496   5.361   1.438  0.5658 -1.8198 -0.5101
17653TIP3    H274375   3.601   5.305   1.531  2.3328 -1.0495 -1.9915
17654TIP3   OH274376   3.491   5.616   4.809  0.7542  0.1827 -0.6296
17654TIP3    H174377   3.527   5.704   4.794  2.0150 -0.2486 -0.3061
17654TIP3    H274378   3.559   5.557   4.774  0.1289 -0.6668 -0.4307
17655TIP3   OH274379   5.601   3.581  15.988 -0.2875  0.6468 -0.3341
17655TIP3    H174380   5.639   3.593  15.901 -2.1182  2.5251 -0.9466
17655TIP3    H274381   5.599   3.668  16.026 -2.4761  0.3938  0.2754
17656TIP3   OH274382   3.098   4.264  15.651  0.7996  0.8662  0.4329
17656TIP3    H174383   3.132   4.353  15.665 -1.0118  1.5792  0.5702
17656TIP3    H274384   3.019   4.276  15.599  0.9504 -0.7624 -0.2451
17657TIP3   OH274385   2.813   1.252  14.235 -0.4626  0.2996 -0.0813
17657TIP3    H174386   2.843   1.315  14.301  0.7722 -0.7859  0.4354
17657TIP3    H274387   2.744   1.202  14.280 -0.8211  0.6735 -0.2013
17658TIP3   OH274388   5.388   0.819   4.984 -0.2581  0.2160 -0.1047
17658TIP3    H174389   5.380   0.914   4.999  1.8982  0.3669  0.3818
17658TIP3    H274390   5.440   0.788   5.057  0.5155 -1.0626 -1.1636
17659TIP3   OH274391   5.686   6.071  16.179  0.3817  0.2985 -0.5608
17659TIP3    H174392   5.612   6.067  16.118  0.1093 -1.7527 -0.1830
17659TIP3    H274393   5.762   6.047  16.126  0.4299  0.3144 -0.4988
17660TIP3   OH274394   4.280   1.932  14.316 -0.4075 -0.2050 -0.7015
17660TIP3    H174395   4.187   1.929  14.295 -0.2499 -0.0148 -1.4387
17660TIP3    H274396   4.325   1.919  14.233  0.2450  2.8919 -0.9601
17661TIP3   OH274397   3.345   6.362  16.717  0.2197 -0.0281 -0.0873
17661TIP3    H174398   3.299   6.279  16.721 -0.7156  0.4413 -0.7316
17661TIP3    H274399   3.388   6.361  16.631 -0.9340  0.7103 -0.7044
17662TIP3   OH274400   0.899   6.049   0.422  0.0524 -0.2402  0.1732
17662TIP3    H174401   0.993   6.030   0.419  0.6389  2.2634 -0.7006
17662TIP3    H274402   0.883   6.077   0.512  0.5152  0.7487 -0.0364
17663TIP3   OH274403   3.373   0.334  14.287 -0.3343 -0.2842 -1.1049
17663TIP3    H174404   3.440   0.273  14.318 -1.0407 -0.0858  0.9475
17663TIP3    H274405   3.414   0.420  14.294 -0.8146 -0.1534  0.2514
17664TIP3   OH274406   5.382   3.938   5.117  0.2968 -0.2411  0.3888
17664TIP3    H174407   5.339   3.930   5.202 -1.6301 -0.8274 -0.5865
17664TIP3    H274408   5.372   4.030   5.094 -0.7622 -0.4304  0.0366
17665TIP3   OH274409   5.351   4.234  13.327  0.6598  0.8185 -0.3776
17665TIP3    H174410   5.275   4.245  13.384  0.2546  1.5973 -1.0372
17665TIP3    H274411   5.407   4.171  13.372  0.6088  1.8106  1.1223
17666TIP3   OH274412   1.855   3.810  14.445 -0.0794 -0.0273  0.0633
17666TIP3    H174413   1.785   3.858  14.400  0.2416  0.8622  0.4874
17666TIP3    H274414   1.812   3.773  14.523  0.1702  1.6150  1.0315
17667TIP3   OH274415   6.393   6.447  13.871  0.2685 -0.4638 -0.1588
17667TIP3    H174416   6.487   6.431  13.866  0.4845  0.9746 -1.6492
17667TIP3    H274417   6.379   6.488  13.956  0.4925 -3.2878  1.3486
17668TIP3   OH274418   4.571   3.784   3.165  0.0631 -0.4420 -0.1180
17668TIP3    H174419   4.549   3.834   3.244 -0.1935  0.8036 -0.9484
17668TIP3    H274420   4.565   3.692   3.192 -3.4825 -0.1762  0.4230
17669TIP3   OH274421   0.556   2.842  13.453 -0.0207 -0.4832  0.2165
17669TIP3    H174422   0.607   2.923  13.451  0.3573 -0.6912  0.9416
17669TIP3    H274423   0.478   2.864  13.504 -1.0995  0.0687 -1.6118
17670TIP3   OH274424   5.450   1.205  11.492 -0.8576  0.2751 -0.1184
17670TIP3    H174425   5.392   1.131  11.479 -0.9440  0.3388 -0.0945
17670TIP3    H274426   5.532   1.166  11.522 -1.5159  0.3053  1.8759
17671TIP3   OH274427   1.598   4.445  14.531 -0.3821 -0.1345 -0.5986
17671TIP3    H174428   1.564   4.369  14.484 -1.5025 -0.2867  0.3927
17671TIP3    H274429   1.614   4.413  14.620 -1.7192  0.9623  0.0855
17672TIP3   OH274430   4.710   3.338   2.797  0.2434  0.0174 -0.7391
17672TIP3    H174431   4.779   3.272   2.790  0.9052  0.7013 -0.7987
17672TIP3    H274432   4.662   3.314   2.876  1.5338  0.4438  0.2094
17673TIP3   OH274433   4.035   3.682   0.192 -0.3989  0.4271  0.4156
17673TIP3    H174434   4.129   3.685   0.211 -0.3860  0.9048  0.2873
17673TIP3    H274435   3.993   3.686   0.278 -0.3092  0.5911  0.4520
17674TIP3   OH274436   2.228   0.921   2.190 -0.1141  0.2657  0.0102
17674TIP3    H174437   2.296   0.877   2.242 -0.2777 -1.3362 -1.0540
17674TIP3    H274438   2.276   0.976   2.128  0.1871 -0.0905 -0.0756
17675TIP3   OH274439   2.953   4.786  11.075  0.1122  0.1344  0.0531
17675TIP3    H174440   2.883   4.823  11.022  1.4950 -0.0155 -1.9820
17675TIP3    H274441   3.031   4.833  11.048  1.0712 -0.7914  1.0994
17676TIP3   OH274442   0.004   2.362  13.867  0.4961 -0.2141 -0.5797
17676TIP3    H174443  -0.084   2.327  13.859 -0.3562  1.9310 -1.4433
17676TIP3    H274444   0.020   2.405  13.783  1.7098  0.8314  0.1552
17677TIP3   OH274445   5.519   1.456  11.352 -0.3071 -0.0305 -0.2238
17677TIP3    H174446   5.488   1.368  11.375  0.1253 -0.5469 -1.5420
17677TIP3    H274447   5.456   1.487  11.286  0.8306 -0.3040 -1.4770
17678TIP3   OH274448   4.279   4.016   1.374  0.5261  0.1339 -0.0619
17678TIP3    H174449   4.196   3.995   1.332  0.4603  0.9499 -0.3381
17678TIP3    H274450   4.283   3.957   1.450 -0.9913  1.0869  0.8053
17679TIP3   OH274451   4.956   4.529   5.071 -0.6435 -0.1034  0.5704
17679TIP3    H174452   4.999   4.582   5.138  0.6904 -0.3694 -0.0393
17679TIP3    H274453   4.871   4.507   5.108 -0.9178  1.8145  1.1398
17680TIP3   OH274454   4.881   6.496   4.227  0.3505 -0.1596 -0.4424
17680TIP3    H174455   4.968   6.506   4.190  0.4090  1.7641  0.1086
17680TIP3    H274456   4.893   6.508   4.321 -0.5603  0.6381 -0.4116
17681TIP3   OH274457   6.573   4.659  14.086 -0.1252 -0.2568 -0.1711
17681TIP3    H174458   6.484   4.642  14.117 -0.2506  1.1410  0.2758
17681TIP3    H274459   6.588   4.592  14.019 -1.0047 -1.3578  0.7001
17682TIP3   OH274460   5.960   1.288  10.941 -0.0827 -0.1260 -0.1766
17682TIP3    H174461   5.905   1.254  11.012  2.0027  0.5036  1.8742
17682TIP3    H274462   5.936   1.381  10.934 -0.9210 -0.3856 -0.9792
17683TIP3   OH274463   1.351   1.662   3.910  0.3622  0.7075 -0.1461
17683TIP3    H174464   1.256   1.654   3.923  0.4476  2.2206  1.8867
17683TIP3    H274465   1.361   1.686   3.818 -1.0774 -1.0700 -0.8412
17684TIP3   OH274466   2.928   0.527  12.345 -0.2893  0.4095  0.2484
17684TIP3    H174467   2.992   0.588  12.382 -0.7140  0.6747  0.5749
17684TIP3    H274468   2.958   0.441  12.372  0.0692  0.5139  0.1803
17685TIP3   OH274469   5.965   6.135   1.065  0.0146 -0.2925 -0.0887
17685TIP3    H174470   5.926   6.098   1.144 -0.8662 -1.6735 -1.1211
17685TIP3    H274471   5.902   6.200   1.035  0.0254 -0.2418  0.0022
17686TIP3   OH274472   0.866   0.126  13.640  0.2719 -0.8985 -0.3516
17686TIP3    H174473   0.929   0.176  13.589  2.8123 -3.5108 -0.0166
17686TIP3    H274474   0.887   0.146  13.731 -1.6218  0.6773 -0.1952
17687TIP3   OH274475   2.563   2.434   6.431  0.5715  0.0848 -0.6346
17687TIP3    H174476   2.594   2.355   6.386 -0.1808 -0.2481 -0.5795
17687TIP3    H274477   2.604   2.428   6.518 -0.8368 -1.1643 -0.0112
17688TIP3   OH274478   5.427   1.002   2.768  0.3518 -0.0056 -0.5815
17688TIP3    H174479   5.374   0.973   2.842 -0.7337  0.1496 -1.2697
17688TIP3    H274480   5.373   0.984   2.691  0.6013  1.6929 -1.1915
17689TIP3   OH274481   3.572   4.149   4.173 -0.6002 -0.0510 -0.3464
17689TIP3    H174482   3.629   4.218   4.205 -0.3577 -0.9180  1.2259
17689TIP3    H274483   3.503   4.195   4.124 -1.2262  1.4586  1.8073
17690TIP3   OH274484   2.021   0.883   5.549 -0.3940  0.0109 -0.2797
17690TIP3    H174485   2.074   0.961   5.566 -1.2376  0.2866  1.2118
17690TIP3    H274486   2.081   0.810   5.565 -0.1473  0.3359  0.3115
17691TIP3   OH274487   0.788   1.607  17.143  0.1033 -0.4009 -0.4198
17691TIP3    H174488   0.795   1.702  17.145  1.8284 -0.4831 -0.8879
17691TIP3    H274489   0.839   1.578  17.219 -0.6923 -0.9463 -0.0855
17692TIP3   OH274490   2.971   6.565   2.353  0.4894  0.3938  0.0689
17692TIP3    H174491   3.024   6.626   2.301 -1.1584  0.9918 -0.9828
17692TIP3    H274492   2.989   6.589   2.444 -0.0475  2.4335 -0.3124
17693TIP3   OH274493   2.610   4.718  12.753 -0.2452 -0.2842 -0.2167
17693TIP3    H174494   2.647   4.647  12.804  0.3460  0.0543 -0.1729
17693TIP3    H274495   2.558   4.674  12.685 -1.1612 -0.7315  0.7423
17694TIP3   OH274496   4.374   0.327   0.882  0.0176 -0.3008  0.2393
17694TIP3    H174497   4.298   0.269   0.875  0.7432 -1.1453 -0.9099
17694TIP3    H274498   4.338   0.415   0.873 -1.1647 -0.4801  2.4125
17695TIP3   OH274499   1.093   3.715   2.292  0.0153  0.0163  0.0631
17695TIP3    H174500   1.185   3.739   2.278  0.0528  0.2138  0.6132
17695TIP3    H274501   1.080   3.726   2.386 -0.0661 -1.7964  0.2914
17696TIP3   OH274502   3.520   5.806   0.605 -0.0299  0.2507  0.1387
17696TIP3    H174503   3.597   5.768   0.647 -0.8090 -1.9277 -0.2974
17696TIP3    H274504   3.504   5.749   0.530 -2.0963  0.6352  0.2494
17697TIP3   OH274505   6.700   5.658  13.499  0.6087 -0.3376  0.2838
17697TIP3    H174506   6.613   5.630  13.470 -0.1524  0.4199  1.7310
17697TIP3    H274507   6.749   5.576  13.507 -0.2952 -0.8886  0.4399
17698TIP3   OH274508   6.117   3.590  15.314 -0.1571  0.0470 -0.5783
17698TIP3    H174509   6.164   3.666  15.348 -0.4457 -0.1657  0.3167
17698TIP3    H274510   6.177   3.553  15.249  0.1439  0.8166 -0.7564
17699TIP3   OH274511   3.083   4.876  15.363 -0.0730 -0.0974  0.0415
17699TIP3    H174512   3.103   4.937  15.292 -0.7280  0.1892  0.0938
17699TIP3    H274513   3.147   4.806  15.354  1.4571  1.1652  0.6903
17700TIP3   OH274514   5.697   5.478   2.752 -0.1492  0.3348 -0.0115
17700TIP3    H174515   5.631   5.470   2.684  0.1245 -0.7140 -0.1803
17700TIP3    H274516   5.754   5.548   2.722  1.0216 -1.2805 -1.8219
17701TIP3   OH274517   2.291   4.687  12.693 -0.2829 -0.3213 -0.6141
17701TIP3    H174518   2.233   4.631  12.641 -0.4240 -1.1468  0.4127
17701TIP3    H274519   2.351   4.626  12.735 -1.6193  0.0616  2.0564
17702TIP3   OH274520   0.765   0.257  12.709  0.0949 -0.0513  0.2555
17702TIP3    H174521   0.692   0.261  12.647  0.1859  0.9316  0.1984
17702TIP3    H274522   0.727   0.220  12.789 -0.6031  0.9230  0.3908
17703TIP3   OH274523   3.331   0.571   6.479  0.1493 -0.0424  0.0649
17703TIP3    H174524   3.413   0.620   6.480 -0.6109  1.2837 -0.6522
17703TIP3    H274525   3.358   0.479   6.487  1.6305  0.4320  0.9094
17704TIP3   OH274526   2.256   2.291  12.326  0.6644 -0.6524  0.6749
17704TIP3    H174527   2.227   2.296  12.417 -2.2571 -0.4652 -0.1707
17704TIP3    H274528   2.256   2.198  12.305 -1.4674 -0.5574  0.1038
17705TIP3   OH274529   4.738   4.223  15.152  0.0715 -0.4090  0.4770
17705TIP3    H174530   4.723   4.303  15.101 -0.7660  0.4292  1.9547
17705TIP3    H274531   4.686   4.156  15.107 -1.2120  0.4741  0.5977
17706TIP3   OH274532   6.591   3.391   5.420 -0.0710  0.2745  1.0000
17706TIP3    H174533   6.498   3.389   5.443 -0.2873 -0.4014  0.1295
17706TIP3    H274534   6.627   3.464   5.470 -1.0374  0.4384  1.4734
17707TIP3   OH274535   3.619   2.886  16.369  0.1189  0.0061 -0.3276
17707TIP3    H174536   3.537   2.854  16.406  0.3743  0.4034  0.5997
17707TIP3    H274537   3.592   2.957  16.310 -0.0829  1.5812  1.5729
17708TIP3   OH274538   5.472   5.050   4.084 -0.0280 -0.2654 -0.4747
17708TIP3    H174539   5.428   4.986   4.029  1.3646  0.6163 -2.7727
17708TIP3    H274540   5.564   5.041   4.063  0.3385  1.5860  0.0922
17709TIP3   OH274541   6.691   5.548  10.360 -0.6984  0.3851  0.2675
17709TIP3    H174542   6.648   5.632  10.349 -0.7080  0.2580 -0.7728
17709TIP3    H274543   6.683   5.528  10.454 -2.0320  0.8108  0.2581
17710TIP3   OH274544   3.364   5.040  10.579  0.4213 -0.1815 -0.4423
17710TIP3    H174545   3.396   4.961  10.622  0.2241  0.3972  0.8126
17710TIP3    H274546   3.441   5.096  10.572  0.2148  0.2127  0.3021
17711TIP3   OH274547   1.861   3.346  13.038  1.3531 -0.0441 -0.3819
17711TIP3    H174548   1.860   3.441  13.049  0.0601 -0.2347  1.7422
17711TIP3    H274549   1.818   3.330  12.955  0.5960  1.1965 -0.2512
17712TIP3   OH274550   0.822   3.147   2.783 -0.1981 -0.1937 -0.0592
17712TIP3    H174551   0.801   3.086   2.712 -3.9137  1.6583 -0.8539
17712TIP3    H274552   0.815   3.234   2.743  1.4042  0.8768  1.7881
17713TIP3   OH274553   3.458   1.184   0.632  0.1606 -0.4032  0.1967
17713TIP3    H174554   3.462   1.090   0.650  1.6415 -0.4043  0.0429
17713TIP3    H274555   3.453   1.225   0.718  2.4933 -0.5618  0.4799
17714TIP3   OH274556   1.998   2.104   5.062  0.5680  0.3434 -0.0201
17714TIP3    H174557   2.021   2.020   5.023 -1.3742 -0.8402  1.2101
17714TIP3    H274558   1.955   2.152   4.992  1.1549  0.0762 -0.5718
17715TIP3   OH274559   3.981   0.056   2.670  0.0863  0.2429  0.5287
17715TIP3    H174560   4.015   0.136   2.631 -1.2377  1.4698  1.7563
17715TIP3    H274561   3.886   0.063   2.660 -0.0645 -1.1017  0.8029
17716TIP3   OH274562   4.616   2.583   1.377 -0.2255  0.4459 -0.4673
17716TIP3    H174563   4.681   2.550   1.439 -1.1298 -1.9895 -0.7165
17716TIP3    H274564   4.564   2.646   1.427 -0.1942 -0.6055  0.9247
17717TIP3   OH274565   4.010   2.093   4.753  0.3923 -0.1708 -0.2319
17717TIP3    H174566   4.068   2.167   4.738  0.1270 -0.2503 -1.7974
17717TIP3    H274567   3.929   2.117   4.708 -0.1531 -0.8534  0.3652
17718TIP3   OH274568   6.617   0.445   3.055  0.0219 -0.3886  0.6678
17718TIP3    H174569   6.664   0.492   3.124 -0.6495 -0.7135  1.3624
17718TIP3    H274570   6.586   0.365   3.098  1.3878 -1.6253 -0.5482
17719TIP3   OH274571   2.542   3.075  13.619  0.3104  0.0802 -0.0107
17719TIP3    H174572   2.629   3.107  13.594 -0.0756  0.0534 -1.4645
17719TIP3    H274573   2.557   2.984  13.647  0.7455  0.0812 -0.2370
17720TIP3   OH274574   5.864   4.401   4.067 -0.1920  0.0715  0.3650
17720TIP3    H174575   5.882   4.372   3.978  0.6676  0.3934  0.4228
17720TIP3    H274576   5.807   4.477   4.057 -1.8953 -1.1566  0.1903
17721TIP3   OH274577   2.113   0.765  13.344  0.0621 -0.0619 -0.0032
17721TIP3    H174578   2.046   0.810  13.395  0.3327  0.1869  0.1381
17721TIP3    H274579   2.100   0.672  13.364 -0.0535  0.0085  0.2509
17722TIP3   OH274580   6.226   2.734  15.574  0.0173 -0.0885 -0.3863
17722TIP3    H174581   6.137   2.746  15.607  1.0192  0.1520  2.5308
17722TIP3    H274582   6.246   2.814  15.527 -0.1590  1.4843  2.0440
17723TIP3   OH274583   2.248   3.631   2.744 -0.5018  0.5309 -0.0788
17723TIP3    H174584   2.225   3.539   2.739 -0.5403  0.4829  0.7903
17723TIP3    H274585   2.343   3.632   2.753 -0.6005  0.5060  1.1500
17724TIP3   OH274586   6.340   4.437   4.274 -0.1593  0.0103 -0.0485
17724TIP3    H174587   6.273   4.373   4.298 -1.0455  0.8915 -0.1196
17724TIP3    H274588   6.317   4.516   4.324  0.7916  0.3486 -0.1193
17725TIP3   OH274589   2.505   0.947   5.038  0.9909  0.2050  1.1637
17725TIP3    H174590   2.535   1.019   4.983 -1.5507 -0.4355 -1.2764
17725TIP3    H274591   2.437   0.985   5.093  0.5518 -0.0495  0.7999
17726TIP3   OH274592   6.705   3.548   4.511  0.0069 -0.1728  0.0661
17726TIP3    H174593   6.644   3.598   4.457  1.1904 -0.0273 -1.1753
17726TIP3    H274594   6.656   3.470   4.537 -1.0825  0.5002  0.0915
17727TIP3   OH274595   4.161   2.131  16.629  0.0630 -1.0926 -0.3131
17727TIP3    H174596   4.163   2.206  16.688  0.8875 -0.2584 -1.3717
17727TIP3    H274597   4.123   2.165  16.548  1.6285 -1.4674 -1.2377
17728TIP3   OH274598   1.694   2.874  11.737 -0.2119  0.5915 -0.0235
17728TIP3    H174599   1.644   2.815  11.680  1.1258 -1.6460  0.9577
17728TIP3    H274600   1.782   2.873  11.700 -0.1941  2.1903 -0.0863
17729TIP3   OH274601   2.309   5.177  15.997  0.2883  0.3850  0.2400
17729TIP3    H174602   2.294   5.138  15.911  2.3156  1.5524 -0.7178
17729TIP3    H274603   2.284   5.269  15.986  0.5056  0.5299  0.9330
17730TIP3   OH274604   0.643   5.259   6.094 -0.1286 -0.3530 -0.7710
17730TIP3    H174605   0.657   5.278   6.186 -0.1868  1.7742 -1.1561
17730TIP3    H274606   0.711   5.309   6.048 -0.4094 -0.9662 -1.9128
17731TIP3   OH274607   3.358   3.848  12.348 -0.6724 -0.4291  0.3185
17731TIP3    H174608   3.388   3.879  12.433 -0.9644  0.6725  0.0317
17731TIP3    H274609   3.263   3.850  12.354 -0.7572  1.8753 -0.7653
17732TIP3   OH274610   2.059   4.872  11.659 -0.2820 -0.5026 -0.5628
17732TIP3    H174611   2.115   4.879  11.582  2.0809 -1.3739  0.9650
17732TIP3    H274612   1.989   4.935  11.644  0.3744 -0.2935 -3.1669
17733TIP3   OH274613   4.367   2.090  12.405  0.4187 -0.5794  0.1324
17733TIP3    H174614   4.421   2.014  12.383  1.2468  0.7668 -3.0511
17733TIP3    H274615   4.277   2.060  12.391  0.5755 -1.5373  1.0295
17734TIP3   OH274616   2.045   1.710   1.742  0.2492 -0.5263  0.7650
17734TIP3    H174617   2.136   1.735   1.759  0.4885 -0.0410 -1.0848
17734TIP3    H274618   2.018   1.764   1.668 -1.4190 -0.9748  0.9952
17735TIP3   OH274619   1.488   4.077   1.148 -0.3170 -0.1678  0.0719
17735TIP3    H174620   1.573   4.094   1.106 -0.7903  1.0682 -0.4202
17735TIP3    H274621   1.437   4.030   1.082 -0.2387 -0.3632  0.1478
17736TIP3   OH274622   6.501   5.350   4.886 -0.2157  0.1637  0.2661
17736TIP3    H174623   6.557   5.315   4.817 -2.5280 -0.4364 -1.4279
17736TIP3    H274624   6.499   5.281   4.952  1.6280  0.5407  0.7851
17737TIP3   OH274625   0.853   0.361  15.606 -0.1861  0.3327 -0.1408
17737TIP3    H174626   0.910   0.366  15.529  1.3300  0.2735  0.9473
17737TIP3    H274627   0.777   0.415  15.582  0.3251  0.4500 -1.6071
17738TIP3   OH274628   0.374   0.691  16.138  0.3830 -0.0036  0.4332
17738TIP3    H174629   0.317   0.726  16.207 -0.3442 -0.4220  0.0503
17738TIP3    H274630   0.434   0.632  16.184  0.7410  0.6997  0.8894
17739TIP3   OH274631   0.348   4.483   2.070 -0.5757 -0.1437 -0.0494
17739TIP3    H174632   0.380   4.420   2.006 -0.1410 -0.7809  0.7744
17739TIP3    H274633   0.278   4.530   2.025 -0.3412 -0.6454 -0.9512
17740TIP3   OH274634   2.290   2.927  14.261 -0.6730 -0.1571  0.2219
17740TIP3    H174635   2.230   2.960  14.194  0.1315 -0.0833 -0.4818
17740TIP3    H274636   2.338   3.004  14.291 -1.1998 -0.1549  1.0599
17741TIP3   OH274637   4.851   6.692  11.752 -0.0905 -0.4057 -0.1356
17741TIP3    H174638   4.946   6.696  11.738 -0.0336  2.1823  0.4453
17741TIP3    H274639   4.823   6.614  11.705  2.2500 -0.9797 -0.7253
17742TIP3   OH274640   2.670   6.473   5.518 -0.0183 -0.4174  0.0530
17742TIP3    H174641   2.628   6.387   5.511  1.9629 -1.3049 -2.6308
17742TIP3    H274642   2.640   6.521   5.441  0.2234  0.6550  0.6145
17743TIP3   OH274643   2.799   0.873  12.059  0.3210 -0.0831  0.0833
17743TIP3    H174644   2.778   0.858  11.967 -1.2709 -2.3400  0.7296
17743TIP3    H274645   2.715   0.896  12.099  0.5264 -1.3706  1.3435
17744TIP3   OH274646   1.619   3.947   2.713  0.4280 -0.7356  0.5268
17744TIP3    H174647   1.679   3.873   2.703  1.9286  0.6154 -1.0888
17744TIP3    H274648   1.625   3.994   2.630  0.0218  1.5637  1.7286
17745TIP3   OH274649   5.645   5.496  12.664 -0.5271  0.2544 -0.0512
17745TIP3    H174650   5.627   5.517  12.756 -1.1955  1.4474 -0.4267
17745TIP3    H274651   5.587   5.423  12.644 -0.2711 -0.1048  0.5120
17746TIP3   OH274652   0.844   2.372   2.799  0.3594 -0.5005 -0.1711
17746TIP3    H174653   0.804   2.309   2.739 -0.2241 -0.5157  0.2228
17746TIP3    H274654   0.833   2.457   2.755  1.0853 -0.6539 -0.6694
17747TIP3   OH274655   4.604   6.006  13.362  0.3552  0.4704 -0.1289
17747TIP3    H174656   4.513   5.999  13.335  0.9680  1.1765 -2.7121
17747TIP3    H274657   4.625   5.921  13.400 -1.3174  0.2755  0.4361
17748TIP3   OH274658   2.390   2.051   0.768  0.0707 -0.5661 -0.6662
17748TIP3    H174659   2.312   2.106   0.762  1.7693  2.1705  0.4237
17748TIP3    H274660   2.369   1.974   0.715 -2.6157  0.9494 -2.0141
17749TIP3   OH274661   2.346   4.024   0.942  0.0295 -0.1682  0.0568
17749TIP3    H174662   2.422   4.079   0.924 -0.2701  0.5950  1.0165
17749TIP3    H274663   2.383   3.938   0.963  0.5506 -0.1276 -0.6568
17750TIP3   OH274664   2.551   1.186  14.365  0.5237 -0.7083  0.2150
17750TIP3    H174665   2.508   1.144  14.291  0.0838 -1.6440  0.9891
17750TIP3    H274666   2.517   1.142  14.442 -0.5995  1.6167  1.1577
17751TIP3   OH274667   1.580   2.920   1.333  1.4266  0.2131 -0.2136
17751TIP3    H174668   1.627   2.885   1.257  0.2818 -0.4668 -0.6427
17751TIP3    H274669   1.646   2.926   1.402  1.9343 -1.6597 -0.4907
17752TIP3   OH274670   5.761   4.761  16.556 -0.0505  0.0945 -0.0577
17752TIP3    H174671   5.697   4.709  16.507 -1.4328 -0.9195  2.5847
17752TIP3    H274672   5.733   4.753  16.647  1.8959  2.4783  0.8672
17753TIP3   OH274673   1.535   1.038   0.164  0.5537 -0.2897 -0.3364
17753TIP3    H174674   1.606   1.017   0.226  1.2964  0.1102 -1.0391
17753TIP3    H274675   1.569   1.111   0.113 -0.3223 -0.1888 -0.7825
17754TIP3   OH274676   4.560   3.389  13.109 -0.1817 -0.3807  0.7854
17754TIP3    H174677   4.523   3.330  13.175 -1.5445 -1.5776 -0.9681
17754TIP3    H274678   4.626   3.335  13.064  0.0858  0.1246  0.5658
17755TIP3   OH274679   1.307   4.914  11.027 -1.0371  0.1449 -0.2312
17755TIP3    H174680   1.393   4.873  11.014 -1.6707 -0.9824 -1.0812
17755TIP3    H274681   1.246   4.840  11.035 -1.6608  0.8634  2.7000
17756TIP3   OH274682   0.613   1.334  13.890  0.7745  0.0816  0.3340
17756TIP3    H174683   0.620   1.388  13.811  0.7191 -0.2570  0.0947
17756TIP3    H274684   0.521   1.307  13.892  0.6039  0.6757  0.9072
17757TIP3   OH274685   4.954   4.650   4.819  0.5198 -0.1252 -0.1725
17757TIP3    H174686   4.925   4.582   4.881  0.5795 -0.8201 -0.8961
17757TIP3    H274687   4.889   4.648   4.749  1.9887 -1.3599 -1.5720
17758TIP3   OH274688   5.392   0.163  16.315 -0.7000  0.0355 -0.0771
17758TIP3    H174689   5.389   0.111  16.395 -0.2081 -0.8388 -0.6155
17758TIP3    H274690   5.383   0.253  16.345  3.8126  0.2053  1.4489
17759TIP3   OH274691   2.917   2.486   3.928  0.4216  0.7462 -0.2725
17759TIP3    H174692   2.954   2.537   4.000  0.2949  0.1110  0.2501
17759TIP3    H274693   2.835   2.451   3.963  0.4809  0.2229 -0.6450
17760TIP3   OH274694   1.070   0.325   3.090 -0.1071  0.4082  0.0070
17760TIP3    H174695   0.997   0.317   3.028  0.9451  0.8733 -1.3305
17760TIP3    H274696   1.103   0.413   3.077  1.2300 -0.0789 -0.0028
17761TIP3   OH274697   6.762   4.649   3.113  0.6062  0.2148 -0.2228
17761TIP3    H174698   6.803   4.647   3.200  0.7852  0.1382 -0.3084
17761TIP3    H274699   6.705   4.725   3.115 -0.7383 -0.7640  0.5774
17762TIP3   OH274700   4.383   3.045  13.213  0.0448 -0.0541 -0.3403
17762TIP3    H174701   4.340   2.999  13.285 -0.3571 -0.5784 -0.9081
17762TIP3    H274702   4.403   3.132  13.249  1.3210 -0.8114  0.9395
17763TIP3   OH274703   0.549   1.720   3.026  0.3460 -0.5013  0.0960
17763TIP3    H174704   0.468   1.760   2.996  1.0308 -0.0850 -1.3045
17763TIP3    H274705   0.595   1.789   3.073  0.2536 -0.4978  0.1806
17764TIP3   OH274706   3.003   6.737   3.385 -0.5948 -0.0019 -0.1281
17764TIP3    H174707   3.047   6.718   3.467  0.7515  1.2596 -0.5130
17764TIP3    H274708   2.923   6.783   3.410 -1.4000 -1.6804  0.5429
17765TIP3   OH274709   5.805   1.946  14.853  0.3011  0.6230  0.0732
17765TIP3    H174710   5.791   2.032  14.812  1.9534  0.0732 -1.7615
17765TIP3    H274711   5.757   1.885  14.798  0.3079  0.1827  0.5461
17766TIP3   OH274712   6.555   0.461   1.737 -0.0965  0.0235  0.1974
17766TIP3    H174713   6.546   0.410   1.818 -1.2949 -0.7530 -0.3861
17766TIP3    H274714   6.597   0.400   1.675 -1.1698 -0.1447 -0.3890
17767TIP3   OH274715   5.264   0.541  12.668  0.4051 -0.4387  0.1753
17767TIP3    H174716   5.256   0.636  12.661  1.6181 -0.3521 -0.1807
17767TIP3    H274717   5.352   0.522  12.636  0.0280 -1.7260 -0.1357
17768TIP3   OH274718   1.387   6.647  10.726  0.3170  0.2743  0.3761
17768TIP3    H174719   1.469   6.694  10.744 -0.0420  0.1694  2.5138
17768TIP3    H274720   1.323   6.686  10.786 -0.2429 -2.2142  1.5523
17769TIP3   OH274721   4.818   5.995  15.410 -0.1027  0.1749  0.4689
17769TIP3    H174722   4.749   5.970  15.348 -1.0469 -0.3091  1.6682
17769TIP3    H274723   4.772   6.013  15.491  1.2794 -1.5424  1.7266
17770TIP3   OH274724   2.313   3.670   0.726 -0.0498  0.4403  0.2496
17770TIP3    H174725   2.246   3.614   0.686 -0.9591  1.4057  0.3660
17770TIP3    H274726   2.355   3.614   0.791 -1.4465  0.0960  0.9042
17771TIP3   OH274727   1.117   5.292  11.925 -0.1682 -0.0978 -0.2105
17771TIP3    H174728   1.077   5.378  11.913 -0.1099  0.0405  0.5183
17771TIP3    H274729   1.088   5.265  12.012  0.5382 -0.4168 -0.0713
17772TIP3   OH274730   1.029   6.725  11.544 -0.3318 -0.4562  0.2394
17772TIP3    H174731   1.060   6.745  11.632 -0.6404  0.9833  0.0499
17772TIP3    H274732   0.947   6.775  11.535 -1.4050 -2.1919 -0.1458
17773TIP3   OH274733   5.056   2.069  13.746 -0.1125 -0.4469  0.3834
17773TIP3    H174734   5.062   2.129  13.672  1.8185 -1.8299 -0.6871
17773TIP3    H274735   5.107   2.109  13.815  2.3150 -1.3517 -0.7735
17774TIP3   OH274736   3.162   1.612   2.582 -0.3337  0.5503 -0.2335
17774TIP3    H174737   3.087   1.601   2.640  1.4010  1.2059  2.3303
17774TIP3    H274738   3.125   1.638   2.499 -3.1757 -3.0738 -0.3639
17775TIP3   OH274739   4.159   5.937  12.353 -0.0128 -0.1404  0.1702
17775TIP3    H174740   4.094   5.942  12.283 -2.0390 -1.5655  1.8030
17775TIP3    H274741   4.207   5.856  12.336 -0.2713 -0.3079  0.2363
17776TIP3   OH274742   2.961   4.809  16.688  0.0223  0.2881 -0.0846
17776TIP3    H174743   2.920   4.853  16.763 -0.5829 -1.2601  0.5187
17776TIP3    H274744   2.918   4.848  16.612  1.2614  2.5321  0.2614
17777TIP3   OH274745   3.092   1.578   5.632 -0.4731 -0.5428 -0.2466
17777TIP3    H174746   3.131   1.648   5.581  0.8923 -0.1856  1.1959
17777TIP3    H274747   3.007   1.611   5.658 -0.7021 -0.2795 -1.3011
17778TIP3   OH274748   4.775   0.666  12.509 -0.0284  0.5176 -0.6631
17778TIP3    H174749   4.691   0.713  12.503 -1.6357 -2.1625 -0.5778
17778TIP3    H274750   4.781   0.618  12.427  0.3661 -0.9636  0.2140
17779TIP3   OH274751   1.646   3.724  12.535 -0.6221  0.3205 -0.0352
17779TIP3    H174752   1.574   3.765  12.488 -0.9143  0.0169  0.1447
17779TIP3    H274753   1.661   3.641  12.490 -0.4308  0.3497 -0.0284
17780TIP3   OH274754   4.482   0.235  15.862 -0.0420 -0.1204 -0.3331
17780TIP3    H174755   4.532   0.282  15.929  0.2771  0.7391 -1.1500
17780TIP3    H274756   4.478   0.145  15.894 -0.3215  0.3782  1.0697
17781TIP3   OH274757   6.282   5.202   4.277 -0.2621  0.5222 -0.2106
17781TIP3    H174758   6.374   5.228   4.276  0.0569 -0.5452 -0.3706
17781TIP3    H274759   6.254   5.210   4.186 -0.2532  0.6021 -0.2058
17782TIP3   OH274760   0.589   4.594   0.311 -0.3364 -0.8479  0.0241
17782TIP3    H174761   0.658   4.584   0.244 -0.4260 -0.0462 -0.2037
17782TIP3    H274762   0.518   4.538   0.280 -0.4762 -0.2950 -0.7069
17783TIP3   OH274763   3.221   5.826  14.410  0.4091 -0.8359  0.1864
17783TIP3    H174764   3.263   5.908  14.382  0.0275 -0.7038 -0.0074
17783TIP3    H274765   3.229   5.769  14.333 -2.5915  0.2551 -1.0766
17784TIP3   OH274766   5.931   5.124  16.084  0.5322 -0.0507 -0.6487
17784TIP3    H174767   5.897   5.116  15.995  1.1603  1.3322 -1.0276
17784TIP3    H274768   5.999   5.191  16.079  0.6587 -0.0217  0.8572
17785TIP3   OH274769   6.665   3.311  14.295  0.0734 -0.5217  0.2659
17785TIP3    H174770   6.702   3.375  14.234 -1.9400  0.2129 -0.2597
17785TIP3    H274771   6.738   3.288  14.353  1.2237  1.1531 -0.4389
17786TIP3   OH274772   0.624   3.900  12.218  0.0734 -0.2930 -0.1186
17786TIP3    H174773   0.648   3.828  12.276  0.2521  0.5110  0.8365
17786TIP3    H274774   0.703   3.954  12.212 -0.9157  1.5135  1.7506
17787TIP3   OH274775   4.447   3.205   1.876 -0.0152  0.3177 -0.2539
17787TIP3    H174776   4.463   3.124   1.828  0.3253  0.6374 -0.6872
17787TIP3    H274777   4.363   3.237   1.842 -1.0108 -0.6976  1.1075
17788TIP3   OH274778   4.921   1.981   2.262  0.0056 -0.7045 -0.0263
17788TIP3    H174779   4.999   2.036   2.272 -0.0089 -0.7292  0.2156
17788TIP3    H274780   4.943   1.920   2.192 -0.9649  1.3895 -2.3202
17789TIP3   OH274781   3.610   2.685   1.834  0.1869 -0.0072  0.1369
17789TIP3    H174782   3.530   2.721   1.794 -0.3295 -0.7468  0.4748
17789TIP3    H274783   3.671   2.759   1.836  0.2486  0.0642 -2.0299
17790TIP3   OH274784   2.977   2.913   1.024 -0.1592 -0.2427  0.1145
17790TIP3    H174785   2.974   2.967   0.945 -0.2154 -0.2120  0.1373
17790TIP3    H274786   3.056   2.941   1.070  0.1607 -0.6276 -0.1905
17791TIP3   OH274787   3.685   5.961  16.344  0.1765  0.3034 -0.5576
17791TIP3    H174788   3.609   5.908  16.322  0.8188 -1.0513  0.3638
17791TIP3    H274789   3.760   5.913  16.309  0.6530  1.4876 -1.2264
17792TIP3   OH274790   2.219   3.548  13.155 -1.0934 -0.4653  0.1978
17792TIP3    H174791   2.249   3.471  13.204 -0.7347  0.2635  1.1553
17792TIP3    H274792   2.299   3.587  13.120 -1.2078 -0.1639  0.2723
17793TIP3   OH274793   6.181   0.380   1.603 -0.2218  0.2870  0.0505
17793TIP3    H174794   6.256   0.371   1.663  0.1999  0.0632 -0.5040
17793TIP3    H274795   6.161   0.474   1.605  1.3316  0.6831 -1.2777
17794TIP3   OH274796   2.090   5.465   4.906 -0.1367  0.4213 -0.5752
17794TIP3    H174797   2.050   5.536   4.857  0.4170  0.9998 -0.2044
17794TIP3    H274798   2.172   5.502   4.939  0.3333 -0.4982 -0.6784
17795TIP3   OH274799   3.384   0.925   2.789 -0.0162 -0.3333  0.4956
17795TIP3    H174800   3.319   0.993   2.769  0.8482  0.3505 -0.0386
17795TIP3    H274801   3.332   0.854   2.828 -0.7410  1.3338  2.8278
17796TIP3   OH274802   6.778   5.042   5.724  0.1580 -0.5421 -0.7572
17796TIP3    H174803   6.833   4.988   5.781 -0.2803 -0.5447 -0.3288
17796TIP3    H274804   6.690   5.033   5.760  0.1423  0.8081 -0.3925
17797TIP3   OH274805   2.531   2.053  12.986 -0.0796  0.4052 -0.1535
17797TIP3    H174806   2.489   2.137  12.966  0.8716  0.5245 -1.8422
17797TIP3    H274807   2.462   1.988  12.973 -0.0968  0.6967 -1.7190
17798TIP3   OH274808   2.417   4.196   1.931  0.5066  0.6848  0.4592
17798TIP3    H174809   2.330   4.234   1.921 -0.6529 -2.1788 -1.6207
17798TIP3    H274810   2.429   4.189   2.026 -1.8906  0.4063  0.7983
17799TIP3   OH274811   3.497   2.420   4.512 -0.0319 -0.3880  0.0393
17799TIP3    H174812   3.562   2.400   4.445 -0.1545 -1.5259  0.2415
17799TIP3    H274813   3.418   2.443   4.464  0.1144 -0.3903 -0.2017
17800TIP3   OH274814   3.131   5.175   5.331 -0.4563 -0.0184  0.0265
17800TIP3    H174815   3.200   5.159   5.267  0.8426  0.5361  1.2275
17800TIP3    H274816   3.054   5.130   5.296  0.6901 -1.2203 -1.0361
17801TIP3   OH274817   5.810   0.483  17.097  0.2455 -0.0414 -0.0670
17801TIP3    H174818   5.863   0.548  17.052  1.5602  0.1132  1.6076
17801TIP3    H274819   5.732   0.531  17.125  1.2653  0.8884  1.2826
17802TIP3   OH274820   1.545   5.444   5.004  0.0868 -0.0320 -0.5275
17802TIP3    H174821   1.614   5.494   4.961 -0.9131  1.9802  0.1049
17802TIP3    H274822   1.582   5.420   5.089  0.6336 -0.5378 -0.9026
17803TIP3   OH274823   2.400   0.046   3.859 -0.2071  0.5733  0.2158
17803TIP3    H174824   2.326   0.101   3.834  0.8565  1.3350 -1.5376
17803TIP3    H274825   2.476   0.088   3.818  0.8451 -1.5051 -0.1416
17804TIP3   OH274826   2.608   1.448  13.492  0.2746  0.1337  0.4729
17804TIP3    H174827   2.576   1.358  13.502  1.4443 -0.9109 -3.5824
17804TIP3    H274828   2.701   1.439  13.471  0.1107  2.1393 -1.4870
17805TIP3   OH274829   5.383   1.332  11.058  0.4178 -0.5742 -0.2446
17805TIP3    H174830   5.378   1.426  11.071 -1.4502 -0.4781 -1.2532
17805TIP3    H274831   5.451   1.320  10.992 -0.5143  0.2442 -1.3865
17806TIP3   OH274832   3.890   5.287  11.761  0.5061 -0.2909 -0.3104
17806TIP3    H174833   3.821   5.222  11.775  0.1768  0.0695 -0.2644
17806TIP3    H274834   3.971   5.235  11.757  0.5375 -0.5462  2.0175
17807TIP3   OH274835   3.117   0.758   5.503  0.0302 -0.1745 -0.0325
17807TIP3    H174836   3.066   0.677   5.515  2.2456 -1.6931 -0.1461
17807TIP3    H274837   3.114   0.801   5.588  0.8815 -1.7191  0.8258
17808TIP3   OH274838   2.239   3.471   4.926 -0.0607  0.2243  0.4123
17808TIP3    H174839   2.220   3.390   4.879 -0.1635 -0.3646  1.4498
17808TIP3    H274840   2.216   3.540   4.864 -2.2571 -0.5059  0.3352
17809TIP3   OH274841   5.226   1.824   2.794 -0.4803 -0.6409  0.3735
17809TIP3    H174842   5.200   1.891   2.857  0.7345  1.0440 -0.8074
17809TIP3    H274843   5.316   1.848   2.769 -0.1728 -2.4580 -0.4377
17810TIP3   OH274844   6.760   0.550   3.855  0.0837  0.2822  0.1028
17810TIP3    H174845   6.776   0.568   3.948 -0.7231  2.2027 -0.0862
17810TIP3    H274846   6.782   0.632   3.811  0.6593 -0.6618 -1.4514
17811TIP3   OH274847   4.153   1.942  15.103  0.2232 -0.2859  0.3310
17811TIP3    H174848   4.223   1.921  15.165 -0.4483 -0.6089  0.9906
17811TIP3    H274849   4.162   1.877  15.034  1.5753  0.6476 -0.4391
17812TIP3   OH274850   3.004   5.151  15.816  0.2216  0.4522 -0.6299
17812TIP3    H174851   2.993   5.178  15.725 -1.8820 -0.3633 -0.6716
17812TIP3    H274852   2.955   5.215  15.866 -0.3183 -0.2353 -0.2648
17813TIP3   OH274853   2.062   1.079   4.273  0.5004  0.4758  0.4643
17813TIP3    H174854   2.125   1.119   4.333  0.2482  2.8411 -0.7208
17813TIP3    H274855   1.978   1.116   4.300  0.1838  0.4113 -0.4145
17814TIP3   OH274856   3.850   5.026   1.395  0.6194 -0.5324  0.2879
17814TIP3    H174857   3.893   5.100   1.351 -1.5846  2.1587  2.2732
17814TIP3    H274858   3.775   5.006   1.340  0.0831  0.1354  0.7601
17815TIP3   OH274859   5.576   5.119  15.527  0.3686  0.4379 -0.6436
17815TIP3    H174860   5.546   5.193  15.475  0.3791  0.5574 -0.4809
17815TIP3    H274861   5.671   5.130  15.531  0.2692  1.0791  0.3724
17816TIP3   OH274862   4.877   6.482   2.959 -0.6273 -0.2256 -0.4373
17816TIP3    H174863   4.925   6.564   2.962 -0.2435 -0.4605  1.9958
17816TIP3    H274864   4.941   6.415   2.983 -1.4631 -0.9073 -0.0159
17817TIP3   OH274865   4.108   1.113   6.438  0.0746  0.1536  0.2904
17817TIP3    H174866   4.140   1.179   6.376  1.4286  0.6054  1.4207
17817TIP3    H274867   4.161   1.036   6.421  0.7937  0.4334  1.1808
17818TIP3   OH274868   2.643   4.485   0.309  0.0408  0.0031 -0.2897
17818TIP3    H174869   2.703   4.465   0.381  1.2676  0.7088 -1.0927
17818TIP3    H274870   2.677   4.566   0.271 -1.0930  0.1043 -1.1354
17819TIP3   OH274871   3.552   1.202  15.391 -0.1593 -0.0907  0.3982
17819TIP3    H174872   3.534   1.129  15.450  1.3384 -1.3346 -0.6121
17819TIP3    H274873   3.540   1.165  15.303  1.6873  0.5331 -0.1701
17820TIP3   OH274874   2.458   4.435  10.403 -0.1108  0.4106  0.1561
17820TIP3    H174875   2.533   4.377  10.385 -0.1149  0.2109  0.7653
17820TIP3    H274876   2.407   4.432  10.322 -0.0417 -0.3405  0.1262
17821TIP3   OH274877   4.222   5.236   2.572  0.5134  0.1206  0.0231
17821TIP3    H174878   4.198   5.318   2.615 -0.3305  0.4120 -0.9512
17821TIP3    H274879   4.312   5.220   2.600  0.0421  0.3234  1.8147
17822TIP3   OH274880   4.556   0.966   0.367  0.4340 -0.4002 -0.2179
17822TIP3    H174881   4.614   1.012   0.305 -1.3317  0.8221 -1.0316
17822TIP3    H274882   4.523   0.892   0.317 -0.3451  0.1199 -0.4960
17823TIP3   OH274883   4.178   4.164  10.858 -0.2616 -0.1585  0.0717
17823TIP3    H174884   4.237   4.236  10.878 -0.5960 -0.8631  4.6027
17823TIP3    H274885   4.233   4.086  10.862 -0.7606 -0.5151  0.0763
17824TIP3   OH274886   1.899   4.390   3.825 -0.0487  0.6020  0.5111
17824TIP3    H174887   1.896   4.369   3.918 -1.7225 -0.6125  0.2248
17824TIP3    H274888   1.934   4.312   3.783  0.9476  1.2338  0.1167
17825TIP3   OH274889   4.786   1.415   4.569  0.0202 -0.4572  0.3017
17825TIP3    H174890   4.776   1.509   4.585 -1.2182 -0.2903 -1.2640
17825TIP3    H274891   4.743   1.374   4.644  1.2248  0.1917  1.3866
17826TIP3   OH274892   1.882   2.398  11.970 -0.0053  0.0000  0.3447
17826TIP3    H174893   1.853   2.306  11.972 -1.1064  0.3449  0.9218
17826TIP3    H274894   1.938   2.407  12.047 -0.4404 -0.0287  0.6706
17827TIP3   OH274895   3.081   0.800   3.867 -0.2059  1.0090  0.1915
17827TIP3    H174896   2.996   0.787   3.824 -0.0098 -0.7925  0.2821
17827TIP3    H274897   3.102   0.715   3.905  1.5185  1.4993  0.4117
17828TIP3   OH274898   1.478   0.889  13.984 -0.2152 -0.1353 -0.0184
17828TIP3    H174899   1.410   0.941  14.026 -0.3891  1.3866 -2.0061
17828TIP3    H274900   1.433   0.808  13.958 -0.5061 -0.3775  1.2158
17829TIP3   OH274901   6.241   5.279  12.295 -0.4372 -0.2105 -0.0832
17829TIP3    H174902   6.218   5.336  12.369 -1.3765 -1.6727  0.7966
17829TIP3    H274903   6.244   5.338  12.220 -1.1591  1.0327  0.8180
17830TIP3   OH274904   4.748   5.377  12.491  1.0236  0.3556  0.7819
17830TIP3    H174905   4.756   5.283  12.477  0.3969  0.5916 -1.6566
17830TIP3    H274906   4.655   5.391  12.510  0.7503  0.6426 -0.6905
17831TIP3   OH274907   0.468   0.255  14.183 -0.6698 -0.7578  0.5509
17831TIP3    H174908   0.490   0.341  14.217 -2.1512  0.3768 -1.1774
17831TIP3    H274909   0.531   0.196  14.225  3.4506  1.7040 -1.4542
17832TIP3   OH274910   4.915   3.434   1.521 -0.3857 -0.0135  0.5839
17832TIP3    H174911   4.996   3.480   1.539  0.4391 -0.2009 -2.1286
17832TIP3    H274912   4.912   3.363   1.586  3.8982 -2.6435 -1.6048
17833TIP3   OH274913   0.294   4.599   5.865  0.5548 -0.4319 -0.3075
17833TIP3    H174914   0.283   4.628   5.956  1.9596 -0.3860 -0.1389
17833TIP3    H274915   0.308   4.679   5.815  0.0878 -0.4817 -0.5205
17834TIP3   OH274916   1.110   6.029   3.591  0.0763  0.2585  0.0153
17834TIP3    H174917   1.143   6.059   3.507  0.9881 -0.3671  0.1333
17834TIP3    H274918   1.175   6.059   3.655  0.1149 -0.4598  0.3271
17835TIP3   OH274919   0.765   2.820   2.266  0.0806  0.2418 -0.3060
17835TIP3    H174920   0.772   2.726   2.279 -1.8666 -0.0278 -0.8177
17835TIP3    H274921   0.671   2.836   2.257  0.1530  2.5058  1.7583
17836TIP3   OH274922   4.012   2.166  17.213  0.5038  0.1067 -0.0824
17836TIP3    H174923   3.950   2.239  17.220  0.1265 -0.3791  2.3925
17836TIP3    H274924   3.997   2.131  17.125 -1.3184  1.2588 -0.2859
17837TIP3   OH274925   1.244   2.081   2.057  0.1545 -0.6369  0.4093
17837TIP3    H174926   1.271   2.159   2.009 -0.0781 -1.1446 -0.5706
17837TIP3    H274927   1.231   2.111   2.147  2.0774  0.0209  0.5142
17838TIP3   OH274928   5.689   5.615   3.854 -0.6498  0.1260 -0.3038
17838TIP3    H174929   5.693   5.522   3.877 -1.1699  0.6135  1.9373
17838TIP3    H274930   5.676   5.615   3.759 -0.5546 -2.0805 -0.3700
17839TIP3   OH274931   3.838   3.537   2.285  0.1460  0.1437  0.2772
17839TIP3    H174932   3.906   3.498   2.340  2.0423 -3.0460 -3.8305
17839TIP3    H274933   3.883   3.607   2.238 -0.2385  0.0610 -0.2193
17840TIP3   OH274934   2.594   5.319   6.606  0.2177  0.1694 -0.0141
17840TIP3    H174935   2.514   5.351   6.563 -0.3079  1.3393  1.7131
17840TIP3    H274936   2.641   5.399   6.630  0.7523 -0.4481  1.0460
17841TIP3   OH274937   3.145   2.386   6.596 -0.0850 -0.0994 -0.9570
17841TIP3    H174938   3.171   2.445   6.526  1.4470  1.7583  1.0472
17841TIP3    H274939   3.096   2.441   6.658  0.3386 -1.1711  0.3911
17842TIP3   OH274940   6.647   0.010  10.324 -0.0961 -0.3949 -0.4196
17842TIP3    H174941   6.588   0.082  10.348  1.7528  0.8716  0.5766
17842TIP3    H274942   6.600  -0.069  10.351 -1.4754  0.5266  0.0162
17843TIP3   OH274943   1.415   6.518  14.341  0.1592 -0.1331 -0.4987
17843TIP3    H174944   1.369   6.594  14.376  0.7768 -0.2553  0.5975
17843TIP3    H274945   1.357   6.486  14.271 -2.4859 -1.5281  2.1382
17844TIP3   OH274946   5.239   1.413  11.528 -0.0906 -0.2216  0.1720
17844TIP3    H174947   5.265   1.323  11.509 -0.2371 -0.3612  0.6272
17844TIP3    H274948   5.222   1.452  11.442  0.2964 -0.5308 -0.0442
17845TIP3   OH274949   2.624   0.544   3.746 -0.6929 -0.0391 -0.2176
17845TIP3    H174950   2.537   0.533   3.785 -0.2003  1.1717  1.3268
17845TIP3    H274951   2.685   0.518   3.816  0.2018 -0.8358 -1.2632
17846TIP3   OH274952   3.317   4.719   5.180  0.1706  0.0384 -0.3442
17846TIP3    H174953   3.369   4.761   5.111  1.2917  0.4151  0.6988
17846TIP3    H274954   3.344   4.627   5.177  0.3514  0.0884 -0.3081
17847TIP3   OH274955   4.049   6.335   5.306 -0.2769  0.3458  0.3085
17847TIP3    H174956   4.106   6.409   5.328 -2.0760  1.5484  1.0960
17847TIP3    H274957   3.976   6.340   5.367 -0.8330 -1.6746 -0.0922
17848TIP3   OH274958   5.993   0.286   1.369  0.0932  0.1547 -0.5930
17848TIP3    H174959   6.087   0.298   1.383 -0.1059 -0.7357  1.9964
17848TIP3    H274960   5.952   0.356   1.420 -0.6606 -0.4106 -0.4137
17849TIP3   OH274961   5.459   6.125  16.026  0.2136 -0.1798  0.4473
17849TIP3    H174962   5.382   6.098  16.077 -1.1057 -0.4580 -1.5492
17849TIP3    H274963   5.447   6.220  16.014  2.2010  0.5417  3.2082
17850TIP3   OH274964   3.543   0.563  16.079  0.1696  0.1837 -0.2658
17850TIP3    H174965   3.518   0.653  16.058 -1.5060 -0.0844  0.4072
17850TIP3    H274966   3.500   0.545  16.162  1.3232 -0.9260  0.1231
17851TIP3   OH274967   1.408   5.822   3.650 -0.2339  0.5074  0.0105
17851TIP3    H174968   1.349   5.753   3.680  0.4400 -0.3209 -0.5382
17851TIP3    H274969   1.436   5.866   3.731 -0.9057  0.3495  0.3369
17852TIP3   OH274970   3.061   1.133   0.710  0.5381  0.3207  0.2834
17852TIP3    H174971   2.968   1.150   0.728  0.5660 -0.2669  1.0550
17852TIP3    H274972   3.072   1.153   0.617 -0.7076 -0.9871 -0.1916
17853TIP3   OH274973   2.712   0.571   4.316  0.0220 -0.4209  0.5254
17853TIP3    H174974   2.726   0.537   4.404 -1.9458  0.0051  1.0474
17853TIP3    H274975   2.747   0.660   4.319  1.6716 -1.0260  0.2833
17854TIP3   OH274976   6.609   2.105  16.377  0.1492  0.3317 -0.1936
17854TIP3    H174977   6.690   2.105  16.427  0.4213  4.5470 -0.2081
17854TIP3    H274978   6.629   2.056  16.298  2.0918 -0.2292  0.6004
17855TIP3   OH274979   0.150   6.122  16.516 -0.0287  0.1882 -0.2966
17855TIP3    H174980   0.125   6.097  16.605 -1.3844  0.6242 -0.5259
17855TIP3    H274981   0.210   6.196  16.527  0.2113 -0.0857  0.2625
17856TIP3   OH274982   3.195   3.073   1.858  0.2437  0.3737 -0.2088
17856TIP3    H174983   3.190   2.988   1.902 -1.4385 -0.2340 -1.4639
17856TIP3    H274984   3.273   3.067   1.804 -0.9252 -1.2520 -1.8639
17857TIP3   OH274985   6.405   6.228   3.554  0.0267 -0.8828 -0.5235
17857TIP3    H174986   6.440   6.226   3.465  2.3085  2.9468  0.0408
17857TIP3    H274987   6.452   6.159   3.601  0.0705 -1.7818 -1.8457
17858TIP3   OH274988   3.038   4.932  14.573 -0.6096  0.9413  0.0705
17858TIP3    H174989   3.067   4.968  14.657  1.9020  0.9297 -0.7076
17858TIP3    H274990   3.049   4.838  14.583 -0.5930  0.9177 -0.1776
17859TIP3   OH274991   5.307   6.514  13.387  0.1864  0.8226 -0.6458
17859TIP3    H174992   5.317   6.420  13.405 -3.1068 -0.0487 -2.5622
17859TIP3    H274993   5.258   6.548  13.461 -0.5708  0.5104 -0.9982
17860TIP3   OH274994   5.547   3.085  11.871 -0.3876  0.0661  0.0506
17860TIP3    H174995   5.624   3.045  11.830 -1.4409 -1.0779 -0.8959
17860TIP3    H274996   5.568   3.087  11.964  0.3277 -1.3514 -0.0430
17861TIP3   OH274997   3.626   3.078   1.816 -0.0306  0.4333  0.5072
17861TIP3    H174998   3.631   3.173   1.820  1.5658  0.3580  0.8676
17861TIP3    H274999   3.671   3.054   1.736 -0.8586 -0.0044  0.1635
17862TIP3   OH275000   4.459   4.311  12.606 -0.0848  0.5823  0.3500
17862TIP3    H175001   4.461   4.369  12.529  1.5181  1.0274  0.6829
17862TIP3    H275002   4.366   4.296  12.622 -0.4648  0.4889 -1.6620
17863TIP3   OH275003   5.970   0.131   3.066 -0.4071  0.1665  0.1559
17863TIP3    H175004   5.934   0.065   3.006 -1.1951 -0.8643  1.6993
17863TIP3    H275005   6.041   0.085   3.112 -0.4373  0.6328  0.6823
17864TIP3   OH275006   6.528   0.569   1.117  0.0906  0.3874 -0.0795
17864TIP3    H175007   6.465   0.542   1.183  1.0632  0.4758  0.9131
17864TIP3    H275008   6.506   0.516   1.040  0.9916 -2.2055  1.3440
17865TIP3   OH275009   2.757   0.274   6.096 -0.0709 -0.5906  0.5565
17865TIP3    H175010   2.772   0.221   6.175 -1.0095  0.2918  1.3628
17865TIP3    H275011   2.669   0.309   6.108  1.7419  4.2883  2.0345
17866TIP3   OH275012   6.122   0.935  16.145  0.1952 -0.2074 -0.0264
17866TIP3    H175013   6.104   0.995  16.217  1.4928  0.8517 -0.5489
17866TIP3    H275014   6.196   0.883  16.176  0.4937 -0.0256 -0.4263
17867TIP3   OH275015   1.508   0.171   0.162 -0.2215 -0.1775 -0.1879
17867TIP3    H175016   1.428   0.215   0.189 -0.3138 -0.7377  0.4778
17867TIP3    H275017   1.574   0.240   0.162 -0.7762  0.3777 -1.1490
17868TIP3   OH275018   6.376   1.984  11.482 -0.7036  0.3989  0.0253
17868TIP3    H175019   6.357   2.000  11.389  1.3180  1.5035 -0.2338
17868TIP3    H275020   6.400   2.069  11.517  1.2133 -0.4337  0.8836
17869TIP3   OH275021   4.674   3.480   0.252  0.4756 -0.4399  0.1257
17869TIP3    H175022   4.657   3.527   0.333  1.2917  0.6098 -0.2842
17869TIP3    H275023   4.649   3.389   0.270 -0.2048 -0.0355  1.2479
17870TIP3   OH275024   5.641   1.448  15.178  1.4630  0.1189 -0.5209
17870TIP3    H175025   5.666   1.356  15.168 -0.3545 -0.6905  1.5916
17870TIP3    H275026   5.694   1.480  15.251  0.2827 -0.0125  0.4070
17871TIP3   OH275027   2.655   6.690   0.146  0.2906  0.5601 -0.1246
17871TIP3    H175028   2.690   6.752   0.211  1.5445  0.5936 -0.7891
17871TIP3    H275029   2.677   6.604   0.180 -0.6333  0.5092  0.3520
17872TIP3   OH275030   5.430   0.050   2.288  0.5627 -0.4691 -0.1158
17872TIP3    H175031   5.355   0.046   2.229  0.4201  2.0891 -0.2327
17872TIP3    H275032   5.393   0.038   2.376  0.4329 -1.7837 -0.3242
17873TIP3   OH275033   2.015   5.404  12.892 -1.2573 -0.2014  0.1609
17873TIP3    H175034   2.092   5.363  12.931 -2.4772  0.0367  3.0425
17873TIP3    H275035   2.015   5.372  12.802  3.7874  2.0693 -0.9802
17874TIP3   OH275036   0.569   4.264   1.894  0.1718  0.1598  0.0032
17874TIP3    H175037   0.631   4.291   1.827  0.5041  0.2567  0.3406
17874TIP3    H275038   0.577   4.169   1.897  0.2789  0.1692  0.0208
17875TIP3   OH275039   1.154   4.349  16.499 -0.1142 -0.6655  0.3072
17875TIP3    H175040   1.123   4.413  16.562 -0.2584  0.1871 -0.6119
17875TIP3    H275041   1.147   4.393  16.414 -0.2409 -1.9051 -0.3476
17876TIP3   OH275042   4.235   4.110  15.495  0.9089  0.2356 -0.3627
17876TIP3    H175043   4.227   4.204  15.509  1.3204  0.2714 -0.3517
17876TIP3    H275044   4.278   4.102  15.409  2.6399  0.1035  0.4652
17877TIP3   OH275045   3.428   2.503   2.838 -0.0038  0.5522  0.1918
17877TIP3    H175046   3.473   2.559   2.774 -1.5982  1.8152  0.0964
17877TIP3    H275047   3.336   2.529   2.831 -0.7951 -1.9351  0.3556
17878TIP3   OH275048   1.689   3.628   3.062  0.2007  0.0206 -0.0580
17878TIP3    H175049   1.645   3.678   3.131  0.2287  1.1288 -0.8150
17878TIP3    H275050   1.773   3.604   3.101  0.1693  0.5354  0.3404
17879TIP3   OH275051   1.617   5.371  15.818  0.1906  0.2887 -0.1940
17879TIP3    H175052   1.616   5.443  15.754 -2.5700  0.4867 -0.0433
17879TIP3    H275053   1.621   5.292  15.765  1.4773  0.4840 -0.4266
17880TIP3   OH275054   4.144   5.808   0.440  0.6257 -0.0142 -0.3624
17880TIP3    H175055   4.103   5.824   0.356 -0.4008  0.6074  0.2362
17880TIP3    H275056   4.107   5.875   0.498  2.3997  0.5057  0.2377
17881TIP3   OH275057   0.726   5.627  11.057  0.2644 -0.1876 -0.0593
17881TIP3    H175058   0.650   5.568  11.056  1.9009 -2.3945 -0.3632
17881TIP3    H275059   0.740   5.650  10.965  0.2076 -0.0537 -0.0358
17882TIP3   OH275060   0.416   6.578  12.311  0.0701 -0.2488 -0.6877
17882TIP3    H175061   0.372   6.581  12.226  0.3692 -0.9760 -0.8737
17882TIP3    H275062   0.372   6.508  12.358  1.3994 -1.3880 -1.0941
17883TIP3   OH275063   4.225   0.469  11.078  0.2251 -0.4285  0.1741
17883TIP3    H175064   4.314   0.481  11.109  0.1495 -0.5544  0.4434
17883TIP3    H275065   4.229   0.490  10.985  0.4906 -0.2279  0.2296
17884TIP3   OH275066   0.735   3.717   6.091  0.1237  0.0815  0.1997
17884TIP3    H175067   0.782   3.776   6.150  3.4815  1.3264 -3.3063
17884TIP3    H275068   0.667   3.771   6.051  0.7808  0.5507 -0.3022
17885TIP3   OH275069   2.137   1.320   1.773  0.0894 -0.4056 -0.0920
17885TIP3    H175070   2.231   1.304   1.777  0.1328 -0.1008  0.1326
17885TIP3    H275071   2.121   1.344   1.682 -0.0915 -2.3877 -0.6125
17886TIP3   OH275072   5.135   4.421  13.086  0.6622 -0.4899 -0.0177
17886TIP3    H175073   5.065   4.356  13.079  0.7208 -0.6365  0.7352
17886TIP3    H275074   5.089   4.504  13.102  0.4999 -0.0780 -2.2838
17887TIP3   OH275075   4.663   1.797   4.060  0.4215  0.7701 -0.5145
17887TIP3    H175076   4.657   1.888   4.031 -1.3582  0.3470 -1.6057
17887TIP3    H275077   4.731   1.759   4.004  0.3756  1.1470 -0.8345
17888TIP3   OH275078   0.300   1.558   0.564  0.3232 -0.0994 -0.1883
17888TIP3    H175079   0.341   1.555   0.477 -0.1369  0.0622 -0.4171
17888TIP3    H275080   0.344   1.490   0.614  1.6105  0.7742 -0.0955
17889TIP3   OH275081   5.771   2.519  15.686  0.0577 -0.0007  0.3760
17889TIP3    H175082   5.798   2.506  15.595  1.2722  1.4426  0.4908
17889TIP3    H275083   5.845   2.486  15.738 -0.5075 -0.5475  0.8602
17890TIP3   OH275084   6.064   1.396   2.074 -0.6205  0.1263 -0.3745
17890TIP3    H175085   6.048   1.485   2.107  0.3711  0.1300  0.1096
17890TIP3    H275086   6.145   1.369   2.115 -0.9809 -1.0699 -0.4143
17891TIP3   OH275087   1.713   6.614   3.732  0.3535  0.2284  0.4668
17891TIP3    H175088   1.717   6.533   3.680 -0.6945  0.9465 -0.7991
17891TIP3    H275089   1.631   6.655   3.705  0.6836  1.5304  1.3743
17892TIP3   OH275090   5.559   2.506   3.767 -0.1667 -0.2859 -0.3269
17892TIP3    H175091   5.550   2.411   3.756 -0.0297 -0.1326 -2.0550
17892TIP3    H275092   5.646   2.517   3.807 -0.2048 -0.8960 -0.0695
17893TIP3   OH275093   0.210   2.114  11.596  0.4272 -0.0174 -0.0898
17893TIP3    H175094   0.200   2.037  11.651 -2.0623 -0.1080 -0.5313
17893TIP3    H275095   0.301   2.113  11.568  1.0508 -1.4656  1.8065
17894TIP3   OH275096   2.555   2.159   5.805 -0.1196 -0.4561  0.2351
17894TIP3    H175097   2.526   2.238   5.850 -2.2522 -0.2355 -1.3445
17894TIP3    H275098   2.579   2.188   5.717  1.1604 -1.2709  0.2946
17895TIP3   OH275099   6.493   0.042  16.740 -0.2285  0.9627  0.2868
17895TIP3    H175100   6.448   0.020  16.822  2.4003  1.8763  2.1154
17895TIP3    H275101   6.511  -0.042  16.698  0.2348  0.3009  1.7510
17896TIP3   OH275102   1.697   6.780   1.134 -0.4905 -0.0052  0.3548
17896TIP3    H175103   1.766   6.729   1.178 -0.7631  0.0977  0.9211
17896TIP3    H275104   1.725   6.871   1.141  0.1237 -0.0849 -0.8890
17897TIP3   OH275105   0.610   5.351  14.285  0.5727 -0.0569 -0.3151
17897TIP3    H175106   0.665   5.428  14.269  0.0868  0.2827 -0.3565
17897TIP3    H275107   0.630   5.326  14.375  1.9767 -0.8961 -0.8224
17898TIP3   OH275108   1.735   3.950  11.494  0.2198 -0.0301  0.2940
17898TIP3    H175109   1.658   3.905  11.529  0.7767 -2.0011 -0.8658
17898TIP3    H275110   1.773   3.995  11.569  0.1691 -2.3478  1.7971
17899TIP3   OH275111   1.899   5.313   4.553 -0.5861  0.1269  0.2026
17899TIP3    H175112   1.943   5.227   4.551 -0.3849  0.2297  0.1579
17899TIP3    H275113   1.929   5.356   4.473 -0.3388  0.4142  0.4513
17900TIP3   OH275114   2.821   2.233  12.640  0.1624  0.2123  0.1832
17900TIP3    H175115   2.798   2.282  12.719 -1.9748 -0.8173  0.2876
17900TIP3    H275116   2.812   2.296  12.569  0.4959  0.7388  0.6048
17901TIP3   OH275117   3.741   5.754   3.468  0.0400 -0.7899  0.5032
17901TIP3    H175118   3.786   5.680   3.427 -1.2565 -1.0312 -0.5834
17901TIP3    H275119   3.732   5.729   3.560  0.1676 -1.7172  0.2734
17902TIP3   OH275120   6.218   3.720   4.918 -0.0984 -0.1930  0.3410
17902TIP3    H175121   6.219   3.633   4.959  0.0478 -0.3307  0.0493
17902TIP3    H275122   6.130   3.753   4.935 -0.0171 -0.2237  0.8205
17903TIP3   OH275123   5.747   0.066  14.404 -0.2672 -0.3279 -0.1625
17903TIP3    H175124   5.677   0.036  14.463  0.3693 -0.9150  0.3049
17903TIP3    H275125   5.779  -0.014  14.363 -0.2248  0.0048 -0.7845
17904TIP3   OH275126   2.092   4.852  17.202 -0.0414 -0.1810 -0.1335
17904TIP3    H175127   2.115   4.764  17.172  1.0490 -0.0820  0.3613
17904TIP3    H275128   2.045   4.837  17.284  0.8774 -0.2872  0.3886
17905TIP3   OH275129   2.499   4.702  13.415  0.2934 -0.0441 -0.2774
17905TIP3    H175130   2.429   4.766  13.413  1.7950  1.8737  2.0770
17905TIP3    H275131   2.463   4.629  13.466 -0.2729  0.5929  0.2624
17906TIP3   OH275132   2.737   5.482  13.692  0.5565  0.5318  0.3403
17906TIP3    H175133   2.735   5.477  13.787 -4.1536 -1.5282  0.3866
17906TIP3    H275134   2.798   5.413  13.665  1.1551  0.4521  1.8492
17907TIP3   OH275135   6.568   1.111  16.822 -0.2932 -0.2256  0.3852
17907TIP3    H175136   6.499   1.052  16.851  0.9519 -2.5722 -1.1208
17907TIP3    H275137   6.521   1.185  16.783 -1.9451 -1.2096  0.4265
17908TIP3   OH275138   3.581   6.441  15.088  0.1463 -0.1576 -0.0256
17908TIP3    H175139   3.531   6.387  15.027  0.0734 -1.4530  1.1567
17908TIP3    H275140   3.530   6.522  15.094 -2.6745 -1.9089  2.1756
17909TIP3   OH275141   3.159   0.384   4.205  0.3122 -0.8189  0.2445
17909TIP3    H175142   3.175   0.297   4.169  0.5904 -0.8033  0.3231
17909TIP3    H275143   3.246   0.413   4.234  0.4303 -0.0108 -0.8875
17910TIP3   OH275144   6.133   3.001  15.162  0.6656  0.1714 -0.1078
17910TIP3    H175145   6.161   3.009  15.071  0.3363 -2.4903 -0.5258
17910TIP3    H275146   6.041   3.026  15.161  0.0989 -1.7710 -0.9631
17911TIP3   OH275147   1.607   5.139   1.273  0.0552  0.1623  0.1581
17911TIP3    H175148   1.667   5.210   1.250 -0.3035  1.2568  2.2890
17911TIP3    H275149   1.522   5.169   1.242  0.2783 -0.4741 -1.0976
17912TIP3   OH275150   1.112   0.789  16.707  0.6402 -0.0253  0.9407
17912TIP3    H175151   1.180   0.783  16.774  3.5538 -0.1521 -1.8240
17912TIP3    H275152   1.109   0.702  16.667  0.9908  0.7778 -0.9086
17913TIP3   OH275153   5.101   0.368   2.537  0.2062 -0.3352  0.5685
17913TIP3    H175154   5.167   0.340   2.474  0.5466 -1.5401  1.4249
17913TIP3    H275155   5.035   0.413   2.485 -0.4292 -2.8638 -0.9371
17914TIP3   OH275156   0.792   2.887   0.466 -0.4333 -0.0385  0.1616
17914TIP3    H175157   0.745   2.943   0.528 -1.1660 -0.3014 -0.1488
17914TIP3    H275158   0.784   2.933   0.382 -0.1747 -0.1083  0.0987
17915TIP3   OH275159   6.279   0.046  14.817 -0.1389 -0.7938  0.6937
17915TIP3    H175160   6.202  -0.010  14.819 -1.0688  0.4678  2.0303
17915TIP3    H275161   6.258   0.119  14.875  2.6068 -1.0913  2.2265
17916TIP3   OH275162   3.938   4.974  15.396 -0.1987  0.2824  0.3418
17916TIP3    H175163   4.027   4.993  15.365 -0.3654 -2.3891 -2.2034
17916TIP3    H275164   3.951   4.912  15.468  0.0817 -1.7950 -1.3955
17917TIP3   OH275165   4.963   3.962   4.267 -0.4506 -0.1187 -0.7084
17917TIP3    H175166   4.936   4.053   4.279 -0.7767 -0.1931 -0.8620
17917TIP3    H275167   4.915   3.933   4.189 -0.8293 -0.6063 -0.3024
17918TIP3   OH275168   3.242   2.996  11.344  0.1808  0.0859 -0.0946
17918TIP3    H175169   3.161   2.947  11.330 -0.1873  0.3918  0.8633
17918TIP3    H275170   3.254   3.046  11.263 -1.6036  1.4260  0.3909
17919TIP3   OH275171   4.293   3.693   3.219 -0.1285  0.5004  0.3367
17919TIP3    H175172   4.294   3.617   3.160 -2.7746  0.3851  0.3616
17919TIP3    H275173   4.350   3.757   3.175  0.2739 -0.6241 -0.8591
17920TIP3   OH275174   2.446   6.012  16.043 -0.0794  0.0100 -0.6352
17920TIP3    H175175   2.402   6.039  15.962 -1.1996 -1.3161 -0.5110
17920TIP3    H275176   2.394   6.052  16.113  0.7943  1.0205 -0.5295
17921TIP3   OH275177   6.616   2.735   3.892 -0.2356  0.4429 -0.0974
17921TIP3    H175178   6.617   2.766   3.801 -0.7597  0.3876 -0.1274
17921TIP3    H275179   6.547   2.668   3.893  0.9455 -0.8262 -0.0746
17922TIP3   OH275180   6.403   2.547  11.586  0.0999  0.0086 -0.1247
17922TIP3    H175181   6.489   2.519  11.553  0.4670 -1.3968  1.8505
17922TIP3    H275182   6.408   2.643  11.585  2.0635 -0.0273  0.7357
17923TIP3   OH275183   2.545   5.692  14.647  0.4042  0.6028 -0.0666
17923TIP3    H175184   2.569   5.622  14.586 -0.1514  1.7936 -1.7296
17923TIP3    H275185   2.461   5.665  14.682 -0.5971  1.1165 -1.9219
17924TIP3   OH275186   1.210   4.675  16.114 -0.1948  0.4164 -0.7534
17924TIP3    H175187   1.281   4.662  16.051  0.2202  1.8956 -0.6332
17924TIP3    H275188   1.131   4.679  16.060 -0.1258 -0.5784 -0.9506
17925TIP3   OH275189   3.765   1.824   4.648 -0.2911  0.4783 -0.1969
17925TIP3    H175190   3.836   1.790   4.702 -0.5330  0.1081 -0.1107
17925TIP3    H275191   3.756   1.760   4.577  0.2803  1.1514 -0.8958
17926TIP3   OH275192   5.369   2.793   2.016 -0.1025 -0.6543 -0.4114
17926TIP3    H175193   5.359   2.886   2.033  0.7534 -0.7967  1.0364
17926TIP3    H275194   5.346   2.783   1.923 -1.4923  0.7635 -0.2543
17927TIP3   OH275195   1.041   0.831  13.650 -0.0604 -0.5871  0.4415
17927TIP3    H175196   1.073   0.779  13.577  0.3827 -0.2849  0.4204
17927TIP3    H275197   0.972   0.777  13.689  0.1378 -1.0249  0.1914
17928TIP3   OH275198   6.679   4.657  16.726 -0.4587 -0.4537 -0.1603
17928TIP3    H175199   6.721   4.573  16.743 -3.0135 -1.3034  3.0503
17928TIP3    H275200   6.689   4.706  16.807 -1.1023  1.4274 -1.1489
17929TIP3   OH275201   5.455   4.176   4.372 -0.2035  0.1938 -0.4251
17929TIP3    H175202   5.383   4.116   4.392 -0.2164  0.6199  0.9466
17929TIP3    H275203   5.472   4.164   4.279 -1.2835 -0.7500 -0.5181
17930TIP3   OH275204   5.114   3.830   1.974  0.3681 -0.0956 -0.1306
17930TIP3    H175205   5.036   3.879   1.949  0.1924 -0.1515  0.3126
17930TIP3    H275206   5.147   3.795   1.891 -2.0364 -3.0158 -0.0338
17931TIP3   OH275207   4.801   1.022  16.362 -0.2726 -0.2295 -0.2387
17931TIP3    H175208   4.775   0.951  16.420 -0.6333  0.0054 -0.1132
17931TIP3    H275209   4.868   0.983  16.306  1.1001 -0.0954  1.2271
17932TIP3   OH275210   2.532   3.826  11.502 -0.4393 -0.3428  0.5054
17932TIP3    H175211   2.440   3.834  11.527 -0.5208  2.1700 -0.3174
17932TIP3    H275212   2.531   3.770  11.424 -1.3746  0.1676  0.1267
17933TIP3   OH275213   0.460   6.441   1.492 -0.0058 -0.4700 -0.4941
17933TIP3    H175214   0.369   6.469   1.505 -0.1319 -0.7953 -0.6735
17933TIP3    H275215   0.500   6.449   1.578  0.0849  0.7113 -0.6279
17934TIP3   OH275216   1.292   0.511   6.706 -0.4117  0.1231  0.2503
17934TIP3    H175217   1.328   0.439   6.654 -0.9830 -1.6479  2.1688
17934TIP3    H275218   1.363   0.535   6.766  0.2443  2.1488 -1.2556
17935TIP3   OH275219   6.713   0.863   5.472  0.2477  0.0612  0.4532
17935TIP3    H175220   6.744   0.906   5.392 -1.6227 -0.3473 -0.5508
17935TIP3    H275221   6.789   0.815   5.504  0.6052 -1.3116 -2.1621
17936TIP3   OH275222   5.271   3.885   5.358  0.1209 -0.3152  0.0693
17936TIP3    H175223   5.310   3.929   5.433  1.5192 -1.6333  0.1741
17936TIP3    H275224   5.179   3.874   5.382  0.5093 -0.5800  1.5519
17937TIP3   OH275225   4.624   6.705  11.109  0.1193 -0.1734  0.1024
17937TIP3    H175226   4.684   6.776  11.087  1.6685 -1.4556  0.0672
17937TIP3    H275227   4.547   6.721  11.054  1.1527  0.5141 -1.1934
17938TIP3   OH275228   3.270   1.602   3.407  0.3477 -0.0314 -0.2414
17938TIP3    H175229   3.338   1.612   3.341 -0.3983  0.3545 -0.9648
17938TIP3    H275230   3.204   1.668   3.385 -0.3255 -0.4756  0.3693
17939TIP3   OH275231   6.327   0.067  13.559  0.1599 -0.2894  0.8750
17939TIP3    H175232   6.393   0.047  13.492  1.1447  0.1022  1.6964
17939TIP3    H275233   6.292   0.152  13.533  0.9290  0.1189  1.1375
17940TIP3   OH275234   2.771   1.380  17.229  0.0204  0.2440 -0.3298
17940TIP3    H175235   2.749   1.468  17.258  0.0711  0.4784 -0.9921
17940TIP3    H275236   2.866   1.381  17.220 -0.0252  0.2620 -0.7963
17941TIP3   OH275237   4.658   0.545   4.566  0.1551 -0.6710 -0.1790
17941TIP3    H175238   4.598   0.618   4.582 -0.2419 -1.0344  0.0218
17941TIP3    H275239   4.703   0.533   4.649  1.5987  0.5566 -0.7417
17942TIP3   OH275240   5.565   4.975  14.873  0.1680  0.0251 -0.2356
17942TIP3    H175241   5.537   4.911  14.807 -0.9516  1.9228 -1.7064
17942TIP3    H275242   5.618   5.038  14.825  0.7739  0.5366  1.0534
17943TIP3   OH275243   3.645   0.586   1.030 -0.2801 -0.1872  0.6986
17943TIP3    H175244   3.570   0.536   0.995 -0.3013  0.4479 -0.2119
17943TIP3    H275245   3.608   0.641   1.099 -0.5693 -0.2213  0.5711
17944TIP3   OH275246   2.725   1.952   3.516  0.3791 -0.6807  0.1775
17944TIP3    H175247   2.731   2.036   3.562  2.8993 -0.3099 -0.6571
17944TIP3    H275248   2.660   1.966   3.448 -0.3332  0.1012  0.9919
17945TIP3   OH275249   4.432   3.023   1.009 -0.2539  0.7041  0.7245
17945TIP3    H175250   4.402   2.970   1.083 -2.3224 -0.5820 -0.9003
17945TIP3    H275251   4.463   2.960   0.945 -1.6689  1.4574 -0.8030
17946TIP3   OH275252   1.601   5.917  15.394 -0.2034 -0.4615 -0.1998
17946TIP3    H175253   1.619   6.008  15.418 -0.6081  0.0918 -1.8777
17946TIP3    H275254   1.687   5.877  15.386  0.0393  0.1604 -0.8064
17947TIP3   OH275255   0.935   6.480  11.465  0.1946  0.0153 -0.1172
17947TIP3    H175256   0.973   6.567  11.479  0.3964 -0.3663  2.1349
17947TIP3    H275257   1.001   6.419  11.499  0.0916 -1.0720 -1.7311
17948TIP3   OH275258   4.805   4.140   2.271 -0.0578 -0.0418  0.1886
17948TIP3    H175259   4.874   4.139   2.205 -0.9095 -1.0478 -0.7215
17948TIP3    H275260   4.838   4.198   2.340  0.7854  1.1770 -1.1889
17949TIP3   OH275261   2.929   3.819  11.613  0.6090 -0.0522 -0.0470
17949TIP3    H175262   2.838   3.850  11.610  0.7813  0.4892  0.2157
17949TIP3    H275263   2.981   3.899  11.627  1.0919 -0.4175  0.2486
17950TIP3   OH275264   5.916   1.297   1.851  0.6638  0.8853  0.6273
17950TIP3    H175265   5.965   1.351   1.912 -0.7250  0.4020  2.2776
17950TIP3    H275266   5.829   1.290   1.890  0.4715 -1.6210 -0.0573
17951TIP3   OH275267   0.559   5.381  13.969 -0.1692 -0.1690 -0.5291
17951TIP3    H175268   0.493   5.350  14.030 -2.3726 -0.5665 -2.9277
17951TIP3    H275269   0.565   5.475  13.985 -1.6905 -0.0468 -0.5593
17952TIP3   OH275270   0.186   6.328   2.929 -0.4649 -0.3403  0.6217
17952TIP3    H175271   0.113   6.289   2.881 -0.7241  1.4620 -0.5511
17952TIP3    H275272   0.169   6.307   3.021 -0.5798 -2.8903  0.0832
17953TIP3   OH275273   6.721   5.026  13.220 -0.0563 -0.0351 -0.3412
17953TIP3    H175274   6.787   4.984  13.274 -2.2577 -1.6467  1.2946
17953TIP3    H275275   6.672   4.954  13.180 -1.5079  1.0270 -0.6076
17954TIP3   OH275276   1.403   1.899  14.574 -0.1223 -0.1976 -0.3244
17954TIP3    H175277   1.384   1.951  14.496 -4.7061 -0.1251  0.5294
17954TIP3    H275278   1.444   1.960  14.635 -1.0698  1.1450 -0.9776
17955TIP3   OH275279   0.502   5.293   2.274 -0.4822 -0.3138  0.3103
17955TIP3    H175280   0.559   5.321   2.203  0.4705 -0.9714  0.7943
17955TIP3    H275281   0.551   5.312   2.354 -0.7511 -1.2920  0.7200
17956TIP3   OH275282   0.568   4.974   0.913  0.2615 -0.0770 -0.5660
17956TIP3    H175283   0.621   4.937   0.984 -1.1988  1.8539  1.7164
17956TIP3    H275284   0.604   4.936   0.833  3.3881 -0.8215  1.0235
17957TIP3   OH275285   0.366   5.784  12.088 -0.2702  0.1968  0.2723
17957TIP3    H175286   0.406   5.737  12.015  1.5195  0.6101  0.9489
17957TIP3    H275287   0.300   5.724  12.122 -1.6751  0.2760 -2.1067
17958TIP3   OH275288   4.411   5.303   2.878  0.3924 -0.2067 -0.0242
17958TIP3    H175289   4.489   5.339   2.922 -0.0570  1.2544 -0.3673
17958TIP3    H275290   4.409   5.349   2.793 -1.0706  0.0930  0.1538
17959TIP3   OH275291   2.036   5.185   1.928  0.1676 -0.3300 -0.3696
17959TIP3    H175292   2.028   5.253   1.995 -1.0266 -0.4456 -0.3660
17959TIP3    H275293   1.960   5.199   1.871  0.5165 -0.9714 -1.0085
17960TIP3   OH275294   4.542   2.150  11.611 -0.2432 -0.1130 -0.0438
17960TIP3    H175295   4.451   2.164  11.635 -0.1096 -0.5057  0.7204
17960TIP3    H275296   4.571   2.076  11.665 -0.2075 -1.7164 -2.1035
17961TIP3   OH275297   4.863   3.564  13.554 -0.2059 -0.1477 -0.3602
17961TIP3    H175298   4.940   3.555  13.497 -0.9177 -0.2690 -1.3441
17961TIP3    H275299   4.795   3.515  13.508 -0.8814  0.0070  0.4677
17962TIP3   OH275300   1.052   1.268  13.759 -0.3211 -0.0511  0.2305
17962TIP3    H175301   0.974   1.284  13.706  0.0583  1.0839  0.0062
17962TIP3    H275302   1.114   1.336  13.733  0.3249 -0.2289  1.2456
17963TIP3   OH275303   4.329   3.277  17.042 -0.2475  0.1156  0.0813
17963TIP3    H175304   4.397   3.228  16.997  0.5014 -2.5215  3.6256
17963TIP3    H275305   4.369   3.363  17.058  1.2991 -0.5345 -0.0919
17964TIP3   OH275306   4.149   3.842   3.515 -0.4868  0.2296  0.2936
17964TIP3    H175307   4.199   3.923   3.511 -1.7011  0.9442 -1.7539
17964TIP3    H275308   4.087   3.848   3.442 -1.4997 -1.9592  0.8895
17965TIP3   OH275309   1.803   1.445   0.222 -0.2628 -0.1570  0.4025
17965TIP3    H175310   1.853   1.382   0.274  1.7885  1.5673  0.6599
17965TIP3    H275311   1.768   1.506   0.287 -1.2950 -0.3695  0.0649
17966TIP3   OH275312   1.408   1.938  13.197  0.6520  0.3746  0.0555
17966TIP3    H175313   1.496   1.946  13.235  0.4677  0.1306  0.5551
17966TIP3    H275314   1.352   1.921  13.273  0.3597 -0.7358 -0.3937
17967TIP3   OH275315   0.798   5.355  15.839  0.3721  0.3846  1.1597
17967TIP3    H175316   0.707   5.352  15.868  0.1674 -0.6101  0.4719
17967TIP3    H275317   0.798   5.308  15.755  1.0150  2.8180 -0.2817
17968TIP3   OH275318   1.155   1.282  12.257 -0.4836  0.1623  0.4775
17968TIP3    H175319   1.174   1.189  12.274 -1.1553  0.2023  1.5444
17968TIP3    H275320   1.074   1.299  12.306 -3.4567 -0.0157 -3.8709
17969TIP3   OH275321   5.156   1.179  11.168 -0.3340 -0.4346  0.4295
17969TIP3    H175322   5.108   1.258  11.144 -0.0397 -0.6158 -0.8400
17969TIP3    H275323   5.246   1.196  11.139  0.2671 -0.3320  2.2445
17970TIP3   OH275324   4.535   3.490   1.424 -0.1963 -0.2807 -0.0887
17970TIP3    H175325   4.567   3.402   1.444 -0.0866 -0.1424  0.3508
17970TIP3    H275326   4.506   3.485   1.333  1.1942 -0.3626 -0.5358
17971TIP3   OH275327   0.533   6.011   3.893 -0.1194 -0.2804  0.4464
17971TIP3    H175328   0.603   5.957   3.857 -0.2126 -1.8995  2.4681
17971TIP3    H275329   0.578   6.074   3.950 -0.1946 -0.2172  0.4369
17972TIP3   OH275330   1.613   6.739  15.255  0.0089 -0.1163 -0.0988
17972TIP3    H175331   1.560   6.717  15.332  1.2445  1.9257  1.4357
17972TIP3    H275332   1.556   6.795  15.203 -0.5066 -0.7346 -0.2139
17973TIP3   OH275333   5.719   2.336   1.225  0.1984  0.5853  0.1147
17973TIP3    H175334   5.713   2.283   1.145 -0.2890  1.6740 -0.5888
17973TIP3    H275335   5.802   2.309   1.265 -0.2409 -1.0064  0.0131
17974TIP3   OH275336   0.593   0.898   4.516 -0.1291  0.3828  0.1907
17974TIP3    H175337   0.684   0.925   4.529  0.1634 -0.2867 -0.3917
17974TIP3    H275338   0.543   0.950   4.579  0.7560  0.1758  1.0934
17975TIP3   OH275339   0.320   4.551  13.600 -0.4077  0.3074  0.0321
17975TIP3    H175340   0.285   4.467  13.570  0.2322  0.8637 -2.4640
17975TIP3    H275341   0.414   4.536  13.610 -0.7596 -0.2881  3.5360
17976TIP3   OH275342   1.720   5.993  15.990  0.5310 -0.5032 -0.0139
17976TIP3    H175343   1.780   6.010  16.062  2.5575 -1.0613 -1.4846
17976TIP3    H275344   1.725   6.071  15.935 -0.4814 -0.3644  0.0585
17977TIP3   OH275345   4.354   0.523   2.753 -0.6390 -0.6367 -0.6140
17977TIP3    H175346   4.356   0.614   2.783  0.3935 -0.9343  0.3023
17977TIP3    H275347   4.298   0.478   2.817 -0.8612 -0.7093 -0.8600
17978TIP3   OH275348   5.400   6.040   3.840 -0.4613  0.8160 -0.1129
17978TIP3    H175349   5.471   6.023   3.903 -0.1965  0.7997 -0.4114
17978TIP3    H275350   5.346   6.106   3.882 -1.2517 -0.4162  0.8717
17979TIP3   OH275351   0.415   5.420   3.249 -0.5530  0.2811 -0.2713
17979TIP3    H175352   0.338   5.476   3.241 -1.6144 -1.1559 -0.4824
17979TIP3    H275353   0.448   5.438   3.336  0.0042  2.2747 -0.8364
17980TIP3   OH275354   6.779   4.083  12.644 -0.5892 -0.5004 -0.1288
17980TIP3    H175355   6.804   4.176  12.646  0.9050 -0.8885  0.5915
17980TIP3    H275356   6.856   4.037  12.675 -2.0281 -1.8503  1.6506
17981TIP3   OH275357   5.202   5.460   3.782  0.5277  0.6954  0.2892
17981TIP3    H175358   5.121   5.418   3.811 -0.2816  1.0175 -1.3994
17981TIP3    H275359   5.260   5.388   3.761  0.1216  0.4347  0.0421
17982TIP3   OH275360   2.619   2.329   4.426  0.0245  0.0798  0.0184
17982TIP3    H175361   2.650   2.238   4.428 -2.0328 -0.6831 -0.5728
17982TIP3    H275362   2.546   2.331   4.487 -0.3591  1.1885 -0.4604
17983TIP3   OH275363   3.108   6.091  16.922  0.2419 -0.0926 -0.0615
17983TIP3    H175364   3.145   6.134  16.844 -1.6609 -0.9474 -1.5340
17983TIP3    H275365   3.116   5.997  16.904  0.2674 -0.3101  1.0360
17984TIP3   OH275366   6.252   6.367   3.887 -0.0234 -0.1679 -0.1682
17984TIP3    H175367   6.336   6.407   3.907 -0.1879  0.1701 -0.1441
17984TIP3    H275368   6.266   6.273   3.901 -0.9269  0.1390  4.6844
17985TIP3   OH275369   1.837   1.683   3.707  0.2551  0.3526  0.4856
17985TIP3    H175370   1.776   1.731   3.763 -1.1704  1.2456 -1.7266
17985TIP3    H275371   1.895   1.750   3.671  0.3352 -0.0275 -0.1031
17986TIP3   OH275372   5.575   1.899   0.151  0.2572  0.0049  0.1893
17986TIP3    H175373   5.481   1.915   0.158  0.3933  0.4253  1.3940
17986TIP3    H275374   5.585   1.849   0.071 -0.9821  0.0636 -0.0271
17987TIP3   OH275375   5.296   3.987  13.004 -0.4538  0.2945  0.7628
17987TIP3    H175376   5.256   4.047  13.067 -0.2355  0.9459  0.2825
17987TIP3    H275377   5.268   4.019  12.918  1.1990  0.8709  0.4041
17988TIP3   OH275378   0.770   5.919   5.042  0.5171 -0.1348 -0.3133
17988TIP3    H175379   0.706   5.934   5.111 -0.5217 -1.3217 -0.9834
17988TIP3    H275380   0.810   5.835   5.064  0.6302 -0.2144 -0.8087
17989TIP3   OH275381   2.182   4.231   3.991 -0.2288  0.5243  0.2931
17989TIP3    H175382   2.202   4.143   4.024 -1.1004  0.4341  0.5999
17989TIP3    H275383   2.186   4.222   3.895 -0.0912  0.2113  0.3266
17990TIP3   OH275384   1.054   3.354  14.098  0.2304 -0.4293  0.6539
17990TIP3    H175385   1.052   3.385  14.189 -1.6919  0.4818  0.3547
17990TIP3    H275386   1.045   3.259  14.105  1.4062 -0.5094  1.4342
17991TIP3   OH275387   1.835   0.489  13.410 -0.4030 -0.5105  0.3551
17991TIP3    H175388   1.852   0.479  13.504  0.8838  1.2485  0.3438
17991TIP3    H275389   1.792   0.574  13.402 -2.0933 -1.3961 -0.5115
17992TIP3   OH275390   0.877   2.665  16.718  0.2845  0.2756 -0.1835
17992TIP3    H175391   0.900   2.728  16.785  1.1034 -0.5512  0.3321
17992TIP3    H275392   0.936   2.684  16.645 -0.2407  0.8248 -0.4744
17993TIP3   OH275393   4.062   5.133  12.316  0.3056 -0.1111 -0.0322
17993TIP3    H175394   4.136   5.193  12.312  0.9139 -0.6748  1.7589
17993TIP3    H275395   4.094   5.059  12.369 -1.2625 -0.7476  0.0732
17994TIP3   OH275396   0.228   2.413   4.368 -0.8394 -0.4397  0.6227
17994TIP3    H175397   0.235   2.391   4.275 -2.6079  2.1926 -0.2465
17994TIP3    H275398   0.301   2.472   4.385 -1.3544  0.2436  0.4944
17995TIP3   OH275399   1.464   0.856   5.199  0.7716 -0.5203  0.3111
17995TIP3    H175400   1.384   0.895   5.233  1.7941  1.3546  0.6688
17995TIP3    H275401   1.471   0.888   5.109 -0.2609 -2.9266 -0.7320
17996TIP3   OH275402   2.275   4.881   0.842  0.1082 -0.1863  0.3853
17996TIP3    H175403   2.199   4.877   0.900 -1.3913 -2.5614 -1.5314
17996TIP3    H275404   2.264   4.964   0.794 -1.6413 -0.7438 -0.2533
17997TIP3   OH275405   3.726   0.748   2.983 -0.3373  0.1882  0.0981
17997TIP3    H175406   3.794   0.704   3.034  0.7338  0.6608 -0.8931
17997TIP3    H275407   3.663   0.777   3.049 -0.4577 -1.7118  0.8942
17998TIP3   OH275408   4.004   0.129  13.527  0.0810  0.1220  0.4887
17998TIP3    H175409   3.933   0.164  13.473  0.3415  2.1991  1.3874
17998TIP3    H275410   3.960   0.071  13.589 -0.8577  1.2477  0.9314
17999TIP3   OH275411   6.115   0.570   4.662 -0.0724  0.0091 -0.1733
17999TIP3    H175412   6.077   0.652   4.692 -0.6516 -0.3522  0.0952
17999TIP3    H275413   6.066   0.548   4.583 -0.8231 -0.7548  0.4967
18000TIP3   OH275414   3.682   4.292   3.792  0.0400 -0.1743 -0.5229
18000TIP3    H175415   3.709   4.317   3.881  2.1868  0.0174 -1.1843
18000TIP3    H275416   3.764   4.274   3.746 -0.7566  2.5190 -3.3170
18001TIP3   OH275417   5.102   4.766   5.529 -0.0836  0.4584  0.0496
18001TIP3    H175418   5.051   4.736   5.605 -0.9279 -1.5190 -1.2161
18001TIP3    H275419   5.193   4.768   5.561 -0.3961 -0.5596  1.0598
18002TIP3   OH275420   4.685   2.451  11.467 -0.2325  0.4390  0.1452
18002TIP3    H175421   4.611   2.502  11.436 -0.3677  0.1826  0.0456
18002TIP3    H275422   4.760   2.484  11.418 -0.3413  0.4529 -0.0120
18003TIP3   OH275423   6.765   0.552  11.900 -0.4812  0.1782 -0.1137
18003TIP3    H175424   6.745   0.645  11.909  0.8710  0.3753  1.1409
18003TIP3    H275425   6.830   0.534  11.968  0.6824 -1.2698 -1.5211
18004TIP3   OH275426   2.402   3.519  14.741 -0.2319  0.3959 -0.2080
18004TIP3    H175427   2.434   3.469  14.666 -1.1784 -1.0276  0.2897
18004TIP3    H275428   2.481   3.547  14.787  0.3618  1.1040 -1.5794
18005TIP3   OH275429   0.656   6.592   6.280  0.5500  0.1064 -0.4326
18005TIP3    H175430   0.738   6.637   6.263 -0.2456  1.7899 -0.0006
18005TIP3    H275431   0.673   6.501   6.257  3.5579 -0.3410  2.8957
18006TIP3   OH275432   1.256   1.142   5.127  0.5175  0.1812  0.4644
18006TIP3    H175433   1.187   1.205   5.146 -1.1864 -0.8372 -1.8547
18006TIP3    H275434   1.248   1.075   5.195  0.3818  0.9377  1.2053
18007TIP3   OH275435   5.117   0.969  13.039 -0.0928 -0.0435 -0.0086
18007TIP3    H175436   5.178   0.989  12.967 -0.1323 -2.3019 -0.7235
18007TIP3    H275437   5.036   0.942  12.996 -0.2028 -1.1912  0.8790
18008TIP3   OH275438   1.883   1.191  15.190 -0.1006  0.4468 -0.9490
18008TIP3    H175439   1.834   1.258  15.143 -1.5790 -0.6574 -1.0702
18008TIP3    H275440   1.972   1.225  15.196 -0.7674  2.3077 -1.1701
18009TIP3   OH275441   4.296   5.213  15.691  0.2318  0.0862 -0.0749
18009TIP3    H175442   4.247   5.152  15.746  0.7207 -0.6366 -0.4280
18009TIP3    H275443   4.369   5.241  15.746 -0.4190  1.0008  0.3757
18010TIP3   OH275444   3.506   3.578  14.346 -0.2147  0.0649 -0.4132
18010TIP3    H175445   3.584   3.632  14.346 -1.0086  1.2469 -0.2790
18010TIP3    H275446   3.535   3.493  14.380  0.7516  0.8489  0.7739
18011TIP3   OH275447   1.188   1.769  12.983  0.3076 -0.1663 -0.3990
18011TIP3    H175448   1.100   1.747  12.951  0.7736 -1.2303 -1.0077
18011TIP3    H275449   1.200   1.861  12.961  0.4018 -0.7130 -2.8429
18012TIP3   OH275450   6.319   0.285   6.149  0.4433 -0.5438 -0.1362
18012TIP3    H175451   6.247   0.266   6.088 -0.4290 -0.6769  0.8882
18012TIP3    H275452   6.317   0.380   6.160  1.4717 -0.3655 -1.3187
18013TIP3   OH275453   3.438   0.056   4.435 -0.0915 -0.0364  0.1071
18013TIP3    H175454   3.387   0.053   4.353  0.4333  1.6665 -0.3343
18013TIP3    H275455   3.470  -0.033   4.447 -0.6894 -0.4604 -1.2149
18014TIP3   OH275456   6.026   5.510  17.133 -0.2520 -0.4321  0.0616
18014TIP3    H175457   5.957   5.575  17.143  0.6710  0.3260  1.9702
18014TIP3    H275458   6.101   5.558  17.098  0.6252 -0.2582  2.0442
18015TIP3   OH275459   5.755   0.572   1.938 -0.1172 -0.0246 -0.1882
18015TIP3    H175460   5.662   0.554   1.928 -0.7010  2.6003 -0.3588
18015TIP3    H275461   5.785   0.590   1.848  0.8345 -1.8426 -0.2719
18016TIP3   OH275462   1.667   0.524  11.781  0.3041  0.1840  0.5032
18016TIP3    H175463   1.619   0.602  11.753  0.3038 -0.2269 -0.7385
18016TIP3    H275464   1.612   0.485  11.848 -0.3003  0.6033  0.2602
18017TIP3   OH275465   6.020   3.193  14.748 -0.5086  0.0826  0.4699
18017TIP3    H175466   5.951   3.177  14.683 -0.6540  1.8281  0.1352
18017TIP3    H275467   5.973   3.208  14.830 -0.3659 -1.3665  0.8294
18018TIP3   OH275468   1.641   1.984  15.202 -0.2480 -0.6674 -0.0400
18018TIP3    H175469   1.712   2.023  15.152  0.1300 -1.4855 -0.1619
18018TIP3    H275470   1.573   1.967  15.138 -0.0883 -0.9597 -0.1336
18019TIP3   OH275471   6.325   1.054   6.983 -0.2883 -0.2983 -0.6990
18019TIP3    H175472   6.288   1.096   6.905  0.4898  0.6127 -0.5937
18019TIP3    H275473   6.352   1.127   7.039  1.5445 -0.9056 -0.7247
18020TIP3   OH275474   1.665   3.280   4.677  0.0866  0.1831  0.1046
18020TIP3    H175475   1.717   3.266   4.756  0.3188  1.0622  0.1247
18020TIP3    H275476   1.685   3.205   4.621 -1.8009 -1.6744  1.7446
18021TIP3   OH275477   4.939   4.679  17.239  0.1657 -0.6362 -0.6729
18021TIP3    H175478   4.886   4.653  17.163 -3.7027 -0.7238  1.7800
18021TIP3    H275479   4.936   4.775  17.238 -1.6767 -0.6323  0.3538
18022TIP3   OH275480   2.337   3.531   5.412  0.0173 -0.0051  0.5599
18022TIP3    H175481   2.338   3.622   5.441  0.8989 -0.0947  0.8519
18022TIP3    H275482   2.286   3.484   5.478 -1.3529  0.4317 -0.1442
18023TIP3   OH275483   6.138   2.522   5.950  0.0559  0.6545  0.6459
18023TIP3    H175484   6.228   2.501   5.924 -0.2382  0.4146 -0.2185
18023TIP3    H275485   6.139   2.522   6.045  0.6259 -0.8555  0.6592
18024TIP3   OH275486   5.636   6.445  11.139 -0.3628 -0.3184  0.0324
18024TIP3    H175487   5.654   6.475  11.229  0.3900  2.6169 -0.9668
18024TIP3    H275488   5.564   6.501  11.109 -0.3335 -0.9677 -1.3238
18025TIP3   OH275489   1.283   5.263   1.946 -0.1896  0.2825 -0.2210
18025TIP3    H175490   1.286   5.318   2.024  0.7800 -0.6801  0.4440
18025TIP3    H275491   1.204   5.291   1.900 -1.0024  0.6111  1.3057
18026TIP3   OH275492   0.133   6.522  14.638 -0.0962 -0.3448  0.1950
18026TIP3    H175493   0.097   6.530  14.550  1.0811  1.6856 -0.1809
18026TIP3    H275494   0.061   6.546  14.696 -0.3513  0.2474 -0.3547
18027TIP3   OH275495   1.229   6.482   5.847  0.0499  0.0145 -0.3225
18027TIP3    H175496   1.228   6.421   5.773  2.7940 -0.9567  0.3247
18027TIP3    H275497   1.165   6.549   5.823 -1.4227 -1.8941 -2.1101
18028TIP3   OH275498   5.832   5.691   4.100  0.2006  0.1980  0.2915
18028TIP3    H175499   5.753   5.648   4.135  0.2561 -0.7343 -0.6606
18028TIP3    H275500   5.819   5.691   4.005  0.7582  1.2494  0.1981
18029TIP3   OH275501   3.436   1.648   3.670  0.1886  0.3567 -0.0717
18029TIP3    H175502   3.405   1.719   3.613 -1.3676  0.4579  0.8513
18029TIP3    H275503   3.407   1.568   3.626 -0.9848  0.4332  0.5420
18030TIP3   OH275504   1.381   2.631   4.387 -0.0908 -0.2586 -0.1340
18030TIP3    H175505   1.407   2.675   4.307 -0.1999 -0.9042 -0.5288
18030TIP3    H275506   1.292   2.600   4.370 -0.0461 -0.5635  0.1642
18031TIP3   OH275507   3.240   4.069   5.145  0.6307 -0.1028  0.2305
18031TIP3    H175508   3.267   4.157   5.172 -0.7428  1.0399 -1.7508
18031TIP3    H275509   3.306   4.042   5.081 -0.3544  0.7591 -1.2366
18032TIP3   OH275510   4.583   1.077  12.927  0.3233 -0.3199 -0.1385
18032TIP3    H175511   4.598   1.156  12.876  0.3929 -0.8653 -0.9819
18032TIP3    H275512   4.566   1.009  12.862 -2.8776 -0.3881  0.6402
18033TIP3   OH275513   3.094   2.460  16.164 -0.5050 -0.2032  0.1917
18033TIP3    H175514   3.170   2.508  16.194 -1.1421  0.8796  0.1372
18033TIP3    H275515   3.122   2.369  16.161  0.2473 -0.0624  1.8940
18034TIP3   OH275516   6.565   5.273  17.250  0.2268 -0.0887 -0.1812
18034TIP3    H175517   6.518   5.357  17.248 -0.2159 -0.1211  3.1343
18034TIP3    H275518   6.501   5.209  17.220 -1.2379  0.1853  2.0942
18035TIP3   OH275519   3.689   6.174   1.477  0.1392 -0.1985 -0.1606
18035TIP3    H175520   3.652   6.123   1.549 -1.3753 -0.2972 -0.9858
18035TIP3    H275521   3.754   6.231   1.520 -0.3580 -0.6127  1.2015
18036TIP3   OH275522   1.532   4.528   2.425 -0.2359 -0.5486  0.4662
18036TIP3    H175523   1.477   4.606   2.420 -1.1147 -1.1739  0.1726
18036TIP3    H275524   1.489   4.472   2.489  0.2939 -0.8703  0.5486
18037TIP3   OH275525   2.267   4.554  16.263 -0.7347  0.1301 -0.4503
18037TIP3    H175526   2.177   4.542  16.233 -0.3205 -0.4328 -1.5231
18037TIP3    H275527   2.313   4.592  16.188 -0.1476  0.7100  0.1929
18038TIP3   OH275528   4.142   4.950   2.236 -0.0461  0.8592  0.3239
18038TIP3    H175529   4.130   4.974   2.144 -0.3816 -0.1000  0.1027
18038TIP3    H275530   4.106   4.861   2.243  0.4281  0.7200  1.2709
18039TIP3   OH275531   4.051   0.543  15.422 -0.0433  1.0364 -0.3750
18039TIP3    H175532   4.102   0.563  15.500 -0.5438 -2.7020  1.1486
18039TIP3    H275533   4.114   0.504  15.361 -0.4740 -1.0768  0.4382
18040TIP3   OH275534   4.972   6.335   3.314 -0.2852 -0.0617  0.0909
18040TIP3    H175535   4.917   6.330   3.391  1.6298  1.9913  1.7481
18040TIP3    H275536   4.984   6.429   3.299  1.0268 -0.4202 -1.4825
18041TIP3   OH275537   3.376   5.285   3.828  0.1982  0.5589 -0.1546
18041TIP3    H175538   3.460   5.310   3.790  0.8549 -0.8872  0.2878
18041TIP3    H275539   3.312   5.305   3.760  1.1473 -0.3512 -1.3667
18042TIP3   OH275540   6.134   4.016  13.405  0.8245  0.3925 -0.6966
18042TIP3    H175541   6.221   4.008  13.367  1.1163  0.4644 -0.0652
18042TIP3    H275542   6.150   4.038  13.497  0.1712 -0.7056 -0.2878
18043TIP3   OH275543   5.612   4.414   3.171 -0.0866 -0.5527  0.9977
18043TIP3    H175544   5.655   4.394   3.254  1.0266 -1.6685  0.1885
18043TIP3    H275545   5.678   4.461   3.120  0.0178 -1.7502 -0.0346
18044TIP3   OH275546   4.280   3.910  10.899  0.2119 -0.3276  0.7716
18044TIP3    H175547   4.209   3.878  10.955  0.6490 -2.5179  0.1528
18044TIP3    H275548   4.354   3.853  10.918  0.7660 -0.2776 -1.0330
18045TIP3   OH275549   5.129   6.090   3.968 -0.5891  0.5677 -0.1861
18045TIP3    H175550   5.094   6.068   3.882 -0.3908 -0.2425 -0.0628
18045TIP3    H275551   5.117   6.011   4.020  4.0658 -0.9569 -0.9317
18046TIP3   OH275552   3.418   1.680  14.283 -0.2519 -0.2629  0.3093
18046TIP3    H175553   3.429   1.613  14.350  0.6796  1.3309  1.8516
18046TIP3    H275554   3.375   1.753  14.329 -2.0397 -0.0902 -1.5208
18047TIP3   OH275555   1.073   5.856   3.998  0.0670  0.0164  0.4393
18047TIP3    H175556   1.151   5.839   3.946 -0.1195 -4.2111  1.2005
18047TIP3    H275557   1.055   5.949   3.985  4.1860  0.7882 -1.1079
18048TIP3   OH275558   3.640   2.429  15.251 -0.3632  0.1218 -0.1093
18048TIP3    H175559   3.704   2.491  15.215 -0.2887  0.1961  0.1443
18048TIP3    H275560   3.630   2.362  15.184  0.4294 -0.2075  0.0853
18049TIP3   OH275561   5.891   0.107  14.025  0.2996  0.2173  0.2677
18049TIP3    H175562   5.979   0.127  13.994 -0.2904  0.9325 -1.0164
18049TIP3    H275563   5.850   0.059  13.953 -0.8870  1.3179  0.1678
18050TIP3   OH275564   6.206   3.511   4.590  0.2572 -0.3317  0.6001
18050TIP3    H175565   6.243   3.428   4.618 -0.6301 -0.3512  1.7765
18050TIP3    H275566   6.113   3.505   4.611  0.0382  0.6830  0.0283
18051TIP3   OH275567   2.071   1.240   6.599  0.5678  0.1987 -0.3404
18051TIP3    H175568   2.044   1.150   6.581 -1.7317  0.8191 -0.2348
18051TIP3    H275569   2.131   1.262   6.527  0.3487 -1.0625 -0.9303
18052TIP3   OH275570   3.484   4.565   0.149  0.4174 -0.1801 -0.4138
18052TIP3    H175571   3.421   4.576   0.078 -0.3429 -0.2817  0.2271
18052TIP3    H275572   3.470   4.642   0.205  1.2890  0.1069 -0.5807
18053TIP3   OH275573   5.154   0.796   6.143  0.2467  0.3868 -1.2072
18053TIP3    H175574   5.070   0.840   6.133 -0.9971 -1.7465 -0.6459
18053TIP3    H275575   5.142   0.710   6.105  1.7575 -0.4567  0.0945
18054TIP3   OH275576   4.749   3.774  14.771  0.6765 -0.1661  0.4708
18054TIP3    H175577   4.832   3.725  14.771  0.0972 -1.2329 -1.3762
18054TIP3    H275578   4.759   3.839  14.702 -1.2702 -2.7119 -2.4258
18055TIP3   OH275579   4.788   5.793  13.229  0.2990  0.1291 -0.8609
18055TIP3    H175580   4.718   5.756  13.284  1.2042 -0.6116 -0.1882
18055TIP3    H275581   4.771   5.887  13.230  1.0326  0.3182  1.7877
18056TIP3   OH275582   0.972   3.627  13.072  0.3160 -0.3802 -0.2885
18056TIP3    H175583   0.945   3.641  13.162 -3.7087 -1.3904 -1.1422
18056TIP3    H275584   1.016   3.542  13.073 -2.2768 -1.7992  0.4048
18057TIP3   OH275585   5.355   3.517   6.587  0.1491  0.6190 -0.1330
18057TIP3    H175586   5.279   3.482   6.540  0.1454  2.0434 -1.2220
18057TIP3    H275587   5.430   3.491   6.535  0.5500 -1.3714  1.2881
18058TIP3   OH275588   6.074   1.894   3.803  0.1150  0.1155  0.7544
18058TIP3    H175589   6.157   1.913   3.759  0.6187  1.9025  2.2881
18058TIP3    H275590   6.073   1.799   3.813 -0.2204 -0.4672 -3.2694
18059TIP3   OH275591   4.991   0.836   2.636 -0.5624  0.5692 -0.5112
18059TIP3    H175592   5.066   0.815   2.581  0.7359  0.6609  1.1587
18059TIP3    H275593   4.990   0.932   2.641 -0.7335  0.5645 -0.4308
18060TIP3   OH275594   1.929   5.524  13.491  0.2742  0.8026 -0.5353
18060TIP3    H175595   1.936   5.555  13.581 -0.1850 -1.3625  0.3068
18060TIP3    H275596   2.012   5.478  13.474 -0.5270 -0.7958 -0.3518
18061TIP3   OH275597   3.063   0.653   4.773 -0.3899 -0.0857  0.2647
18061TIP3    H175598   3.040   0.561   4.789 -0.3421 -0.1781 -0.1791
18061TIP3    H275599   3.117   0.650   4.694 -1.2061  0.4255 -0.3274
18062TIP3   OH275600   1.938   0.015   0.098 -0.1706 -0.3705  0.2623
18062TIP3    H175601   2.023  -0.011   0.134  0.3372  0.4880 -0.3022
18062TIP3    H275602   1.895  -0.068   0.075 -0.4593 -0.9603  2.6727
18063TIP3   OH275603   6.240   4.325  12.594 -0.1265 -0.4216 -0.7983
18063TIP3    H175604   6.266   4.242  12.553  2.0600 -1.1022  1.6679
18063TIP3    H275605   6.185   4.299  12.668  0.7905  0.2693  0.1579
18064TIP3   OH275606   3.456   3.213   4.701 -0.4181  0.0498 -0.1892
18064TIP3    H175607   3.455   3.291   4.756 -0.9296  0.1963 -0.3973
18064TIP3    H275608   3.436   3.141   4.762  1.6340 -0.1451  0.3091
18065TIP3   OH275609   4.170   4.406  15.341 -0.7582 -1.0652  0.1255
18065TIP3    H175610   4.205   4.408  15.430 -0.6749 -0.1036  0.0784
18065TIP3    H275611   4.080   4.437  15.349 -1.5797 -3.2762  0.2071
18066TIP3   OH275612   0.723   5.613  13.058 -0.1736 -0.2435  1.0753
18066TIP3    H175613   0.650   5.635  13.116 -0.3578  2.8385 -0.1001
18066TIP3    H275614   0.693   5.639  12.971  1.6751 -0.5978  0.2724
18067TIP3   OH275615   5.523   2.391  16.972 -0.4502  0.9799  0.0351
18067TIP3    H175616   5.475   2.469  16.999 -1.2401 -0.2138  2.3303
18067TIP3    H275617   5.603   2.392  17.025  0.2217  0.9247 -0.9464
18068TIP3   OH275618   0.105   1.253  16.168 -0.2298  0.2542  0.1129
18068TIP3    H175619   0.195   1.269  16.197 -1.2545  0.5083  3.6824
18068TIP3    H275620   0.066   1.340  16.167 -0.8025 -0.0039  0.1176
18069TIP3   OH275621   0.805   5.429   5.727  0.0260 -0.1260  0.2207
18069TIP3    H175622   0.797   5.524   5.727  2.1767  0.1280  1.8114
18069TIP3    H275623   0.825   5.406   5.818 -2.4325 -2.3582  0.3334
18070TIP3   OH275624   5.366   5.873   0.689 -0.9931 -0.4962  0.1291
18070TIP3    H175625   5.439   5.816   0.714  1.1345  2.9033  2.3447
18070TIP3    H275626   5.298   5.854   0.753 -0.5003 -0.8622  0.5510
18071TIP3   OH275627   5.356   0.467  13.938 -0.2727 -0.1812  0.2957
18071TIP3    H175628   5.405   0.423  14.008  0.3092 -0.0489 -0.0265
18071TIP3    H275629   5.407   0.545  13.918 -0.9929  0.3314  0.4433
18072TIP3   OH275630   2.439   2.024   0.101 -0.3530 -0.5084  0.4373
18072TIP3    H175631   2.392   1.950   0.061  0.8205 -0.9250 -0.2088
18072TIP3    H275632   2.373   2.094   0.106 -0.5402 -0.3806 -2.3673
18073TIP3   OH275633   1.788   0.868   5.415  0.2913  0.1925 -0.2289
18073TIP3    H175634   1.848   0.899   5.483  0.3791 -0.2495 -0.1013
18073TIP3    H275635   1.716   0.826   5.463  0.0275  0.4530 -0.3903
18074TIP3   OH275636   3.225   5.654  11.928 -0.3818  0.2202  0.6468
18074TIP3    H175637   3.308   5.677  11.888  1.0400  0.2679  3.3902
18074TIP3    H275638   3.236   5.563  11.956 -0.9298  0.4748  1.7396
18075TIP3   OH275639   1.561   0.412   4.884 -0.3195  0.1545 -0.1009
18075TIP3    H175640   1.616   0.416   4.962  2.2087  0.5149 -1.7868
18075TIP3    H275641   1.531   0.321   4.880  1.3934 -0.4619  0.1243
18076TIP3   OH275642   0.619   0.280   4.245 -0.0683  0.1291 -0.5771
18076TIP3    H175643   0.614   0.243   4.157  1.2088  0.0079 -0.6293
18076TIP3    H275644   0.588   0.209   4.302 -2.2236  0.6890 -0.9983
18077TIP3   OH275645   5.439   5.973  12.524  0.1925  0.7020 -0.2571
18077TIP3    H175646   5.487   6.049  12.490 -0.2488  0.8419 -0.5727
18077TIP3    H275647   5.362   6.011  12.567 -0.1794  0.4133 -0.6689
18078TIP3   OH275648   2.299   2.860  17.252 -0.2045 -0.3894  0.0280
18078TIP3    H175649   2.350   2.871  17.332 -0.9943 -0.2404  0.5142
18078TIP3    H275650   2.231   2.797  17.274 -1.3315  0.7492 -0.0784
18079TIP3   OH275651   4.629   1.353  15.650 -0.9366  0.7949 -0.2199
18079TIP3    H175652   4.678   1.424  15.608  2.2737 -1.6751 -1.0054
18079TIP3    H275653   4.673   1.273  15.622 -3.1459 -1.4552  2.1725
18080TIP3   OH275654   5.611   3.933  16.710 -0.3668 -0.2014  0.0800
18080TIP3    H175655   5.613   3.970  16.798 -0.1176 -1.9823  0.8597
18080TIP3    H275656   5.696   3.957  16.672 -0.2290  0.0640  0.5460
18081TIP3   OH275657   3.494   5.302  14.117 -0.4166  0.7377  0.1967
18081TIP3    H175658   3.411   5.268  14.150 -1.5372  1.1090 -2.0205
18081TIP3    H275659   3.473   5.392  14.090  0.1533  0.2266 -2.1475
18082TIP3   OH275660   2.727   2.595  16.709 -0.1793 -0.4461 -0.1335
18082TIP3    H175661   2.750   2.503  16.698  2.2240  0.0873  0.0131
18082TIP3    H275662   2.638   2.601  16.673  0.4671 -2.3484 -2.2677
18083TIP3   OH275663   0.361   2.056  17.026 -0.1701  0.0340  0.0661
18083TIP3    H175664   0.423   2.078  16.957 -0.6687 -0.7081 -0.6364
18083TIP3    H275665   0.330   2.141  17.058  1.0648  0.4088  0.3108
18084TIP3   OH275666   1.119   4.223  13.598 -0.1628  0.3251  0.2629
18084TIP3    H175667   1.085   4.305  13.560  1.1851  0.6256 -0.3337
18084TIP3    H275668   1.041   4.167  13.605 -1.0710  1.5499  0.4340
18085TIP3   OH275669   0.168   0.941   2.633  0.3244 -0.4042  0.3995
18085TIP3    H175670   0.216   1.014   2.594  0.7707 -1.4027 -1.0172
18085TIP3    H275671   0.084   0.978   2.658 -0.2168  0.2393 -2.0643
18086TIP3   OH275672   0.535   4.212  11.410 -0.5140  0.3055  0.3023
18086TIP3    H175673   0.575   4.244  11.330 -0.8658 -0.0981 -0.0467
18086TIP3    H275674   0.470   4.147  11.380 -0.3310 -0.1857  0.9334
18087TIP3   OH275675   4.789   2.988  11.150 -0.2208  0.1921  0.7147
18087TIP3    H175676   4.781   2.972  11.056 -0.4448 -0.4801  0.8444
18087TIP3    H275677   4.856   2.927  11.180  0.6317  1.1544  0.8132
18088TIP3   OH275678   2.820   5.872  15.906 -0.1059 -1.0165  0.1649
18088TIP3    H175679   2.747   5.926  15.876 -0.0272 -0.6412  0.6405
18088TIP3    H275680   2.778   5.802  15.956 -0.1356 -0.7451  0.5219
18089TIP3   OH275681   1.528   4.586   3.977  0.4123  0.4561 -0.7087
18089TIP3    H175682   1.608   4.638   3.986 -0.2404  1.3232  0.3258
18089TIP3    H275683   1.479   4.629   3.907  1.1229 -0.4692 -1.8042
18090TIP3   OH275684   0.174   6.566   3.855  0.3900  1.5936  0.1966
18090TIP3    H175685   0.121   6.611   3.921 -1.3933  1.0295 -0.7626
18090TIP3    H275686   0.220   6.636   3.809 -1.7120  2.4495 -0.7419
18091TIP3   OH275687   1.711   2.771   6.194 -0.2907  0.2591  0.2536
18091TIP3    H175688   1.671   2.699   6.145 -0.2081 -1.2861  2.3142
18091TIP3    H275689   1.642   2.800   6.254  0.0707  1.1115  0.2709
18092TIP3   OH275690   1.137   2.781  13.121 -0.1982 -0.7553 -0.3481
18092TIP3    H175691   1.230   2.796  13.102 -0.3258  0.0125 -0.4281
18092TIP3    H275692   1.137   2.714  13.189  0.4584 -0.0667  0.3536
18093TIP3   OH275693   3.564   5.245  10.637  0.2348 -0.0409 -0.4859
18093TIP3    H175694   3.632   5.250  10.704  0.2097  0.7800 -0.5121
18093TIP3    H275695   3.612   5.228  10.555  0.2623 -1.0759 -0.2697
18094TIP3   OH275696   5.928   5.247   0.606 -0.0255  0.3826  0.1861
18094TIP3    H175697   5.848   5.217   0.563  1.4157 -2.1993 -0.8814
18094TIP3    H275698   5.898   5.283   0.689 -2.4388  1.2017 -0.9413
18095TIP3   OH275699   4.225   5.336   1.051 -0.2238  0.1277 -0.5834
18095TIP3    H175700   4.277   5.374   1.122  1.1399 -1.5329 -0.6217
18095TIP3    H275701   4.264   5.371   0.971  0.5338 -0.7117 -0.5954
18096TIP3   OH275702   6.548   1.275   3.631  0.0420 -0.6435 -0.5271
18096TIP3    H175703   6.574   1.367   3.624  0.5425 -0.8188 -1.1629
18096TIP3    H275704   6.455   1.278   3.654  0.5327  0.0053  1.5194
18097TIP3   OH275705   3.324   1.960   2.732 -0.7801 -0.3896 -0.0566
18097TIP3    H175706   3.333   2.040   2.785  1.7733 -0.0741 -0.8343
18097TIP3    H275707   3.305   1.891   2.796 -1.6752  0.5732  0.7783
18098TIP3   OH275708   0.825   3.819  17.202 -0.0719 -0.3088 -0.5046
18098TIP3    H175709   0.860   3.806  17.290  1.1651  0.1298 -0.9151
18098TIP3    H275710   0.900   3.807  17.144 -1.1590 -2.0480 -1.6333
18099TIP3   OH275711   6.580   5.934   0.015  0.6910 -0.1709  0.3267
18099TIP3    H175712   6.660   5.892  -0.017  0.3273  0.1683 -1.0865
18099TIP3    H275713   6.509   5.892  -0.034  0.0884  0.2644  0.8013
18100TIP3   OH275714   4.241   0.079   2.846  0.3016 -0.5522  0.1879
18100TIP3    H175715   4.311   0.071   2.781  0.8503  1.9850  0.3705
18100TIP3    H275716   4.161   0.090   2.794  0.4353 -0.5938 -0.0278
18101TIP3   OH275717   3.746   0.589   6.139 -0.5561  0.2722 -0.3564
18101TIP3    H175718   3.680   0.589   6.208 -1.5946  0.9845 -1.3018
18101TIP3    H275719   3.827   0.561   6.182 -1.3419 -0.0514  0.9595
18102TIP3   OH275720   0.055   4.832   1.206  0.0307  0.0717  0.1256
18102TIP3    H175721   0.150   4.819   1.213  0.3322  0.3822 -2.4004
18102TIP3    H275722   0.046   4.926   1.190 -0.7319  0.0816  0.6017
18103TIP3   OH275723   1.018   2.489   0.621 -0.1236  0.2869  0.5287
18103TIP3    H175724   0.931   2.467   0.588 -0.0060  0.1659  0.2938
18103TIP3    H275725   1.035   2.577   0.588  0.1512  0.0182 -0.0640
18104TIP3   OH275726   1.494   0.940  10.655  0.4742  0.2560  0.0730
18104TIP3    H175727   1.411   0.913  10.617 -0.7597 -0.9753  3.3195
18104TIP3    H275728   1.524   0.864  10.704  1.5105  1.9123  2.1707
18105TIP3   OH275729   0.722   1.916   2.795  0.2868 -0.2844  0.0967
18105TIP3    H175730   0.804   1.965   2.805  0.8373 -1.2750  0.6672
18105TIP3    H275731   0.664   1.975   2.748  0.9787  0.8385  0.6119
18106TIP3   OH275732   2.688   2.894  11.528 -0.2900 -0.0730  0.0975
18106TIP3    H175733   2.729   2.864  11.609 -0.5874 -0.9487 -0.0594
18106TIP3    H275734   2.752   2.871  11.459 -1.7874 -3.3996 -0.4075
18107TIP3   OH275735   4.627   5.379  16.296 -0.3108 -0.0981  0.2369
18107TIP3    H175736   4.691   5.309  16.282  0.7321  0.8752 -0.0453
18107TIP3    H275737   4.555   5.337  16.343  0.6194 -1.1838  0.7460
18108TIP3   OH275738   6.035   6.073   3.550 -0.3397  0.1314 -0.2660
18108TIP3    H175739   6.063   6.102   3.463  0.2789  1.4530  0.3558
18108TIP3    H275740   6.040   6.151   3.604 -1.2005 -0.5664  0.8579
18109TIP3   OH275741   5.975   1.258  15.817  0.2118 -0.0451  0.2263
18109TIP3    H175742   5.947   1.169  15.838 -1.7368 -0.0044 -1.8097
18109TIP3    H275743   5.928   1.313  15.880  0.6013 -0.3720  0.8135
18110TIP3   OH275744   0.896   3.223   5.147  0.1209 -0.9503 -0.0832
18110TIP3    H175745   0.955   3.292   5.116  0.3946 -0.9360  0.4580
18110TIP3    H275746   0.886   3.165   5.072  1.0619 -1.1099 -0.0916
18111TIP3   OH275747   4.399   5.026   2.770  0.1950  0.3171  0.0893
18111TIP3    H175748   4.380   5.087   2.841  0.5301 -0.6731  1.0574
18111TIP3    H275749   4.491   5.001   2.784  0.6324  0.9670 -1.3754
18112TIP3   OH275750   5.309   0.425  11.703 -0.6393  0.2500 -0.0495
18112TIP3    H175751   5.294   0.515  11.673  1.1778  0.0435 -1.7287
18112TIP3    H275752   5.261   0.371  11.640 -3.5832 -0.0228  2.1712
18113TIP3   OH275753   6.391   2.877  11.677 -0.0093 -0.5306  0.5008
18113TIP3    H175754   6.415   2.833  11.759 -0.7904 -1.0318  0.4736
18113TIP3    H275755   6.301   2.848  11.660  0.8781 -2.3423 -1.7529
18114TIP3   OH275756   6.075   1.841  14.892 -0.2411  0.6866  0.5326
18114TIP3    H175757   6.126   1.898  14.835 -1.8241  2.5105  0.8196
18114TIP3    H275758   5.985   1.874  14.885 -1.0644 -1.1639  1.5162
18115TIP3   OH275759   1.618   4.280  16.378  0.7942 -0.1924 -0.4841
18115TIP3    H175760   1.538   4.281  16.430  0.4889  0.5005 -0.9442
18115TIP3    H275761   1.661   4.197  16.400 -0.2614 -0.7697 -0.5505
18116TIP3   OH275762   6.302   4.514   5.603  0.4535 -0.3697  0.3464
18116TIP3    H175763   6.329   4.520   5.511  3.0508 -0.9494  0.9997
18116TIP3    H275764   6.312   4.422   5.625 -1.3628 -0.4763  0.9443
18117TIP3   OH275765   1.531   4.842   5.463 -0.3494 -0.2651 -0.2962
18117TIP3    H175766   1.535   4.938   5.460 -1.2178 -0.2194 -0.2905
18117TIP3    H275767   1.544   4.815   5.372 -1.1213 -0.0878 -0.4662
18118TIP3   OH275768   0.153   6.513  13.699 -0.6631 -0.1290 -0.0674
18118TIP3    H175769   0.247   6.531  13.702 -0.4770 -0.9383 -0.7374
18118TIP3    H275770   0.140   6.442  13.761 -0.7438 -0.3785 -0.3694
18119TIP3   OH275771   4.900   2.236  13.092 -0.2662  0.3010 -0.0076
18119TIP3    H175772   4.893   2.141  13.083  1.0078  0.2680 -1.0337
18119TIP3    H275773   4.980   2.259  13.045  0.5153  1.6761  1.8722
18120TIP3   OH275774   6.267   2.506  16.332 -0.1231  0.4099  0.0866
18120TIP3    H175775   6.193   2.446  16.339  0.6092 -0.4778  0.3050
18120TIP3    H275776   6.315   2.477  16.255 -0.9494  2.0963 -1.1547
18121TIP3   OH275777   0.165   3.043  14.767  0.0315 -0.2692  0.2317
18121TIP3    H175778   0.209   3.128  14.764 -0.3902 -0.0826 -1.1179
18121TIP3    H275779   0.237   2.980  14.759  0.2710 -0.0333  0.4632
18122TIP3   OH275780   3.820   2.045  16.408 -0.1598 -0.1682 -0.3429
18122TIP3    H175781   3.886   2.036  16.340  2.2566 -1.8483  2.0171
18122TIP3    H275782   3.820   2.137  16.431  2.6595 -0.3247  0.6647
18123TIP3   OH275783   4.140   0.566  16.595 -0.0160 -0.5504  0.1844
18123TIP3    H175784   4.065   0.615  16.628 -0.6322 -0.7446 -0.8959
18123TIP3    H275785   4.195   0.632  16.552 -0.7920 -0.7458 -1.1739
18124TIP3   OH275786   6.505   5.638  15.087 -0.0780  0.5776 -0.3763
18124TIP3    H175787   6.416   5.672  15.082 -1.2331 -2.0819  0.1419
18124TIP3    H275788   6.509   5.593  15.172  1.1000 -0.9312 -1.1663
18125TIP3   OH275789   3.713   1.909  15.315  0.1893 -0.0157 -0.1144
18125TIP3    H175790   3.693   1.830  15.366 -0.0822  0.2526  0.2045
18125TIP3    H275791   3.756   1.877  15.237 -2.2610 -0.7484 -1.2697
18126TIP3   OH275792   5.023   4.522  11.219  0.1922  0.6213  0.3785
18126TIP3    H175793   5.109   4.484  11.202  0.2034  1.4523 -1.6320
18126TIP3    H275794   5.037   4.578  11.296  1.2727  0.2076  0.5018
18127TIP3   OH275795   2.631   2.108   0.549 -0.2168  0.3318 -0.0443
18127TIP3    H175796   2.673   2.046   0.607 -0.0081 -0.1466 -0.6923
18127TIP3    H275797   2.659   2.194   0.580  1.5188  0.0235 -0.6460
18128TIP3   OH275798   5.518   1.217  17.265  0.1050 -0.5423 -0.8226
18128TIP3    H175799   5.556   1.154  17.325  0.0519 -0.4261 -0.6641
18128TIP3    H275800   5.460   1.166  17.209 -0.2902 -0.5707 -0.3967
18129TIP3   OH275801   2.211   1.274  16.461  0.3720 -0.0878 -0.1400
18129TIP3    H175802   2.130   1.262  16.411 -1.1358  1.8548  1.6877
18129TIP3    H275803   2.231   1.186  16.493  0.7461 -1.1872 -3.0274
18130TIP3   OH275804   4.295   3.019   1.502  0.8585  0.8233  0.9324
18130TIP3    H175805   4.208   3.024   1.462  1.0892 -1.7324 -0.0650
18130TIP3    H275806   4.278   3.031   1.596 -0.4926  0.9613  0.6957
18131TIP3   OH275807   2.198   5.725  12.082 -0.2535 -0.3503 -0.2282
18131TIP3    H175808   2.250   5.645  12.084 -0.1524 -0.2772  0.0535
18131TIP3    H275809   2.227   5.770  12.002 -0.1388 -0.4804 -0.2601
18132TIP3   OH275810   4.348   2.430   5.324 -0.1249 -0.2890  0.0779
18132TIP3    H175811   4.281   2.367   5.296  0.6139 -0.0837 -2.3688
18132TIP3    H275812   4.298   2.498   5.370 -1.3146 -1.1149  0.0785
18133TIP3   OH275813   5.223   5.825  12.127  0.5297  0.4049 -0.0393
18133TIP3    H175814   5.170   5.850  12.203 -0.4338  0.1801 -0.6163
18133TIP3    H275815   5.223   5.729  12.128  0.7727  0.4029 -0.1574
18134TIP3   OH275816   6.062   6.047   1.751  0.1495 -0.7816 -0.0440
18134TIP3    H175817   6.004   6.003   1.812 -1.9115 -0.0254 -1.3394
18134TIP3    H275818   6.024   6.135   1.741  1.9273 -0.0204 -0.4269
18135TIP3   OH275819   0.104   4.702  14.278  0.6570 -0.3016  0.4841
18135TIP3    H175820   0.198   4.710  14.297  0.9171  1.7683 -1.2585
18135TIP3    H275821   0.100   4.662  14.191 -0.0316  0.4659  0.1508
18136TIP3   OH275822   1.883   2.349   3.357 -0.1761 -0.0772  0.0471
18136TIP3    H175823   1.834   2.270   3.332  0.7293 -0.0052 -2.1984
18136TIP3    H275824   1.948   2.318   3.420  2.6291 -2.0698 -3.4056
18137TIP3   OH275825   1.854   5.802  15.478 -0.2222 -0.0217 -0.0943
18137TIP3    H175826   1.904   5.744  15.536 -1.1886 -0.5357  0.2431
18137TIP3    H275827   1.874   5.890  15.509 -0.3254 -0.2661  0.6935
18138TIP3   OH275828   1.570   3.649   1.339  0.1860  0.1632  0.3045
18138TIP3    H175829   1.476   3.636   1.329  0.3740 -0.1781 -1.4374
18138TIP3    H275830   1.580   3.743   1.358 -0.4494  0.5071 -0.9441
18139TIP3   OH275831   0.709   0.184  16.622 -0.4673  0.1909  0.2010
18139TIP3    H175832   0.774   0.201  16.690  0.5108  0.2541 -0.7143
18139TIP3    H275833   0.717   0.091  16.602  0.5170  0.5149 -1.0447
18140TIP3   OH275834   4.334   4.371  11.304 -0.4261 -0.1749  0.1558
18140TIP3    H175835   4.404   4.318  11.344 -1.4376 -0.0027  2.2942
18140TIP3    H275836   4.318   4.441  11.367 -1.9798  0.2653 -0.6768
18141TIP3   OH275837   3.870   3.490  12.558 -0.6465 -0.6208  0.7033
18141TIP3    H175838   3.925   3.499  12.636  0.5303  0.3304 -0.2110
18141TIP3    H275839   3.867   3.577  12.520  0.3704 -1.4259 -1.3658
18142TIP3   OH275840   2.176   2.203  11.843  0.0287 -1.0297  0.0875
18142TIP3    H175841   2.184   2.261  11.919 -1.0259 -0.6560 -0.0679
18142TIP3    H275842   2.241   2.236  11.781  1.6893 -2.0279  1.2305
18143TIP3   OH275843   2.800   1.440   0.521 -0.3274 -0.3551  0.4596
18143TIP3    H175844   2.725   1.458   0.465  0.6410  0.1901 -0.7207
18143TIP3    H275845   2.791   1.347   0.543 -1.0369 -0.4357 -0.1262
18144TIP3   OH275846   1.750   0.116  14.161  0.0474 -0.0498  0.0672
18144TIP3    H175847   1.667   0.076  14.185  0.6128 -0.3902  1.5360
18144TIP3    H275848   1.736   0.149  14.072 -0.9692 -1.9837 -0.5346
18145TIP3   OH275849   3.323   2.730  17.314 -0.5371 -0.2492 -0.1903
18145TIP3    H175850   3.339   2.771  17.399 -0.8654  1.8624 -1.0873
18145TIP3    H275851   3.240   2.684  17.325 -1.3565  1.2702  0.2420
18146TIP3   OH275852   6.683   3.542   6.234 -0.4673  0.0008  0.4654
18146TIP3    H175853   6.595   3.517   6.207 -0.4361 -0.1769  0.5250
18146TIP3    H275854   6.675   3.633   6.260 -0.5636  0.0863  0.1485
18147TIP3   OH275855   6.306   4.415   1.886 -0.6115  0.7392 -0.5753
18147TIP3    H175856   6.237   4.449   1.830 -1.9328 -1.3217 -0.3034
18147TIP3    H275857   6.352   4.351   1.832 -0.8850 -0.1091  0.1649
18148TIP3   OH275858   2.205   3.258   5.877 -0.4870  0.2410 -0.7403
18148TIP3    H175859   2.188   3.166   5.858 -3.6245  0.3574  0.9510
18148TIP3    H275860   2.191   3.266   5.971  1.3930  2.1789 -0.5605
18149TIP3   OH275861   5.912   3.698  13.976 -0.4487 -0.0225  0.6165
18149TIP3    H175862   5.961   3.781  13.975  1.5687 -1.1620  0.7757
18149TIP3    H275863   5.846   3.709  13.908 -1.1173  2.2068  1.5083
18150TIP3   OH275864   3.287   5.059   0.217  0.2106 -0.5336 -0.0267
18150TIP3    H175865   3.303   5.109   0.298 -1.4682 -0.3769  0.2370
18150TIP3    H275866   3.212   5.004   0.237 -0.2668 -0.4609 -1.4978
18151TIP3   OH275867   6.082   5.364  16.068  0.0748  0.2347  0.0984
18151TIP3    H175868   6.075   5.449  16.111  1.2003 -0.2523  1.3177
18151TIP3    H275869   6.135   5.311  16.128 -0.1761 -1.1698 -0.8733
18152TIP3   OH275870   0.893   0.167   2.672 -0.0456  0.1313  0.0238
18152TIP3    H175871   0.853   0.226   2.608 -1.0702  2.0648  2.2633
18152TIP3    H275872   0.957   0.221   2.718 -0.0567 -0.8559  1.2803
18153TIP3   OH275873   5.163   3.712  14.210 -0.4502  0.3746  0.0397
18153TIP3    H175874   5.132   3.623  14.195 -1.0629  0.2810  1.7117
18153TIP3    H275875   5.185   3.715  14.303 -1.5668  2.3010  0.2982
18154TIP3   OH275876   1.910   4.662  11.997 -0.5240  0.1593 -0.0773
18154TIP3    H175877   2.004   4.661  12.019 -0.1280  1.1979 -1.5846
18154TIP3    H275878   1.872   4.594  12.053  1.1551 -0.4073  0.4435
18155TIP3   OH275879   2.859   2.078  11.143  0.4947  0.3330 -0.9897
18155TIP3    H175880   2.890   1.993  11.111 -1.9398 -1.0651  0.0954
18155TIP3    H275881   2.843   2.130  11.064 -0.7848 -1.3130 -1.8709
18156TIP3   OH275882   1.871   3.033  14.872 -0.3087  0.1477  0.1211
18156TIP3    H175883   1.791   3.064  14.830  0.4141  2.1037  0.0789
18156TIP3    H275884   1.942   3.079  14.826  0.7358 -0.3415  1.1896
18157TIP3   OH275885   3.656   5.226  16.682  0.1945  0.0138 -0.3054
18157TIP3    H175886   3.687   5.311  16.652  1.7925  0.2833  1.8894
18157TIP3    H275887   3.571   5.215  16.640 -0.0395  2.6717 -0.6513
18158TIP3   OH275888   1.196   2.389  13.498  0.1405 -0.3696 -0.1317
18158TIP3    H175889   1.110   2.379  13.458 -0.0407  0.3609  0.0743
18158TIP3    H275890   1.180   2.388  13.592  0.1955  1.0513 -0.0915
18159TIP3   OH275891   5.867   5.713   2.161  0.6788 -0.1310  0.2154
18159TIP3    H175892   5.908   5.627   2.156  2.4158  0.6521  0.3506
18159TIP3    H275893   5.868   5.734   2.255  0.3387  0.0939  0.1726
18160TIP3   OH275894   1.537   4.291   1.583 -0.0842  0.1586  0.0109
18160TIP3    H175895   1.624   4.307   1.618 -1.4205  1.7063  2.9845
18160TIP3    H275896   1.548   4.293   1.488  3.3710 -1.6049  0.2366
18161TIP3   OH275897   0.635   4.290  11.988 -0.0886  0.4759  0.4977
18161TIP3    H175898   0.701   4.238  12.034  1.7611  2.2307 -0.0517
18161TIP3    H275899   0.609   4.235  11.914  0.4090 -0.4305  0.9740
18162TIP3   OH275900   1.092   2.270   4.972 -0.0393 -0.3645  0.2903
18162TIP3    H175901   1.188   2.267   4.964 -0.1605 -0.0607 -2.0194
18162TIP3    H275902   1.075   2.251   5.064  2.3488  1.6330  1.2656
18163TIP3   OH275903   1.661   3.474  10.952  0.2606 -0.2355  0.6165
18163TIP3    H175904   1.693   3.564  10.956 -0.2509  0.0036 -0.2520
18163TIP3    H275905   1.578   3.480  10.904 -0.3176 -1.0329  1.4774
18164TIP3   OH275906   0.848   4.466  11.871 -0.5596  0.0407  0.1280
18164TIP3    H175907   0.762   4.435  11.899  0.4264 -1.7782  1.3310
18164TIP3    H275908   0.868   4.413  11.793 -0.8720  1.0896 -0.6896
18165TIP3   OH275909   1.284   1.530  12.857 -0.0982  0.6880 -0.0675
18165TIP3    H175910   1.248   1.613  12.889  0.2881  0.6774  0.4064
18165TIP3    H275911   1.298   1.545  12.764  0.1553  1.2293  0.0492
18166TIP3   OH275912   5.500   4.852  15.534  0.3124  0.3580  0.1181
18166TIP3    H175913   5.594   4.839  15.520  0.1547 -0.3021 -0.3891
18166TIP3    H275914   5.493   4.943  15.564  1.2488 -0.0529  1.6681
18167TIP3   OH275915   1.535   4.660   0.068  0.3032 -0.2193 -0.3187
18167TIP3    H175916   1.517   4.631  -0.021 -1.8290 -0.6566  0.2046
18167TIP3    H275917   1.536   4.755   0.062  0.7831 -0.2535 -0.9018
18168TIP3   OH275918   1.314   3.556  11.606  0.5351  0.1831 -0.0865
18168TIP3    H175919   1.248   3.503  11.560 -1.7278  0.9825  1.9923
18168TIP3    H275920   1.272   3.641  11.618  0.6760 -0.1220  3.8213
18169TIP3   OH275921   0.627   6.422   0.084  0.5200  0.4443  0.3535
18169TIP3    H175922   0.657   6.431   0.175 -0.3885  2.0870  0.5270
18169TIP3    H275923   0.533   6.405   0.091  0.5190  0.1538 -0.2802
18170TIP3   OH275924   2.745   6.353  12.703 -0.0112  0.1617  0.5371
18170TIP3    H175925   2.796   6.332  12.780 -1.3661  0.7265  1.6424
18170TIP3    H275926   2.733   6.448  12.706  0.1754  0.2401 -0.5434
18171TIP3   OH275927   0.517   6.108   2.389  0.0439  0.2240  0.1693
18171TIP3    H175928   0.427   6.085   2.416  0.4882 -2.9073 -0.6005
18171TIP3    H275929   0.556   6.025   2.363  3.7136  1.1753  1.8918
18172TIP3   OH275930   1.040   5.270   2.263 -0.4323 -0.4813  0.4532
18172TIP3    H175931   1.009   5.216   2.190  0.9560 -2.0858  0.9603
18172TIP3    H275932   1.001   5.231   2.340  0.9839 -1.1365  0.8782
18173TIP3   OH275933   2.984   0.714   1.243 -0.1436 -0.2405 -0.6287
18173TIP3    H175934   2.967   0.647   1.309 -0.7165 -0.7742 -1.2962
18173TIP3    H275935   2.971   0.797   1.288 -0.9878 -0.6036 -0.1777
18174TIP3   OH275936   1.184   2.234   4.210  0.0266  0.2088  0.7611
18174TIP3    H175937   1.234   2.185   4.276 -0.5543  0.4396  1.3936
18174TIP3    H275938   1.163   2.169   4.143  1.5736  0.2184  0.2420
18175TIP3   OH275939   5.843   2.446   4.132 -0.0763 -0.1874 -0.5784
18175TIP3    H175940   5.785   2.460   4.207 -1.0279  0.0114 -1.3322
18175TIP3    H275941   5.837   2.352   4.114  2.6333 -0.8933  1.5309
18176TIP3   OH275942   4.232   0.340   5.915  0.3293 -0.0327  0.3002
18176TIP3    H175943   4.182   0.302   5.987  1.4006  0.2101  1.1831
18176TIP3    H275944   4.264   0.265   5.866 -1.2765 -0.1958 -0.5730
18177TIP3   OH275945   6.475   4.039  16.124  0.1109  0.0304  0.9050
18177TIP3    H175946   6.406   4.026  16.060 -0.2825 -0.8405  1.4746
18177TIP3    H275947   6.546   4.080  16.075 -0.4454  0.0521  0.0911
18178TIP3   OH275948   5.876   4.317   1.457  0.1894  0.5433  0.2154
18178TIP3    H175949   5.824   4.274   1.390  1.4141 -0.6043 -0.0538
18178TIP3    H275950   5.894   4.404   1.422  1.3962 -0.2613 -1.3356
18179TIP3   OH275951   1.795   3.259   1.615  0.0700  0.2062  0.4981
18179TIP3    H175952   1.791   3.334   1.555 -1.2810  1.0952  1.6450
18179TIP3    H275953   1.705   3.246   1.644  0.3802 -1.4810  0.8214
18180TIP3   OH275954   0.239   5.410   6.565  0.4617  0.0143  0.0351
18180TIP3    H175955   0.168   5.363   6.608  1.5420 -1.1364  0.5846
18180TIP3    H275956   0.217   5.407   6.472 -0.6127  0.3836  0.2637
18181TIP3   OH275957   2.477   6.262  15.673 -0.2102  0.2331 -0.3090
18181TIP3    H175958   2.548   6.315  15.636  0.0749  0.6500  0.7806
18181TIP3    H275959   2.398   6.315  15.660  0.1360  1.1986  1.1842
18182TIP3   OH275960   1.681   4.851  16.976  0.3272  0.3874  0.4377
18182TIP3    H175961   1.611   4.894  17.025  0.4025  0.8518  0.1547
18182TIP3    H275962   1.749   4.832  17.041  1.2038  2.5985  0.2839
18183TIP3   OH275963   3.646   4.122  10.993 -0.0345  0.1101 -0.2734
18183TIP3    H175964   3.704   4.054  11.027  0.2507  0.9387  0.9741
18183TIP3    H275965   3.608   4.084  10.913  1.0148 -1.0394 -0.2530
18184TIP3   OH275966   0.638   2.802  15.719  0.0663  0.0740  0.3601
18184TIP3    H175967   0.692   2.736  15.676 -1.1998 -0.9273  0.2489
18184TIP3    H275968   0.698   2.876  15.734  2.2498 -1.9289  2.6752
18185TIP3   OH275969   2.040   5.836  12.297 -0.4883  0.6875 -0.2622
18185TIP3    H175970   2.097   5.883  12.358 -0.0922  0.9992 -0.8533
18185TIP3    H275971   2.093   5.826  12.218 -0.9546  0.2043 -0.5206
18186TIP3   OH275972   3.877   1.113  13.423 -0.4699 -0.2377  0.6324
18186TIP3    H175973   3.801   1.058  13.443 -0.9658  0.7700  1.5787
18186TIP3    H275974   3.864   1.192  13.474  1.5225 -0.2705  1.2715
18187TIP3   OH275975   0.116   0.351   3.680  0.0457  0.0844 -0.3151
18187TIP3    H175976   0.075   0.411   3.743 -1.6529  1.0096 -2.1923
18187TIP3    H275977   0.168   0.409   3.624  0.6118 -0.5777 -0.4811
18188TIP3   OH275978   5.962   6.341  15.447  0.0495 -0.7789 -0.8002
18188TIP3    H175979   5.928   6.426  15.420  0.0258 -0.7190 -0.5837
18188TIP3    H275980   5.909   6.277  15.398 -2.0201 -0.7766  1.2571
18189TIP3   OH275981   1.276   2.641  10.623  0.0331  1.0183 -0.0615
18189TIP3    H175982   1.191   2.666  10.658  0.7608  1.7599  1.2558
18189TIP3    H275983   1.272   2.662  10.530 -0.4209  3.2643  0.4248
18190TIP3   OH275984   1.174   0.742  12.410 -0.6209  0.1141 -0.0313
18190TIP3    H175985   1.094   0.694  12.390  0.3564 -0.4458 -3.1021
18190TIP3    H275986   1.164   0.826  12.365 -0.3523  0.9269  1.3731
18191TIP3   OH275987   2.222   0.965   5.916  0.1225  0.0562  0.1761
18191TIP3    H175988   2.304   0.980   5.868  0.2427 -0.6125  0.1655
18191TIP3    H275989   2.158   1.022   5.873  0.5086  0.3462 -0.0169
18192TIP3   OH275990   5.662   5.982   4.350  0.4932  0.6335 -0.0639
18192TIP3    H175991   5.598   5.946   4.412  0.6850 -2.9094 -1.6940
18192TIP3    H275992   5.747   5.962   4.390  0.5994 -0.4248 -0.7881
18193TIP3   OH275993   4.098   1.141   1.325 -0.2570 -0.2443 -0.4381
18193TIP3    H175994   4.189   1.126   1.351  0.3545 -0.1211 -2.3868
18193TIP3    H275995   4.104   1.176   1.236 -1.9789  3.7375  0.7709
18194TIP3   OH275996   4.043   3.151   1.437 -0.2818 -0.6008 -0.1076
18194TIP3    H175997   3.967   3.122   1.387 -0.6187 -2.0128  1.1691
18194TIP3    H275998   4.009   3.217   1.497 -0.6933 -1.8102  1.0224
18195TIP3   OH275999   2.668   6.494  15.778 -0.2566  0.2016  0.0680
18195TIP3    H176000   2.607   6.507  15.705  0.3579 -0.1498 -0.5211
18195TIP3    H276001   2.707   6.580  15.792 -0.8783  0.4273  0.4461
18196TIP3   OH276002   3.512   6.570   0.569 -0.0958  0.1756 -0.3033
18196TIP3    H176003   3.560   6.571   0.487 -0.5506  1.6175 -0.5776
18196TIP3    H276004   3.491   6.662   0.586 -0.2972 -0.1356  1.2550
18197TIP3   OH276005   5.893   3.820  17.187  0.2254  0.3062  0.9618
18197TIP3    H176006   5.908   3.915  17.184 -0.8428  0.4727  0.4818
18197TIP3    H276007   5.935   3.792  17.268 -0.5016  1.3906  1.7504
18198TIP3   OH276008   1.133   6.444  16.659 -0.9460  0.0366 -0.3797
18198TIP3    H176009   1.126   6.405  16.746  1.5239 -0.5016 -0.3580
18198TIP3    H276010   1.083   6.526  16.666  2.0916  1.8842  2.7372
18199TIP3   OH276011   1.221   6.567   4.921 -0.0515  0.3765  0.6028
18199TIP3    H176012   1.163   6.642   4.906  0.3921  0.7030  0.4943
18199TIP3    H276013   1.301   6.589   4.874 -0.1530 -0.4724 -0.0028
18200TIP3   OH276014   2.491   4.752   3.756  0.9353 -0.4804  0.3679
18200TIP3    H176015   2.503   4.691   3.683  1.2273 -0.9267  0.7814
18200TIP3    H276016   2.459   4.832   3.715  0.0188 -1.0805 -0.1231
18201TIP3   OH276017   6.722   1.827  13.731  0.0517 -0.0423 -0.0057
18201TIP3    H176018   6.718   1.801  13.824  2.1246  0.3981  0.2468
18201TIP3    H276019   6.762   1.752  13.687 -2.3884 -0.9181 -0.8887
18202TIP3   OH276020   6.339   6.377  15.993 -0.6184  0.0752 -0.0125
18202TIP3    H176021   6.323   6.339  16.080  0.6204 -0.7711 -0.1334
18202TIP3    H276022   6.266   6.437  15.980 -1.0400 -0.0760  1.4513
18203TIP3   OH276023   3.366   4.965   4.885 -0.8862  0.3698  0.2510
18203TIP3    H176024   3.461   4.973   4.874 -0.8782 -1.8130 -2.2393
18203TIP3    H276025   3.347   5.019   4.962  2.1591  1.9426  0.0868
18204TIP3   OH276026   1.433   5.732  12.297  0.0149 -0.7202  0.2511
18204TIP3    H176027   1.376   5.784  12.240 -0.0630  0.7974  1.6391
18204TIP3    H276028   1.462   5.794  12.364  2.4397 -1.7279  0.2144
18205TIP3   OH276029   2.048   1.405  14.369  0.1617 -0.1641  0.7042
18205TIP3    H176030   2.055   1.315  14.338  0.0194  0.0626  0.0105
18205TIP3    H276031   2.138   1.429  14.395  0.4733 -0.0317 -0.4512
18206TIP3   OH276032   6.708   5.619  13.089 -0.5306  0.1110  0.1863
18206TIP3    H176033   6.771   5.629  13.161  0.6268 -0.1042 -0.7612
18206TIP3    H276034   6.625   5.647  13.127  0.5734  3.0527  0.7607
18207TIP3   OH276035   1.620   0.223   3.457 -0.2300 -0.0453 -0.1124
18207TIP3    H176036   1.544   0.276   3.482 -0.0022  1.3039 -2.0888
18207TIP3    H276037   1.693   0.284   3.460  0.3420 -0.6899 -0.7148
18208TIP3   OH276038   4.728   0.502  14.753  0.1203  0.3101 -0.1227
18208TIP3    H176039   4.723   0.566  14.824 -0.7483  0.0412  0.0663
18208TIP3    H276040   4.821   0.497  14.732  0.2525  1.3033  0.1598
18209TIP3   OH276041   5.707   4.240  13.553  0.0719 -0.0115  0.0231
18209TIP3    H176042   5.640   4.308  13.548 -0.2368 -0.0822  2.1707
18209TIP3    H276043   5.661   4.158  13.536 -0.4718 -0.0824  1.7085
18210TIP3   OH276044   0.871   1.401   1.784  0.5418 -0.3653 -0.1598
18210TIP3    H176045   0.810   1.443   1.723  1.6623  0.5686 -0.6563
18210TIP3    H276046   0.950   1.385   1.732  1.0770 -0.6672  0.7333
18211TIP3   OH276047   6.616   0.290   2.799 -0.1301  0.0585  0.6240
18211TIP3    H176048   6.694   0.327   2.758 -0.5543  0.4616  0.1637
18211TIP3    H276049   6.610   0.333   2.884 -0.0569  0.3140  0.5024
18212TIP3   OH276050   0.083   5.314   5.687  0.3519 -0.1253  0.1990
18212TIP3    H176051   0.022   5.241   5.701  0.4814 -0.1853  0.4557
18212TIP3    H276052   0.151   5.301   5.753 -0.1024  0.7489  0.8486
18213TIP3   OH276053   4.957   0.019   0.720  0.3515  0.1896 -0.5279
18213TIP3    H176054   4.985   0.004   0.629 -0.0351  0.8867 -0.7676
18213TIP3    H276055   4.964   0.113   0.732  3.8431 -0.1329  1.3214
18214TIP3   OH276056   3.517   3.017   0.627 -0.0004  0.1606  0.5530
18214TIP3    H176057   3.592   3.068   0.596  0.5034 -1.0759 -0.3286
18214TIP3    H276058   3.521   2.936   0.577 -2.1273  0.1841  0.2603
18215TIP3   OH276059   6.753   0.966  15.079 -0.0151  0.3613  0.2276
18215TIP3    H176060   6.731   0.875  15.060 -1.8949  0.8677 -0.2821
18215TIP3    H276061   6.790   0.999  14.997  2.2010 -0.3200  0.8891
18216TIP3   OH276062   1.699   1.597   5.602  0.2187 -0.3685 -0.1367
18216TIP3    H176063   1.725   1.510   5.632 -0.1631 -0.6724 -0.6559
18216TIP3    H276064   1.608   1.586   5.573  0.3237  0.0839 -0.6673
18217TIP3   OH276065   2.780   2.824   5.456 -0.8743  0.2992  0.4054
18217TIP3    H176066   2.828   2.890   5.406 -0.2729 -0.3645  0.0784
18217TIP3    H276067   2.701   2.869   5.486  0.5787  1.8522  2.1370
18218TIP3   OH276068   6.137   3.039   2.394 -0.1582 -0.0938 -0.3503
18218TIP3    H176069   6.073   3.033   2.323  0.9300 -0.1198 -1.3467
18218TIP3    H276070   6.216   2.999   2.358 -0.0481 -1.6459  1.4422
18219TIP3   OH276071   0.662   1.353  15.160  0.1632 -0.5052 -0.5631
18219TIP3    H176072   0.626   1.376  15.074  0.1070 -0.5138 -0.5425
18219TIP3    H276073   0.667   1.257  15.158  1.4059 -0.4480 -1.0502
18220TIP3   OH276074   2.632   0.412  11.637 -0.4644  0.0850 -0.0637
18220TIP3    H176075   2.676   0.487  11.598  2.7553  0.1641  3.2395
18220TIP3    H276076   2.585   0.448  11.712 -0.4455 -0.9587  0.4634
18221TIP3   OH276077   6.640   0.469   6.556  0.0980 -0.4291  0.3177
18221TIP3    H176078   6.703   0.411   6.599 -0.2569 -0.9502  0.1433
18221TIP3    H276079   6.557   0.421   6.560 -0.7095  0.9705  2.1235
18222TIP3   OH276080   2.421   5.466   4.130  0.5797  0.0306  0.3855
18222TIP3    H176081   2.497   5.519   4.105 -0.2115  0.5456 -1.0838
18222TIP3    H276082   2.451   5.376   4.124  1.3947  0.2428  1.0081
18223TIP3   OH276083   4.746   3.530   3.721  0.0394 -0.3503 -0.3416
18223TIP3    H176084   4.699   3.556   3.801 -0.5668 -0.7157 -0.5714
18223TIP3    H276085   4.786   3.446   3.743  1.2609  0.3168  0.1091
18224TIP3   OH276086   0.415   4.906   2.133 -0.4184 -0.3520  0.1024
18224TIP3    H176087   0.371   4.986   2.161  0.4743 -0.2907  1.3951
18224TIP3    H276088   0.372   4.835   2.181 -1.3177 -0.6926 -1.1622
18225TIP3   OH276089   3.832   0.785  13.910  0.3147  0.3148 -0.2794
18225TIP3    H176090   3.850   0.702  13.953  0.9824 -0.3730 -1.8023
18225TIP3    H276091   3.758   0.822  13.957 -0.4600 -1.4959 -0.0211
18226TIP3   OH276092   0.764   5.021   3.137  0.2194  0.0777  0.3856
18226TIP3    H176093   0.808   4.949   3.092 -0.4349  0.1135 -0.3536
18226TIP3    H276094   0.671   5.000   3.130 -0.0791  1.6454 -1.0432
18227TIP3   OH276095   1.599   3.520  10.301  0.3063 -0.1207  0.1153
18227TIP3    H176096   1.510   3.537  10.269  0.3216  1.6364  0.9209
18227TIP3    H276097   1.656   3.546  10.228  0.1973 -1.5576 -0.5279
18228TIP3   OH276098   4.283   0.454  14.973  0.5818 -0.5831 -0.0366
18228TIP3    H176099   4.253   0.501  14.895  0.6482 -1.1413 -0.4054
18228TIP3    H276100   4.364   0.498  14.998  1.1950 -1.1488 -0.9915
18229TIP3   OH276101   4.539   1.262  13.296 -0.5104  0.1949  0.6205
18229TIP3    H176102   4.614   1.266  13.235 -0.8810  0.8899  0.1877
18229TIP3    H276103   4.502   1.175  13.283 -1.3448  0.7500 -1.1226
18230TIP3   OH276104   0.670   1.307   3.883  0.0476 -0.2623  0.8921
18230TIP3    H176105   0.745   1.334   3.830 -0.2037  0.5283  0.9254
18230TIP3    H276106   0.620   1.249   3.826 -0.2221  0.5849  0.2488
18231TIP3   OH276107   3.386   1.856   0.470  0.1881  0.1861  0.7949
18231TIP3    H176108   3.465   1.803   0.460 -0.6181 -0.9334  0.0704
18231TIP3    H276109   3.404   1.936   0.422  0.1627 -0.9005 -1.1415
18232TIP3   OH276110   6.320   5.983   6.392  0.0949 -0.2482  0.0336
18232TIP3    H176111   6.317   6.039   6.469 -0.5284 -0.2561  0.0202
18232TIP3    H276112   6.231   5.948   6.384 -0.1869  0.6881 -1.3648
18233TIP3   OH276113   4.908   3.910  16.294 -0.1337 -0.1091 -0.1767
18233TIP3    H176114   4.899   3.902  16.388 -0.2982 -0.5976 -0.2330
18233TIP3    H276115   4.901   3.821  16.261 -0.5355  0.1070 -0.6893
18234TIP3   OH276116   0.465   0.827   1.222  0.0138 -0.2697 -0.0496
18234TIP3    H176117   0.400   0.827   1.292  0.3884  0.9604  0.3306
18234TIP3    H276118   0.469   0.919   1.193  2.2607 -0.0912  0.6236
18235TIP3   OH276119   5.783   0.720  16.740  0.2360  0.0673 -0.0471
18235TIP3    H176120   5.855   0.728  16.678  1.2564  0.2196  1.1295
18235TIP3    H276121   5.818   0.753  16.823 -1.7716  1.9840  0.1294
18236TIP3   OH276122   0.279   6.198  15.463  0.6551  0.0367  0.3219
18236TIP3    H176123   0.339   6.148  15.407  0.5291  1.1532 -0.8436
18236TIP3    H276124   0.284   6.288  15.431 -1.2052  0.2705  0.5610
18237TIP3   OH276125   2.950   3.520   0.516 -0.6212  0.1563 -0.0014
18237TIP3    H176126   2.992   3.601   0.545 -1.3057  0.0831  1.2394
18237TIP3    H276127   2.856   3.540   0.518 -0.7822 -0.6142  0.1592
18238TIP3   OH276128   4.264   0.026  16.188 -0.3196  0.1623  0.3480
18238TIP3    H176129   4.273   0.119  16.211 -2.0593  0.5755 -0.4825
18238TIP3    H276130   4.181  -0.000  16.226 -0.2097 -0.8584 -0.0940
18239TIP3   OH276131   4.567   1.545   6.413  0.3724  0.2122  0.4773
18239TIP3    H176132   4.524   1.560   6.497 -1.4700 -2.6337  0.1991
18239TIP3    H276133   4.659   1.534   6.434 -0.1414 -1.0926  2.2836
18240TIP3   OH276134   0.992   6.771   4.452  0.4303 -0.2372  0.3533
18240TIP3    H176135   0.962   6.861   4.442 -2.0192 -0.7257  2.3190
18240TIP3    H276136   1.059   6.776   4.521 -1.5451 -0.1300  2.3913
18241TIP3   OH276137   4.953   5.871   4.520 -0.1212 -0.6209 -0.3509
18241TIP3    H176138   4.960   5.790   4.570 -1.1365 -0.7695 -0.4341
18241TIP3    H276139   4.964   5.844   4.429  0.1721 -0.5634 -0.3366
18242TIP3   OH276140   4.036   4.475   5.215 -0.4522 -0.2664 -0.1812
18242TIP3    H176141   4.124   4.466   5.254 -0.1413  0.1295 -0.7799
18242TIP3    H276142   4.037   4.561   5.174  0.4401 -1.9295 -4.0377
18243TIP3   OH276143   1.681   5.303   0.835 -0.1105 -0.1603  0.2352
18243TIP3    H176144   1.640   5.226   0.794  0.4563  0.2602 -1.1878
18243TIP3    H276145   1.622   5.375   0.813 -2.3900 -0.4982  4.2117
18244TIP3   OH276146   5.761   1.231  13.698  0.1303  0.1993 -0.3207
18244TIP3    H176147   5.808   1.298  13.748  0.5788 -0.2079 -0.1760
18244TIP3    H276148   5.773   1.255  13.607 -1.2001  1.2834 -0.2249
18245TIP3   OH276149   3.176   3.326   1.961 -0.0055  0.7279  0.5990
18245TIP3    H176150   3.185   3.310   2.055  1.2004 -1.1873  0.2176
18245TIP3    H276151   3.169   3.239   1.922  1.4862  1.3481 -1.2378
18246TIP3   OH276152   5.305   3.822   1.336  0.1237  0.2827  0.4572
18246TIP3    H176153   5.296   3.762   1.262 -0.7167  0.6634  0.2345
18246TIP3    H276154   5.216   3.830   1.371  0.1142  1.8060  0.1500
18247TIP3   OH276155   1.354   3.081   4.405  0.2624  0.8560 -0.0756
18247TIP3    H176156   1.343   3.144   4.476  1.9139  3.7487 -2.1682
18247TIP3    H276157   1.288   3.106   4.340 -0.3481 -0.8978 -0.1855
18248TIP3   OH276158   0.260   4.783  15.323 -0.3605 -0.6572 -0.3892
18248TIP3    H176159   0.184   4.786  15.382  0.5549 -1.7760  0.8957
18248TIP3    H276160   0.223   4.803  15.236 -1.9279 -0.0963  0.3620
18249TIP3   OH276161   1.700   0.353   0.401 -0.5209  0.1001 -0.5173
18249TIP3    H176162   1.679   0.274   0.452 -0.6492  0.7389  0.4423
18249TIP3    H276163   1.619   0.404   0.402 -0.3087  0.4383 -0.7619
18250TIP3   OH276164   5.959   2.118  11.792 -0.1256  0.0849 -0.2540
18250TIP3    H176165   5.963   2.206  11.829 -0.8907 -0.7215  1.9027
18250TIP3    H276166   5.865   2.100  11.781 -0.0341 -0.8490  0.3620
18251TIP3   OH276167   2.684   2.125   0.030  0.7176  0.0906  0.1742
18251TIP3    H176168   2.712   2.210   0.066 -1.1146  1.3291 -1.1548
18251TIP3    H276169   2.591   2.119   0.051  0.7068 -1.3863 -0.1829
18252TIP3   OH276170   4.366   2.019   2.660  0.3285 -0.5612 -0.1814
18252TIP3    H176171   4.428   2.002   2.730 -0.1017 -2.2274 -0.1772
18252TIP3    H276172   4.341   1.933   2.627 -1.4236  0.0852 -0.6790
18253TIP3   OH276173   6.246   4.166  15.063  0.3633  0.1170  0.8859
18253TIP3    H176174   6.316   4.132  15.119  1.4963 -0.0159 -0.5349
18253TIP3    H276175   6.282   4.161  14.974 -1.4756  0.0086  0.0952
18254TIP3   OH276176   4.426   5.662   5.157  0.0624  0.1076 -0.0607
18254TIP3    H176177   4.450   5.682   5.067 -2.3826 -1.4188 -1.1788
18254TIP3    H276178   4.331   5.677   5.160  0.1783  0.8723  2.5231
18255TIP3   OH276179   5.198   0.174  13.148  0.6656  0.3226  0.2602
18255TIP3    H176180   5.149   0.134  13.219 -0.6203  0.0517 -0.7326
18255TIP3    H276181   5.264   0.227  13.191  0.5078 -0.5418  1.6355
18256TIP3   OH276182   3.995   5.947  12.139  0.1665 -0.5989  0.6423
18256TIP3    H176183   3.923   6.005  12.163 -0.1291 -1.4948  2.0453
18256TIP3    H276184   4.010   5.965  12.047 -2.0015 -0.5328  0.2431
18257TIP3   OH276185   2.160   4.531   1.733  0.2789  0.5886 -0.2548
18257TIP3    H176186   2.174   4.601   1.798  2.3079  0.4608 -0.4971
18257TIP3    H276187   2.174   4.574   1.649  1.9661 -0.1453 -0.3893
18258TIP3   OH276188   0.921   4.595  12.421  0.6099 -0.3270  0.6848
18258TIP3    H176189   0.964   4.558  12.498 -1.1347 -3.2856  0.4195
18258TIP3    H276190   0.832   4.559  12.424 -0.7834  2.6321 -0.6575
18259TIP3   OH276191   1.676   2.561   4.340  0.5483  0.1299 -0.2656
18259TIP3    H176192   1.629   2.511   4.407 -0.5357  0.5228 -0.7063
18259TIP3    H276193   1.666   2.509   4.260  0.5042  0.4222 -0.4518
18260TIP3   OH276194   2.367   5.182  15.559  0.0380  0.2059  1.1064
18260TIP3    H176195   2.362   5.275  15.581 -2.1382  0.2007  0.8616
18260TIP3    H276196   2.347   5.179  15.465 -3.3991 -0.6755  1.7271
18261TIP3   OH276197   0.717   5.218  15.590 -0.4110  0.1252  0.3541
18261TIP3    H176198   0.637   5.185  15.631  0.0847 -0.6264  0.7362
18261TIP3    H276199   0.690   5.299  15.546 -1.3679 -0.0977  0.5126
18262TIP3   OH276200   2.896   1.432  13.455 -0.9219 -0.0617  0.0412
18262TIP3    H176201   2.932   1.518  13.476 -2.0988  0.1206  1.4640
18262TIP3    H276202   2.955   1.370  13.499 -0.0893 -0.0061 -0.9623
18263TIP3   OH276203   5.449   3.732   5.669 -0.7285 -0.5667  0.3016
18263TIP3    H176204   5.398   3.790   5.726  0.1911  0.3145  0.2463
18263TIP3    H276205   5.501   3.791   5.615  1.0939 -1.4275  1.0304
18264TIP3   OH276206   2.863   3.510  14.883 -0.0416  0.2572 -0.1690
18264TIP3    H176207   2.876   3.599  14.915 -1.0653  0.8143 -1.2208
18264TIP3    H276208   2.775   3.512  14.844  0.0631 -1.1218 -0.5019
18265TIP3   OH276209   2.238   2.581  13.611  0.0254  0.0017 -0.2514
18265TIP3    H176210   2.274   2.552  13.695 -1.5498 -0.9045  0.1575
18265TIP3    H276211   2.147   2.604  13.631  0.1892  1.7474 -1.3290
18266TIP3   OH276212   0.002   5.772  14.972  0.1418  0.1611 -0.2283
18266TIP3    H176213  -0.044   5.856  14.975  0.3122  0.2589 -0.3605
18266TIP3    H276214   0.091   5.793  15.000  0.6538  0.3394 -1.8820
18267TIP3   OH276215   0.378   4.388  14.165  0.1637 -0.2781  0.3893
18267TIP3    H176216   0.352   4.412  14.254  2.0610 -0.5875  1.0790
18267TIP3    H276217   0.357   4.295  14.158 -3.0837  0.4197 -0.7318
18268TIP3   OH276218   5.973   0.789   4.682 -0.4195  0.4313 -0.4114
18268TIP3    H176219   5.960   0.820   4.592  1.1925  0.9928 -0.4809
18268TIP3    H276220   5.931   0.856   4.737  1.5731  1.9564 -0.6334
18269TIP3   OH276221   6.746   5.996   5.321  0.8115  0.7012 -0.5609
18269TIP3    H176222   6.741   5.944   5.241  0.6470 -0.0299 -0.0908
18269TIP3    H276223   6.655   6.020   5.339  1.1005  3.2289 -2.0707
18270TIP3   OH276224   6.642   4.678  15.138  0.4228 -0.1952  0.3353
18270TIP3    H176225   6.602   4.661  15.223 -0.1832 -0.0804  0.0815
18270TIP3    H276226   6.670   4.591  15.107 -1.0558 -0.5194 -0.1721
18271TIP3   OH276227   6.673   3.521  12.483 -0.0685 -0.4142  0.4375
18271TIP3    H176228   6.740   3.473  12.434  0.6901  0.1850  0.8680
18271TIP3    H276229   6.604   3.457  12.497 -0.6639 -0.4217 -2.0394
18272TIP3   OH276230   6.232   1.829  11.670 -0.2867 -0.2022 -0.2116
18272TIP3    H176231   6.265   1.900  11.616 -1.0928 -1.1157 -1.9827
18272TIP3    H276232   6.287   1.754  11.649 -0.7382 -0.6308  0.1010
18273TIP3   OH276233   6.491   2.289   5.079  0.4372 -0.3914 -0.5759
18273TIP3    H176234   6.504   2.300   4.985  0.9576  0.0207 -0.4620
18273TIP3    H276235   6.569   2.328   5.118 -0.3345  0.5551  0.0763
18274TIP3   OH276236   0.092   0.865  16.034 -0.1048  0.5457  0.0350
18274TIP3    H176237   0.105   0.846  16.127 -1.5749  0.1813  0.1854
18274TIP3    H276238   0.002   0.839  16.016  0.4280 -0.2607 -1.7274
18275TIP3   OH276239   5.409   2.087  12.938  0.1626 -1.4482  0.6655
18275TIP3    H176240   5.401   1.994  12.915  0.7573 -1.2259 -0.4421
18275TIP3    H276241   5.423   2.132  12.855 -0.9809 -0.2493  1.0849
18276TIP3   OH276242   5.468   3.490   1.543 -0.0504 -0.9978  0.7342
18276TIP3    H176243   5.479   3.577   1.582 -0.9583  0.2447 -1.5755
18276TIP3    H276244   5.551   3.474   1.497 -0.6714 -0.3001 -0.6881
18277TIP3   OH276245   4.222   5.011   3.133 -0.5145 -0.0111  0.2980
18277TIP3    H176246   4.214   4.944   3.201  0.3966  0.0690  0.5019
18277TIP3    H276247   4.225   4.961   3.051  0.2105 -0.2320  0.4525
18278TIP3   OH276248   5.997   6.739   4.829  0.0849  0.0360 -0.6823
18278TIP3    H176249   5.954   6.818   4.863  1.6302  1.0472 -0.9954
18278TIP3    H276250   6.033   6.696   4.907 -0.9950 -0.5419 -0.4789
18279TIP3   OH276251   1.416   1.828  12.223  0.0448  0.4797 -0.2605
18279TIP3    H176252   1.320   1.835  12.224 -0.2222 -2.2078  0.5890
18279TIP3    H276253   1.445   1.895  12.285 -1.0311  3.0679 -2.3416
18280TIP3   OH276254   6.671   1.110   5.843 -0.4296  0.2710 -0.0691
18280TIP3    H176255   6.643   1.048   5.776  0.4074 -0.7640  0.4980
18280TIP3    H276256   6.761   1.132   5.819 -0.2338  0.1338  0.5242
18281TIP3   OH276257   4.194   5.905   1.747 -0.1153  0.2304  0.4110
18281TIP3    H176258   4.281   5.941   1.728 -0.7975  1.5989 -0.2180
18281TIP3    H276259   4.201   5.812   1.724  0.9224  0.5105 -0.4950
18282TIP3   OH276260   4.741   5.451  15.834  0.2314 -0.1566 -0.2737
18282TIP3    H176261   4.732   5.541  15.867  0.2144 -0.6231  1.0245
18282TIP3    H276262   4.700   5.454  15.748 -1.4156  0.6557  0.4951
18283TIP3   OH276263   5.435   4.939  16.937  0.0099 -0.3140 -0.3826
18283TIP3    H176264   5.380   4.861  16.932 -0.3913 -0.0011 -0.8782
18283TIP3    H276265   5.451   4.951  17.030 -1.6296  0.1961 -0.1461
18284TIP3   OH276266   6.373   3.531   5.563  0.4293 -0.2305  0.2484
18284TIP3    H176267   6.422   3.580   5.629 -0.2937  1.6199 -0.5189
18284TIP3    H276268   6.286   3.520   5.601  0.1258  0.5060 -0.1939
18285TIP3   OH276269   1.458   5.909  11.278 -0.3530 -0.2724 -0.9726
18285TIP3    H176270   1.549   5.924  11.253 -0.7539  0.5304 -2.0432
18285TIP3    H276271   1.456   5.924  11.372  0.8470 -1.5016 -0.7207
18286TIP3   OH276272   4.305   2.266  11.721 -0.2351  0.4003 -0.7897
18286TIP3    H176273   4.317   2.329  11.792  0.7216  0.4923 -1.0111
18286TIP3    H276274   4.224   2.220  11.742 -0.0383  0.5235  0.2776
18287TIP3   OH276275   1.787   3.815  14.740  0.2271  0.5305 -0.4506
18287TIP3    H176276   1.872   3.782  14.768  0.8583  1.8542 -0.7538
18287TIP3    H276277   1.724   3.758  14.783  1.2500  0.0422  0.4330
18288TIP3   OH276278   0.100   4.530  14.988  0.0433 -0.6565 -0.0290
18288TIP3    H176279   0.049   4.586  14.930 -0.7683 -0.6794  0.6411
18288TIP3    H276280   0.133   4.460  14.931  1.4692  0.7172 -0.9742
18289TIP3   OH276281   2.907   3.075   4.995 -0.1275  0.4196  0.0413
18289TIP3    H176282   2.934   2.991   5.032 -0.1091  1.5776  3.0152
18289TIP3    H276283   2.814   3.082   5.017 -0.0401  1.3190  0.1579
18290TIP3   OH276284   6.430   3.252   2.027  0.0298 -0.3941  0.3621
18290TIP3    H176285   6.429   3.346   2.044 -1.9163 -0.1490 -0.7621
18290TIP3    H276286   6.517   3.223   2.055  0.4743  1.6290  1.2344
18291TIP3   OH276287   4.493   1.253   0.745  0.6237  0.2792 -1.4400
18291TIP3    H176288   4.587   1.261   0.726  0.1679  1.2030 -3.5506
18291TIP3    H276289   4.469   1.166   0.712  0.8258 -0.2448 -0.2803
18292TIP3   OH276290   4.334   1.069   1.466  0.2238 -0.4518 -0.2192
18292TIP3    H176291   4.289   1.011   1.528 -0.1817  0.1394  0.0518
18292TIP3    H276292   4.389   1.011   1.414 -0.1096 -1.0677  0.1076
18293TIP3   OH276293   4.231   5.413  16.379 -0.2618  0.4632  0.5959
18293TIP3    H176294   4.269   5.331  16.411  0.7883  0.8844  0.4703
18293TIP3    H276295   4.248   5.476  16.448 -2.3201  0.2928  1.3215
18294TIP3   OH276296   0.492   3.020   5.353  0.0642  0.6363  0.3665
18294TIP3    H176297   0.580   2.988   5.329  0.1925  0.5206  0.9842
18294TIP3    H276298   0.481   3.100   5.302 -0.1715 -0.2579 -1.0478
18295TIP3   OH276299   1.767   2.954   5.944 -0.1593 -0.1541 -0.2671
18295TIP3    H176300   1.762   2.870   5.899 -1.5084 -0.2849  0.0887
18295TIP3    H276301   1.679   2.991   5.936  0.6689  1.7417 -1.3896
18296TIP3   OH276302   0.199   5.611  10.563  0.1434 -0.0277  0.6812
18296TIP3    H176303   0.208   5.653  10.477  2.6101  1.1075  1.4032
18296TIP3    H276304   0.142   5.536  10.547  0.5627  0.1223 -1.9495
18297TIP3   OH276305   0.741   1.018   2.559 -0.1112 -0.2539 -0.1572
18297TIP3    H176306   0.803   0.958   2.518  0.4364 -1.0833  1.7604
18297TIP3    H276307   0.669   0.962   2.588  0.1222  0.0851  1.1170
18298TIP3   OH276308   0.555   5.658  13.254 -0.2410  0.2747 -0.0864
18298TIP3    H176309   0.533   5.571  13.289  0.6066  0.0593 -0.0691
18298TIP3    H276310   0.470   5.699  13.237 -0.6523 -0.4829  0.0898
18299TIP3   OH276311   6.341   3.467  13.937  0.1626 -0.3490 -0.0354
18299TIP3    H176312   6.386   3.402  13.992 -0.7329  1.2273  2.7625
18299TIP3    H276313   6.249   3.457  13.960 -0.1912  0.6829 -0.9656
18300TIP3   OH276314   1.230   2.821  14.015  0.0602  0.1876  0.3244
18300TIP3    H176315   1.177   2.824  14.095 -2.3094  3.3412 -1.1184
18300TIP3    H276316   1.282   2.900  14.018  1.0294 -0.3906 -0.6262
18301TIP3   OH276317   4.841   2.860   4.193 -0.2078 -0.4049  0.0186
18301TIP3    H176318   4.793   2.779   4.204  0.6451 -0.9001  0.1788
18301TIP3    H276319   4.933   2.833   4.183  0.2287  0.5799  1.0717
18302TIP3   OH276320   4.400   6.732  11.281 -0.1255 -0.6558 -0.1211
18302TIP3    H176321   4.418   6.643  11.311 -1.5634 -1.2245 -0.8277
18302TIP3    H276322   4.399   6.725  11.185  1.4796  0.5056 -0.2612
18303TIP3   OH276323   2.487   6.075   5.311  0.1196 -0.4696 -0.0836
18303TIP3    H176324   2.567   6.118   5.280 -0.5284  0.9204  0.0785
18303TIP3    H276325   2.512   5.984   5.325  1.4543 -0.2403 -0.8271
18304TIP3   OH276326   1.847   6.423  12.228  0.1873  0.7056  0.2734
18304TIP3    H176327   1.922   6.471  12.265  0.4085 -0.4929  1.4681
18304TIP3    H276328   1.783   6.491  12.208  1.2904  1.6876 -0.0743
18305TIP3   OH276329   4.871   2.204   0.652  0.5039  0.0326 -0.3218
18305TIP3    H176330   4.896   2.235   0.739  3.1866  1.7537 -1.6111
18305TIP3    H276331   4.939   2.142   0.628  0.3725  0.3690 -1.6208
18306TIP3   OH276332   3.815   0.753  12.973  0.2164  0.2023  0.0763
18306TIP3    H176333   3.789   0.741  13.064 -1.1998  0.4519 -0.2817
18306TIP3    H276334   3.805   0.667  12.932  1.1560  0.0130  0.2016
18307TIP3   OH276335   5.731   4.395   1.680  0.0520  0.0804 -0.0716
18307TIP3    H176336   5.644   4.356   1.675  1.1057 -2.6641  1.3520
18307TIP3    H276337   5.774   4.370   1.598  0.2080 -0.4267  0.1636
18308TIP3   OH276338   0.223   4.916   3.896  0.0344 -0.1683  0.3038
18308TIP3    H176339   0.150   4.892   3.839  1.0236 -1.8556 -0.3231
18308TIP3    H276340   0.288   4.954   3.836 -0.6303  2.2193  0.9837
18309TIP3   OH276341   1.281   6.026   5.526  0.5006  0.2373 -0.0903
18309TIP3    H176342   1.373   6.018   5.501  0.7258  0.2693  0.6981
18309TIP3    H276343   1.256   5.938   5.552  1.3461  0.8113  3.0960
18310TIP3   OH276344   4.672   2.890  10.770  0.1733  0.0783  0.1774
18310TIP3    H176345   4.620   2.951  10.719  0.3207  0.7611  0.8155
18310TIP3    H276346   4.762   2.920  10.759  0.1453  0.6911  1.3881
18311TIP3   OH276347   0.148   2.997   4.502 -0.4860 -0.1175 -0.4588
18311TIP3    H176348   0.102   2.959   4.427 -1.5914 -0.4031  0.3238
18311TIP3    H276349   0.192   3.074   4.467 -1.9407  0.4267 -1.1894
18312TIP3   OH276350   6.528   6.004   4.357  0.1942  0.0855 -0.5063
18312TIP3    H176351   6.476   5.985   4.435  0.5881  1.2166  0.0590
18312TIP3    H276352   6.471   5.981   4.283 -0.0558 -1.3282  0.0901
18313TIP3   OH276353   2.317   2.850   1.642  0.0156 -0.1654 -0.1438
18313TIP3    H176354   2.292   2.891   1.559  1.1730  0.1812 -0.3337
18313TIP3    H276355   2.296   2.916   1.708  0.3506  0.0989 -0.2961
18314TIP3   OH276356   4.374   5.965  11.708  0.2920 -0.3912 -0.6160
18314TIP3    H176357   4.379   6.001  11.619 -0.2481 -0.0862 -0.5277
18314TIP3    H276358   4.417   6.032  11.762  0.9339 -0.7389 -0.6902
18315TIP3   OH276359   0.762   3.620   5.419 -0.5485 -0.1895  0.6525
18315TIP3    H176360   0.726   3.626   5.507 -1.1883 -1.4104  0.5038
18315TIP3    H276361   0.695   3.660   5.363  0.1731  1.2333  0.7710
18316TIP3   OH276362   4.487   3.506  13.897  0.1705 -0.2007 -0.1996
18316TIP3    H176363   4.403   3.460  13.902  1.1752 -2.1356 -0.3452
18316TIP3    H276364   4.545   3.446  13.851  2.4898 -0.2777  2.5346
18317TIP3   OH276365   2.994   4.261  14.017 -0.0280  0.2965  0.0201
18317TIP3    H176366   2.969   4.345  13.979  1.2224 -0.0371 -1.6372
18317TIP3    H276367   2.930   4.198  13.982 -1.7828  0.6795  2.2927
18318TIP3   OH276368   6.568   4.378  15.480  0.1189 -0.1719 -0.1073
18318TIP3    H176369   6.589   4.459  15.527 -1.0661  0.7718 -1.1168
18318TIP3    H276370   6.511   4.406  15.408 -0.1037 -1.8801 -0.6504
18319TIP3   OH276371   6.451   5.336   1.214  0.5967 -0.1497 -0.3298
18319TIP3    H176372   6.509   5.346   1.290  2.0852 -0.6125 -1.3639
18319TIP3    H276373   6.375   5.391   1.235  0.1153 -1.6512  2.2837
18320TIP3   OH276374   6.622   0.740  17.228 -0.4687  0.5040 -0.6833
18320TIP3    H176375   6.557   0.670  17.229 -0.9290  0.9290 -0.1469
18320TIP3    H276376   6.703   0.697  17.200 -0.1076 -0.8206  2.0722
18321TIP3   OH276377   2.396   6.749   1.550  0.5497 -0.0397  0.2601
18321TIP3    H176378   2.369   6.661   1.575 -0.9329  0.1454 -0.5746
18321TIP3    H276379   2.407   6.796   1.634 -0.0012 -0.6279  0.6667
18322TIP3   OH276380   1.407   1.328   2.842  0.2413 -0.2344  0.1412
18322TIP3    H176381   1.357   1.251   2.871 -2.3945  0.4648 -2.0400
18322TIP3    H276382   1.475   1.292   2.784 -0.4791 -1.0071 -0.2552
18323TIP3   OH276383   6.438   3.146  11.589  0.1028  0.4824 -0.3944
18323TIP3    H176384   6.444   3.072  11.649  0.7867  0.8571  0.0134
18323TIP3    H276385   6.353   3.137  11.547 -0.0020 -0.2863 -0.0243
18324TIP3   OH276386   3.203   4.813   1.352  0.4636 -0.4725  0.0344
18324TIP3    H176387   3.217   4.864   1.431 -2.5232 -1.7781  1.5533
18324TIP3    H276388   3.240   4.727   1.371  1.0341 -0.3893 -0.6148
18325TIP3   OH276389   4.888   0.733  16.707 -0.1609  0.2177 -0.3090
18325TIP3    H176390   4.800   0.739  16.745 -0.7306 -0.5902 -1.4693
18325TIP3    H276391   4.947   0.739  16.782 -1.2689 -2.5596  0.8970
18326TIP3   OH276392   3.355   4.939   1.183 -0.0126 -0.5362 -0.2503
18326TIP3    H176393   3.295   4.899   1.245 -0.1610 -0.7862 -0.5501
18326TIP3    H276394   3.318   4.918   1.097  0.9664 -1.4600 -0.4727
18327TIP3   OH276395   1.073   0.854  12.810  0.2012 -0.5061 -0.7674
18327TIP3    H176396   1.134   0.782  12.793  3.1299  1.8510 -1.1375
18327TIP3    H276397   1.056   0.891  12.723  1.2486  1.0731 -0.3369
18328TIP3   OH276398   0.252   1.139  12.041 -0.2072 -0.0846 -0.0791
18328TIP3    H176399   0.165   1.173  12.021  0.3349  0.6153 -1.3926
18328TIP3    H276400   0.248   1.047  12.014 -1.0154 -0.5111  1.4118
18329TIP3   OH276401   4.355   1.657   3.792 -0.0426  0.2973 -0.2838
18329TIP3    H176402   4.336   1.733   3.846  0.7843  1.0823 -1.0475
18329TIP3    H276403   4.272   1.634   3.751 -0.4936  0.1948  0.6640
18330TIP3   OH276404   6.733   5.141   3.260  0.2863 -0.3787  0.2266
18330TIP3    H176405   6.658   5.157   3.316  0.0645 -0.5822 -0.0098
18330TIP3    H276406   6.731   5.212   3.196  1.0727  0.3958  1.0174
18331TIP3   OH276407   2.321   1.733   5.244 -0.0784 -0.2127  1.1446
18331TIP3    H176408   2.263   1.791   5.294 -0.6113 -0.0097  0.3168
18331TIP3    H276409   2.408   1.748   5.280 -0.0823  1.6447  0.4876
18332TIP3   OH276410   4.692   3.421  13.388 -0.0707  0.3763 -0.4170
18332TIP3    H176411   4.619   3.409  13.328 -0.4391 -1.0435  0.2731
18332TIP3    H276412   4.762   3.367  13.352  1.0132  2.4479 -1.5898
18333TIP3   OH276413   0.365   3.249   2.633  0.2475 -0.1146  0.3882
18333TIP3    H176414   0.402   3.266   2.719 -0.5732  2.3169  0.3192
18333TIP3    H276415   0.439   3.221   2.579  1.2536  0.8868  1.2271
18334TIP3   OH276416   4.714   5.669  13.664  0.3878  0.3131  0.1433
18334TIP3    H176417   4.734   5.578  13.685  0.5779  0.3662  0.1892
18334TIP3    H276418   4.691   5.709  13.747 -0.7508  0.0442 -0.0168
18335TIP3   OH276419   3.685   1.158   2.434 -0.2826  0.5140  0.2795
18335TIP3    H176420   3.716   1.249   2.429 -1.8710  1.0436 -0.8875
18335TIP3    H276421   3.705   1.131   2.524  1.5611  1.4839  0.2100
18336TIP3   OH276422   5.466   2.454   5.786  0.3846 -0.6645 -0.6147
18336TIP3    H176423   5.453   2.486   5.876  1.8480  2.1909 -1.3086
18336TIP3    H276424   5.400   2.385   5.776 -0.9837  0.0904  2.0675
18337TIP3   OH276425   3.465   6.125   2.481 -0.1472 -0.1777 -1.2483
18337TIP3    H176426   3.376   6.131   2.447  0.0881  3.4196 -1.6339
18337TIP3    H276427   3.457   6.148   2.573  0.3131 -0.6367 -1.0886
18338TIP3   OH276428   2.675   3.281  11.095 -0.0135 -0.1376  0.5357
18338TIP3    H176429   2.654   3.209  11.035 -0.4490  0.4461 -0.0220
18338TIP3    H276430   2.739   3.243  11.156 -1.5603 -1.5667  1.3890
18339TIP3   OH276431   6.405   0.922  16.963 -0.6652 -0.0299  0.0424
18339TIP3    H176432   6.362   0.895  16.882  0.2096 -2.2178  0.2333
18339TIP3    H276433   6.334   0.925  17.028 -0.7625 -3.1311  0.2488
18340TIP3   OH276434   4.506   0.594  15.924  0.5890 -0.6030 -0.7105
18340TIP3    H176435   4.455   0.530  15.973 -0.6104 -0.9212 -2.2959
18340TIP3    H276436   4.564   0.541  15.868 -0.6844 -0.3792 -2.3171
18341TIP3   OH276437   1.999   4.598  16.139  0.2028 -0.1577 -0.3467
18341TIP3    H176438   1.924   4.547  16.168 -0.7875  0.9676 -0.8525
18341TIP3    H276439   2.001   4.675  16.196 -0.3892  0.9247 -1.7201
18342TIP3   OH276440   6.492   5.164  13.833 -0.3216 -0.1195  0.1510
18342TIP3    H176441   6.528   5.223  13.766 -1.7053 -1.5273 -1.9486
18342TIP3    H276442   6.570   5.131  13.879  0.5763  2.0638  0.3431
18343TIP3   OH276443   0.514   0.335  12.297 -0.1003 -0.2315  0.7202
18343TIP3    H176444   0.577   0.317  12.228 -0.3345 -0.2120  0.5006
18343TIP3    H276445   0.474   0.419  12.272 -0.2047 -0.2369  0.8652
18344TIP3   OH276446   5.708   5.973   1.837  0.6612  0.4656 -0.0704
18344TIP3    H176447   5.729   6.062   1.810 -0.0096  0.5446 -0.3554
18344TIP3    H276448   5.651   5.983   1.913  2.1347  0.2487  1.0995
18345TIP3   OH276449   1.591   2.262   5.456  0.2946  0.3296  0.3380
18345TIP3    H176450   1.574   2.300   5.542  0.0176 -0.5094  0.6713
18345TIP3    H276451   1.679   2.226   5.463 -0.3744 -1.2969  0.8843
18346TIP3   OH276452   1.282   4.109  11.257  0.0090  0.6729 -0.2406
18346TIP3    H176453   1.326   4.116  11.342  0.9971  0.2832 -0.6965
18346TIP3    H276454   1.354   4.108  11.193 -0.6407 -0.5102 -0.9853
18347TIP3   OH276455   1.849   6.234  16.482 -0.2278 -0.1524  0.0327
18347TIP3    H176456   1.785   6.274  16.541  0.2185 -0.7911  0.9789
18347TIP3    H276457   1.881   6.157  16.529 -1.0173 -1.6260 -1.7131
18348TIP3   OH276458   3.429   6.726   5.639 -0.7977 -0.1480  0.0237
18348TIP3    H176459   3.357   6.788   5.653  0.2724  1.1597 -0.0524
18348TIP3    H276460   3.472   6.721   5.724  1.6254  2.5371 -0.8684
18349TIP3   OH276461   2.738   2.456  11.354 -0.1334  0.1738 -0.0670
18349TIP3    H176462   2.685   2.508  11.414 -0.1142 -1.7824  1.7675
18349TIP3    H276463   2.829   2.476  11.379  0.0175  1.6704 -1.5830
18350TIP3   OH276464   5.161   3.126   3.559  0.5743 -0.0950 -0.6398
18350TIP3    H176465   5.190   3.057   3.619  0.2975  0.0248 -0.3648
18350TIP3    H276466   5.124   3.193   3.616 -2.4136 -1.2339 -1.0884
18351TIP3   OH276467   3.150   0.631  14.369 -0.8923  0.1573 -0.0888
18351TIP3    H176468   3.164   0.567  14.438 -0.5445  0.1766 -0.1372
18351TIP3    H276469   3.235   0.675  14.359 -1.4110  1.3707  0.6789
18352TIP3   OH276470   5.278   3.380   5.189 -0.0660  0.0155  0.0059
18352TIP3    H176471   5.187   3.407   5.192 -0.0978 -0.1610  0.7696
18352TIP3    H276472   5.309   3.387   5.279  0.8129  0.5323 -0.3212
18353TIP3   OH276473   2.180   4.613   5.558 -0.3875 -0.2285  0.5572
18353TIP3    H176474   2.191   4.548   5.488  2.8794 -0.2828  0.9621
18353TIP3    H276475   2.169   4.696   5.512 -1.0277 -0.5947  0.0259
18354TIP3   OH276476   6.174   4.529   0.874  0.6929  0.4258 -0.1286
18354TIP3    H176477   6.156   4.621   0.856  0.6343  0.4036 -0.1797
18354TIP3    H276478   6.185   4.525   0.969  0.1463  0.3854 -0.0683
18355TIP3   OH276479   0.604   5.308   3.936 -0.2245 -0.1996 -0.1023
18355TIP3    H176480   0.519   5.285   3.898 -0.3746 -2.3273  1.3767
18355TIP3    H276481   0.583   5.346   4.022  0.2258  2.2964 -1.0079
18356TIP3   OH276482   6.743   4.285   1.215 -0.0693  0.4385 -0.2187
18356TIP3    H176483   6.670   4.298   1.275  0.6908  1.9530  0.4313
18356TIP3    H276484   6.777   4.373   1.199  0.4706 -0.0560 -1.9735
18357TIP3   OH276485   4.207   2.385  17.010 -0.0964 -0.3748  0.1658
18357TIP3    H176486   4.141   2.377  16.940 -1.4069  0.5949  1.2381
18357TIP3    H276487   4.156   2.397  17.090  1.3886 -0.2356  1.1325
18358TIP3   OH276488   1.660   3.640   3.772 -0.2304 -1.3752 -0.2305
18358TIP3    H176489   1.753   3.619   3.771 -0.2726 -1.5857  0.0549
18358TIP3    H276490   1.643   3.679   3.686  0.2800 -0.6241 -0.0060
18359TIP3   OH276491   3.143   6.570  14.203 -0.2186  0.1729 -0.2212
18359TIP3    H176492   3.229   6.554  14.165  0.1592  1.5009  0.0492
18359TIP3    H276493   3.158   6.631  14.275 -1.1131 -1.2569  1.2360
18360TIP3   OH276494   6.313   1.461   2.325  0.0980  0.0398 -0.1053
18360TIP3    H176495   6.234   1.411   2.343  0.1468 -0.1155 -0.3152
18360TIP3    H276496   6.290   1.551   2.345  0.3160 -0.1843  1.2601
18361TIP3   OH276497   3.940   5.819   2.409 -0.6797  0.2990  0.3604
18361TIP3    H176498   3.854   5.860   2.407 -0.1209  1.4909 -0.5525
18361TIP3    H276499   3.927   5.732   2.371 -1.4592  0.5210  0.1086
18362TIP3   OH276500   5.481   1.982   4.243  0.5480 -0.5154  0.2867
18362TIP3    H176501   5.457   1.905   4.192 -0.3800  0.0046 -0.0842
18362TIP3    H276502   5.577   1.985   4.238  0.4763  0.0716 -2.2913
18363TIP3   OH276503   6.777   0.242  11.268 -0.2970 -0.2849 -1.1784
18363TIP3    H176504   6.713   0.177  11.240 -1.8163  0.8581 -0.5583
18363TIP3    H276505   6.724   0.321  11.285  1.0941  0.3027  0.7284
18364TIP3   OH276506   3.138   0.832  17.268 -0.1392  0.1407 -0.1115
18364TIP3    H176507   3.209   0.792  17.318  0.1278 -1.2875 -1.5440
18364TIP3    H276508   3.172   0.917  17.242 -0.4043  1.0714  2.3244
18365TIP3   OH276509   0.165   4.982  16.439 -0.1435 -0.3044  0.7437
18365TIP3    H176510   0.123   4.896  16.444 -2.4854  0.8074  1.8846
18365TIP3    H276511   0.158   5.007  16.346 -0.3956 -0.9018  0.5980
18366TIP3   OH276512   3.317   2.826   5.377 -0.4345  0.6875 -0.6291
18366TIP3    H176513   3.274   2.810   5.293  0.2791 -1.2257 -0.6872
18366TIP3    H276514   3.393   2.880   5.356  1.9914 -2.8681 -1.9898
18367TIP3   OH276515   1.518   1.792  14.112  0.0662  0.1590 -0.2049
18367TIP3    H176516   1.585   1.845  14.070 -0.3441  0.3810 -0.5801
18367TIP3    H276517   1.564   1.747  14.183  0.4049  1.0600  0.1579
18368TIP3   OH276518   1.739   0.030  13.177 -0.1729 -0.2954  0.7851
18368TIP3    H176519   1.778   0.078  13.104 -1.9187  1.0416  0.6651
18368TIP3    H276520   1.682  -0.034  13.136 -0.1582 -0.4230  0.9623
18369TIP3   OH276521   3.693   1.215   1.943 -0.2916  0.1831 -0.3945
18369TIP3    H176522   3.646   1.173   1.871 -0.5917  0.2459 -0.2391
18369TIP3    H276523   3.680   1.156   2.017  1.2131 -0.6156 -0.7277
18370TIP3   OH276524   3.597   3.445  13.336 -0.2480  0.2318  0.0516
18370TIP3    H176525   3.604   3.387  13.261  1.6489 -0.6156  0.8004
18370TIP3    H276526   3.539   3.399  13.397  1.1785 -0.9004  0.6064
18371TIP3   OH276527   2.332   5.048   3.664  0.1250 -0.2333 -0.1996
18371TIP3    H176528   2.388   4.988   3.615 -0.7129 -0.9582 -0.3112
18371TIP3    H276529   2.392   5.114   3.699  1.0852 -1.1275 -0.0850
18372TIP3   OH276530   2.124   1.251   4.492 -0.0644  0.6036 -0.2610
18372TIP3    H176531   2.159   1.312   4.427  0.2560  1.0775  0.3438
18372TIP3    H276532   2.033   1.280   4.505 -0.1077  0.5509 -0.4440
18373TIP3   OH276533   0.506   4.133  15.197  0.4212  0.1090 -0.1303
18373TIP3    H176534   0.547   4.076  15.263 -1.0056 -1.1967 -0.3185
18373TIP3    H276535   0.427   4.165  15.240  0.5240  0.9072 -0.5168
18374TIP3   OH276536   2.758   2.751   3.115 -0.1318  0.0857  0.2823
18374TIP3    H176537   2.731   2.661   3.134 -0.6562 -0.2183 -1.7401
18374TIP3    H276538   2.841   2.742   3.069 -0.8721  0.5297 -1.1865
18375TIP3   OH276539   5.528   2.865   4.910  0.0339 -0.2783  0.0285
18375TIP3    H176540   5.504   2.800   4.976 -1.2188 -1.2150 -1.2857
18375TIP3    H276541   5.502   2.825   4.826  2.4622  0.4266 -1.1674
18376TIP3   OH276542   2.221   0.003  16.180 -0.0461  0.5364  0.2714
18376TIP3    H176543   2.208  -0.047  16.260  1.5562 -0.2651  0.0651
18376TIP3    H276544   2.268  -0.056  16.122  1.2534  2.0240 -0.2591
18377TIP3   OH276545   1.888   3.976   2.307 -0.7086  0.0626  0.1505
18377TIP3    H176546   1.951   4.042   2.335  0.2637 -0.6083 -0.3803
18377TIP3    H276547   1.803   4.018   2.317 -0.0633  1.9478 -1.5755
18378TIP3   OH276548   4.769   4.658   0.859 -0.4126 -0.8553 -0.1856
18378TIP3    H176549   4.691   4.712   0.873 -0.4240 -1.1547  0.9811
18378TIP3    H276550   4.835   4.720   0.827 -0.8459 -0.4145 -0.2430
18379TIP3   OH276551   5.062   2.574  11.516 -0.0676 -0.1862 -0.3978
18379TIP3    H176552   5.026   2.528  11.441  0.1298 -0.0596 -0.5709
18379TIP3    H276553   4.989   2.582  11.577 -0.4312  0.3877 -0.8959
18380TIP3   OH276554   2.590   6.711   5.989  0.0294  0.2508  0.0941
18380TIP3    H176555   2.571   6.660   5.910 -0.5838 -1.6693  1.4045
18380TIP3    H276556   2.551   6.797   5.972 -0.0004 -0.0774 -1.7041
18381TIP3   OH276557   2.641   1.451  12.215  0.0615  0.1352  0.1018
18381TIP3    H176558   2.678   1.410  12.137  2.0246  1.9698 -0.0231
18381TIP3    H276559   2.561   1.401  12.234  2.0415 -3.4379 -0.2339
18382TIP3   OH276560   1.883   1.845   2.929  0.2776  0.3313 -0.4084
18382TIP3    H176561   1.882   1.783   2.856  0.5394 -0.8146  0.5266
18382TIP3    H276562   1.816   1.910   2.906 -0.8528 -0.9427 -0.8774
18383TIP3   OH276563   1.039   4.691   0.367  0.1867 -0.2726  0.5301
18383TIP3    H176564   0.947   4.710   0.351 -0.2613 -0.1046  3.0179
18383TIP3    H276565   1.078   4.775   0.391  1.0984 -0.2830 -0.7828
18384TIP3   OH276566   3.693   6.018   0.456  0.7258  0.6956  0.7401
18384TIP3    H176567   3.640   5.940   0.472  2.6825 -0.5827  1.4001
18384TIP3    H276568   3.740   6.000   0.375  0.5766  1.5853  0.4351
18385TIP3   OH276569   6.440   2.978   4.925  0.3213 -0.1008  0.2673
18385TIP3    H176570   6.489   2.897   4.931 -0.4213 -0.7372 -1.5359
18385TIP3    H276571   6.442   3.001   4.832 -0.7623  1.1232  0.5077
18386TIP3   OH276572   5.356   0.812   1.671 -0.5853  0.3643  0.4002
18386TIP3    H176573   5.368   0.824   1.765 -2.1447  1.5769  0.4872
18386TIP3    H276574   5.375   0.899   1.634 -1.0242  0.1729 -0.2819
18387TIP3   OH276575   0.748   3.433   6.030  0.1169 -0.0505 -0.5048
18387TIP3    H176576   0.704   3.420   5.946  1.6496  0.5065 -1.4332
18387TIP3    H276577   0.736   3.526   6.049 -1.0037 -0.3441  0.3924
18388TIP3   OH276578   6.470   6.284   2.463  0.0940 -0.5451  0.6011
18388TIP3    H176579   6.448   6.191   2.469 -0.8951 -0.3078  0.9532
18388TIP3    H276580   6.418   6.317   2.390  1.4641 -0.5234 -0.4035
18389TIP3   OH276581   5.276   6.768   3.999 -0.5363 -0.2734  0.3937
18389TIP3    H176582   5.356   6.813   3.971  0.2982 -1.9819 -0.1306
18389TIP3    H276583   5.278   6.774   4.094  0.8805 -1.2903  0.4620
18390TIP3   OH276584   6.019   3.957   5.107 -0.4375 -0.0546  0.3522
18390TIP3    H176585   6.005   3.870   5.069  1.7685 -0.4342  0.2654
18390TIP3    H276586   5.990   4.017   5.039 -1.3646 -0.7220  0.1404
18391TIP3   OH276587   4.918   2.165  14.539 -0.0144  0.1767 -0.1819
18391TIP3    H176588   4.852   2.097  14.523 -1.1044  0.7170  1.7086
18391TIP3    H276589   4.920   2.215  14.458  0.8074 -2.0355 -1.6358
18392TIP3   OH276590   4.588   1.499   1.794 -0.2886  0.0077  0.3474
18392TIP3    H176591   4.631   1.432   1.741  0.2632  0.5592  0.0910
18392TIP3    H276592   4.544   1.556   1.731 -0.4070  0.1342  0.5405
18393TIP3   OH276593   5.834   4.073  17.269 -0.3867  0.9136 -0.2830
18393TIP3    H176594   5.845   4.147  17.209 -0.6437  1.9374  0.8900
18393TIP3    H276595   5.754   4.093  17.318  0.0302  0.3204  0.6752
18394TIP3   OH276596   6.162   5.795   5.669  0.3330 -0.5990 -0.2795
18394TIP3    H176597   6.119   5.852   5.605 -0.5332 -0.9578 -0.0366
18394TIP3    H276598   6.134   5.830   5.754  0.6643 -0.7403 -0.1120
18395TIP3   OH276599   6.615   0.007   6.531 -0.2652 -0.5852  0.2017
18395TIP3    H176600   6.699   0.003   6.576 -0.8014 -2.4012  1.1110
18395TIP3    H276601   6.628  -0.044   6.451  0.2012  1.2855 -1.0027
18396TIP3   OH276602   5.021   1.106  12.584  0.0042 -0.3087  0.1295
18396TIP3    H176603   4.984   1.067  12.506 -0.1850  0.5920 -0.2438
18396TIP3    H276604   4.950   1.159  12.621 -0.1826 -1.3678  1.3858
18397TIP3   OH276605   0.232   1.043   1.903 -0.3589  0.4385  0.1859
18397TIP3    H176606   0.271   1.101   1.968  0.4386 -0.1191  0.2211
18397TIP3    H276607   0.185   0.978   1.954  0.9977 -0.5232  0.2819
18398TIP3   OH276608   2.787   5.408  15.760  0.0295  0.3575 -0.1137
18398TIP3    H176609   2.706   5.406  15.811 -0.0932 -0.0240 -0.3211
18398TIP3    H276610   2.839   5.477  15.801 -0.8238  1.3378 -0.6381
18399TIP3   OH276611   4.432   0.726   6.799  0.1843 -0.3259 -0.2643
18399TIP3    H176612   4.400   0.816   6.791 -0.1170 -0.3273  0.7415
18399TIP3    H276613   4.511   0.723   6.745  0.3199  0.5988 -0.1267
18400TIP3   OH276614   3.280   1.054  14.088  0.2138 -0.4388  0.2907
18400TIP3    H176615   3.352   1.109  14.056  0.3660  0.1697  1.6118
18400TIP3    H276616   3.206   1.114  14.096 -0.1023 -0.8036  0.1111
18401TIP3   OH276617   2.280   5.565   4.372  0.1329  0.6003  0.4483
18401TIP3    H176618   2.336   5.536   4.300  0.2769  1.1345  0.3439
18401TIP3    H276619   2.265   5.658   4.355  0.1709  0.7336  1.1096
18402TIP3   OH276620   2.375   0.152  11.763 -0.9382  0.3931  0.0761
18402TIP3    H176621   2.456   0.204  11.757 -0.3140 -0.5115  0.5264
18402TIP3    H276622   2.317   0.192  11.699  0.5614 -0.1532 -1.7099
18403TIP3   OH276623   1.616   3.131   4.959 -0.3424 -0.2861  0.0924
18403TIP3    H176624   1.679   3.060   4.968 -0.4286 -0.3804 -0.0434
18403TIP3    H276625   1.571   3.134   5.043 -0.8058 -0.8407 -0.1289
18404TIP3   OH276626   4.502   2.655   4.747 -0.3738 -0.1133  0.1547
18404TIP3    H176627   4.520   2.690   4.659 -0.1494 -1.2054 -0.2460
18404TIP3    H276628   4.512   2.731   4.805  0.3861  0.4247 -0.6514
18405TIP3   OH276629   1.445   0.407  16.170 -1.0172  0.7917  0.2001
18405TIP3    H176630   1.491   0.444  16.245  0.1659  0.7237 -0.4739
18405TIP3    H276631   1.379   0.474  16.148  0.0115  1.7693  0.0013
18406TIP3   OH276632   5.757   0.794  12.382  0.0838 -0.3009  0.1564
18406TIP3    H176633   5.723   0.875  12.419 -1.0043  0.1853 -1.7830
18406TIP3    H276634   5.796   0.820  12.298  1.3190 -1.5332  0.2991
18407TIP3   OH276635   4.903   1.261   3.905  0.0066  0.7328  0.2402
18407TIP3    H176636   4.967   1.268   3.835  1.2322 -0.6890  1.1479
18407TIP3    H276637   4.954   1.236   3.982 -1.4965  0.7124  1.2741
18408TIP3   OH276638   5.369   4.946  16.110  0.0154  0.2797  0.3776
18408TIP3    H176639   5.303   5.001  16.067  0.2823  0.4952  0.2426
18408TIP3    H276640   5.392   4.993  16.189 -0.9233 -0.4117  1.0868
18409TIP3   OH276641   6.070   4.449  11.092 -0.5208 -0.0925 -0.5792
18409TIP3    H176642   6.008   4.449  11.165 -0.9298  0.6936 -0.9185
18409TIP3    H276643   6.131   4.378  11.113 -2.2602 -1.7662 -0.8622
18410TIP3   OH276644   5.934   6.414   1.972 -0.0003 -0.1052 -0.5084
18410TIP3    H176645   5.902   6.501   1.946  0.9592 -0.1552 -1.9919
18410TIP3    H276646   6.004   6.433   2.035  2.3185  0.4596 -3.0451
18411TIP3   OH276647   0.938   2.275  17.288 -0.3381  0.3453  0.3182
18411TIP3    H176648   0.951   2.363  17.323  0.8850 -0.1598  1.2135
18411TIP3    H276649   0.966   2.217  17.359 -1.6482 -0.7958 -0.0364
18412TIP3   OH276650   3.524   2.168  13.861 -0.1350 -0.1142 -0.0695
18412TIP3    H176651   3.508   2.074  13.861 -1.7450  0.0806  1.6592
18412TIP3    H276652   3.520   2.193  13.954  0.7124  1.5852 -0.4452
18413TIP3   OH276653   2.926   1.333  12.953  0.5530  0.3663 -0.1665
18413TIP3    H176654   2.931   1.242  12.984 -0.0882 -0.0737 -1.3082
18413TIP3    H276655   2.903   1.383  13.031  0.2197 -0.5410  0.3386
18414TIP3   OH276656   6.323   4.458   1.096 -0.1578  0.1900 -0.2030
18414TIP3    H176657   6.415   4.480   1.080 -0.0838 -0.5861 -0.9649
18414TIP3    H276658   6.317   4.364   1.074 -1.3180  0.4342 -1.0357
18415TIP3   OH276659   5.502   6.367  11.952 -0.6394  0.2513  0.4099
18415TIP3    H176660   5.490   6.450  11.999 -1.6923  1.3880 -1.7487
18415TIP3    H276661   5.422   6.357  11.900 -0.0172 -1.5462 -0.2796
18416TIP3   OH276662   2.398   4.087   5.601  0.2783  0.8181 -0.1956
18416TIP3    H176663   2.453   4.012   5.577  0.7348  0.8551  0.7127
18416TIP3    H276664   2.363   4.118   5.517  2.6408  1.5917 -0.9690
18417TIP3   OH276665   4.150   5.729  13.961  0.1402  0.5074 -0.4711
18417TIP3    H176666   4.150   5.700  14.053 -3.1322  0.9172 -0.2186
18417TIP3    H276667   4.099   5.810  13.962  1.5505  1.4793 -2.4465
18418TIP3   OH276668   5.752   6.782   3.160 -0.6071 -0.2036 -0.7825
18418TIP3    H176669   5.744   6.780   3.256 -0.1558  1.2299 -0.6923
18418TIP3    H276670   5.836   6.824   3.144 -0.4786 -0.8332 -1.8231
18419TIP3   OH276671   1.390   0.286   1.647 -0.3564 -0.5155 -0.0598
18419TIP3    H176672   1.306   0.258   1.610  0.2695 -2.7163  0.0540
18419TIP3    H276673   1.381   0.381   1.656 -1.4832 -0.1752 -3.4192
18420TIP3   OH276674   4.269   5.136  14.278  0.7167  0.4855  0.1798
18420TIP3    H176675   4.185   5.146  14.323  0.8709  1.5285  0.2556
18420TIP3    H276676   4.302   5.051  14.308 -0.8351 -0.5056 -0.7541
18421TIP3   OH276677   1.192   6.384   2.351  0.2637  0.0149 -0.3303
18421TIP3    H176678   1.218   6.438   2.276  0.4235  0.2503 -0.1056
18421TIP3    H276679   1.196   6.443   2.426 -0.5411 -0.0490 -0.2338
18422TIP3   OH276680   4.481   0.153   4.017  0.2456  0.6073  0.0207
18422TIP3    H176681   4.490   0.119   3.928 -1.3115  0.6356 -0.1772
18422TIP3    H276682   4.445   0.241   4.006 -1.7978 -0.0803  0.6710
18423TIP3   OH276683   5.135   5.558   2.901 -0.5003  0.3013  0.3238
18423TIP3    H176684   5.216   5.573   2.853  1.8560  2.9969  4.5485
18423TIP3    H276685   5.078   5.630   2.876 -0.0279  0.6372  0.2077
18424TIP3   OH276686   0.425   0.534   2.447  0.1303 -0.5588  0.4198
18424TIP3    H176687   0.430   0.530   2.351  1.6498 -1.6169  0.4969
18424TIP3    H276688   0.343   0.579   2.465 -0.2154 -0.3808 -1.3820
18425TIP3   OH276689   6.592   0.809  13.822 -0.3776  0.1205  0.0431
18425TIP3    H176690   6.658   0.813  13.891  0.0446 -0.2341 -0.3298
18425TIP3    H276691   6.641   0.781  13.745 -1.0729 -0.7075 -0.1018
18426TIP3   OH276692   4.594   1.041   0.108  0.0806  0.7019  0.0405
18426TIP3    H176693   4.584   1.110   0.042 -0.4241  1.4588  0.8846
18426TIP3    H276694   4.585   0.959   0.059  1.0020  1.2156 -1.0319
18427TIP3   OH276695   5.998   4.392   5.285 -0.1449 -0.1121 -0.8508
18427TIP3    H176696   6.015   4.410   5.192  0.8553  2.4772 -0.2312
18427TIP3    H276697   6.074   4.341   5.313 -0.1093 -0.2941 -1.2594
18428TIP3   OH276698   3.506   5.920  12.064 -0.5925 -0.4584  0.5969
18428TIP3    H176699   3.514   5.833  12.103 -0.1922 -0.7264 -0.0685
18428TIP3    H276700   3.412   5.935  12.055 -0.7032 -0.2755  1.9093
18429TIP3   OH276701   0.412   5.476   2.586  0.5290 -0.0764 -0.8156
18429TIP3    H176702   0.427   5.381   2.585 -1.9151 -0.5309  0.1433
18429TIP3    H276703   0.358   5.493   2.509 -0.6683  0.2026  0.0644
18430TIP3   OH276704   5.139   4.214  13.505 -0.0119  0.1570 -0.2156
18430TIP3    H176705   5.173   4.134  13.546 -3.0198 -1.8298 -1.2080
18430TIP3    H276706   5.049   4.221  13.538  0.2004  3.3497  0.0118
18431TIP3   OH276707   6.452   2.693  12.490 -0.2861 -0.2745 -0.0553
18431TIP3    H176708   6.387   2.717  12.557 -1.0763  0.1695 -0.9620
18431TIP3    H276709   6.415   2.616  12.447 -0.2947  0.0595 -0.6635
18432TIP3   OH276710   0.830   1.138  13.170  0.0125  0.1144 -0.2734
18432TIP3    H176711   0.919   1.135  13.134 -0.0752 -1.3344 -0.4417
18432TIP3    H276712   0.803   1.229  13.161  1.9185  0.8616  0.8962
18433TIP3   OH276713   6.631   4.775  10.620  0.7268 -0.2905 -0.2109
18433TIP3    H176714   6.544   4.744  10.646 -1.1273  0.8472 -4.1863
18433TIP3    H276715   6.677   4.697  10.591 -0.4011 -0.5198 -1.4695
18434TIP3   OH276716   4.395   3.482   4.176  0.0896 -0.4792 -0.6354
18434TIP3    H176717   4.481   3.455   4.209  1.1061  0.4326 -2.3589
18434TIP3    H276718   4.362   3.404   4.131  1.8795  0.2396 -3.4245
18435TIP3   OH276719   5.492   6.325   2.552 -0.3261  0.7791  0.0281
18435TIP3    H176720   5.515   6.414   2.524 -2.9206  1.7088  0.5416
18435TIP3    H276721   5.452   6.285   2.474 -0.8201  0.7278  0.3028
18436TIP3   OH276722   5.839   6.750  13.802 -0.5132  0.6307  0.5118
18436TIP3    H176723   5.840   6.655  13.796 -2.6666  0.5235  1.1656
18436TIP3    H276724   5.892   6.780  13.728  0.8409 -1.0524  0.7405
18437TIP3   OH276725   1.034   5.686   4.414 -0.3987 -0.1756 -0.3097
18437TIP3    H176726   0.947   5.714   4.443 -0.2547 -0.2312  0.1784
18437TIP3    H276727   1.022   5.664   4.321 -1.3008 -1.8698  0.1630
18438TIP3   OH276728   6.367   4.409  15.206 -0.1361 -0.1350  0.6936
18438TIP3    H176729   6.297   4.346  15.189 -1.0181  0.6717  1.2346
18438TIP3    H276730   6.321   4.487  15.240  0.9305  0.7490  0.1508
18439TIP3   OH276731   6.735   4.694  13.718 -0.5932 -0.4538 -0.3963
18439TIP3    H176732   6.675   4.755  13.761  1.2068 -0.2256  1.9794
18439TIP3    H276733   6.678   4.638  13.665 -2.5674  1.5392 -0.5147
18440TIP3   OH276734   0.691   4.742  15.235 -0.4308  0.4985 -0.3728
18440TIP3    H176735   0.742   4.719  15.313  0.7591 -0.4668 -1.3804
18440TIP3    H276736   0.673   4.835  15.244  1.6310  0.9094  0.0045
18441TIP3   OH276737   0.071   3.841  13.685  0.3093  0.4894 -0.5144
18441TIP3    H176738   0.007   3.795  13.631 -0.5336 -0.3121  1.0906
18441TIP3    H276739   0.083   3.784  13.761 -0.8739  2.9162  1.6546
18442TIP3   OH276740   5.202   6.281  16.650  0.3684  0.2579 -0.0794
18442TIP3    H176741   5.154   6.362  16.632 -1.7669 -1.0036 -0.4431
18442TIP3    H276742   5.282   6.288  16.598  0.4129  2.2582  0.1875
18443TIP3   OH276743   6.530   4.344   0.086  0.3371 -0.1865  0.3798
18443TIP3    H176744   6.502   4.425   0.129 -1.4325 -0.3829 -0.3381
18443TIP3    H276745   6.590   4.373   0.017  0.9639  0.3584  1.1363
18444TIP3   OH276746   4.083   5.084  14.997  0.2387 -0.3847  0.4008
18444TIP3    H176747   4.078   5.172  15.034 -1.2025 -0.1277 -0.3241
18444TIP3    H276748   4.032   5.089  14.916  0.6992 -1.7207 -0.0046
18445TIP3   OH276749   4.132   0.394   2.893  0.4336 -0.0176 -0.0818
18445TIP3    H176750   4.094   0.315   2.931 -0.1409 -0.0142 -0.6218
18445TIP3    H276751   4.084   0.466   2.933  0.2323  0.0092 -0.3657
18446TIP3   OH276752   1.862   5.976  12.631 -0.3454 -0.2888 -0.1452
18446TIP3    H176753   1.954   5.960  12.652  0.0402 -0.4550 -1.7880
18446TIP3    H276754   1.861   6.067  12.600 -0.8588 -0.0833  0.4546
18447TIP3   OH276755   3.366   1.216  16.003  0.4564 -0.3328  0.1055
18447TIP3    H176756   3.420   1.295  15.991 -0.0619 -0.0615 -0.4937
18447TIP3    H276757   3.307   1.216  15.928 -0.2084 -0.7663  0.6204
18448TIP3   OH276758   4.786   2.989   5.984 -0.5290 -0.4391  0.3243
18448TIP3    H176759   4.774   2.912   5.928  2.2702 -0.8897  0.1857
18448TIP3    H276760   4.801   3.061   5.923  1.9660 -0.8280  0.3664
18449TIP3   OH276761   5.699   5.041   5.999 -0.4250 -0.8477 -0.1491
18449TIP3    H176762   5.715   5.063   5.907  1.2492 -0.0950  0.2896
18449TIP3    H276763   5.658   5.119   6.036 -0.6560 -0.9713 -0.1432
18450TIP3   OH276764   0.405   5.187   3.032  0.4055 -0.0337 -0.4092
18450TIP3    H176765   0.430   5.254   3.096  1.6914  0.0075 -0.9308
18450TIP3    H276766   0.404   5.233   2.948  1.7758 -0.7516 -0.8420
18451TIP3   OH276767   2.497   0.317   3.379 -0.0990  0.3171 -0.4042
18451TIP3    H176768   2.428   0.325   3.445 -0.1093 -2.1145 -0.0162
18451TIP3    H276769   2.563   0.381   3.404 -0.8172  0.5341  1.0381
18452TIP3   OH276770   1.779   2.664  11.529  0.7574 -0.1604 -0.5327
18452TIP3    H176771   1.848   2.709  11.482 -0.0136  1.2138 -0.3969
18452TIP3    H276772   1.821   2.633  11.610  1.0858  1.1820 -0.1686
18453TIP3   OH276773   2.175   5.994  16.529 -0.1394 -0.6300  0.4408
18453TIP3    H176774   2.269   5.978  16.532  0.2970 -0.5189 -4.1824
18453TIP3    H276775   2.168   6.086  16.500 -1.6233 -0.7721  0.2699
18454TIP3   OH276776   3.543   3.248  13.962  0.4680  1.1837  0.0205
18454TIP3    H176777   3.580   3.334  13.982 -0.2323  1.6974 -0.8250
18454TIP3    H276778   3.451   3.255  13.986  0.0223  1.2403 -1.5805
18455TIP3   OH276779   3.706   6.413   0.037 -0.8849  0.8675  0.0376
18455TIP3    H176780   3.788   6.364   0.041 -0.1642  2.1069  1.7061
18455TIP3    H276781   3.732   6.501   0.011 -1.7421  1.2065  0.3040
18456TIP3   OH276782   0.731   3.547   4.979  0.0851  0.1559  0.0337
18456TIP3    H176783   0.669   3.478   4.955 -3.5921  3.1982 -0.2159
18456TIP3    H276784   0.679   3.610   5.028  3.2135  2.7296  0.3860
18457TIP3   OH276785   2.934   1.439   4.460 -0.4385  0.6076  0.8906
18457TIP3    H176786   2.955   1.346   4.462 -0.0181  0.6972  0.7922
18457TIP3    H276787   2.839   1.443   4.470 -1.0047 -0.0155 -2.8832
18458TIP3   OH276788   4.044   1.382   2.707  0.4845 -0.7792 -0.2684
18458TIP3    H176789   3.969   1.441   2.704  1.4318  0.5018  0.3330
18458TIP3    H276790   4.043   1.347   2.796  0.9025 -0.3510 -0.0945
18459TIP3   OH276791   4.852   1.645   5.851 -0.2081 -0.0014  0.2727
18459TIP3    H176792   4.823   1.557   5.826 -0.9878  0.9792 -2.5693
18459TIP3    H276793   4.785   1.675   5.912 -2.4274  0.1855 -2.1024
18460TIP3   OH276794   1.136   5.270   3.599 -0.4046 -0.6393 -0.3886
18460TIP3    H176795   1.075   5.344   3.605  1.1996  0.8304 -1.1399
18460TIP3    H276796   1.215   5.300   3.643  1.5398 -0.4393 -3.6538
18461TIP3   OH276797   0.249   2.418   4.681 -0.3772  0.2693  0.4659
18461TIP3    H176798   0.282   2.394   4.595 -2.6124  1.0105 -0.6934
18461TIP3    H276799   0.155   2.432   4.667 -0.7061  0.9562  2.9129
18462TIP3   OH276800   1.197   6.466  15.821 -0.3074  0.4498  0.4286
18462TIP3    H176801   1.215   6.553  15.857  0.9851 -0.2865  1.6300
18462TIP3    H276802   1.216   6.475  15.727 -1.0353  1.6676  0.3766
18463TIP3   OH276803   2.003   1.195  12.320 -0.7430 -0.8721  0.6490
18463TIP3    H176804   2.008   1.141  12.241 -1.2354  0.9648 -0.7127
18463TIP3    H276805   1.915   1.180  12.355 -0.6989 -1.3138  0.5738
18464TIP3   OH276806   0.098   3.086   0.496  0.5108  0.6348  0.1025
18464TIP3    H176807   0.185   3.049   0.491  0.6896  0.7017  1.9642
18464TIP3    H276808   0.067   3.065   0.585 -1.0210  1.3366 -0.2173
18465TIP3   OH276809   2.955   6.036   4.391  0.0362  0.3182  0.2622
18465TIP3    H176810   2.863   6.060   4.397 -0.6807 -0.5453 -3.8227
18465TIP3    H276811   2.967   5.967   4.457 -1.9904  1.0108  1.4225
18466TIP3   OH276812   2.941   1.285   5.618  0.3877 -0.0677 -0.1959
18466TIP3    H176813   2.870   1.238   5.576 -1.4542  1.4444  1.0694
18466TIP3    H276814   2.962   1.233   5.696  0.2996 -0.2120 -0.2683
18467TIP3   OH276815   3.766   4.085  12.586  0.0084 -0.0538  0.3550
18467TIP3    H176816   3.750   4.062  12.495 -0.2902  0.6018  0.2407
18467TIP3    H276817   3.751   4.004  12.634  2.6103 -1.1191 -0.4094
18468TIP3   OH276818   5.545   1.480  15.953  0.3599 -0.0517  0.2135
18468TIP3    H176819   5.459   1.472  15.994  0.0860  1.6601  0.0495
18468TIP3    H276820   5.583   1.559  15.992  0.9923  0.3700 -1.1970
18469TIP3   OH276821   1.457   0.299  16.904  0.8453  0.1926  0.3415
18469TIP3    H176822   1.511   0.221  16.914 -0.3197 -0.9544 -1.6741
18469TIP3    H276823   1.420   0.314  16.991 -1.5556 -3.5819  0.1641
18470TIP3   OH276824   3.914   4.071   5.620 -0.4165  0.0019  0.5780
18470TIP3    H176825   4.000   4.072   5.578 -0.2833 -1.1133  0.8049
18470TIP3    H276826   3.932   4.059   5.713 -0.8098 -0.2354  0.6260
18471TIP3   OH276827   5.332   5.882  16.706 -0.6544 -0.1328 -0.2078
18471TIP3    H176828   5.299   5.805  16.752  0.9760 -0.7871 -0.0761
18471TIP3    H276829   5.371   5.936  16.775 -1.2293  0.5357 -0.3866
18472TIP3   OH276830   3.705   5.316   3.349  0.0095  0.0198 -0.3399
18472TIP3    H176831   3.784   5.263   3.361 -0.4301 -0.3248  1.3428
18472TIP3    H276832   3.633   5.255   3.365 -0.6354  0.2973 -1.9862
18473TIP3   OH276833   3.668   3.403   0.957  0.2430  0.7955  0.2014
18473TIP3    H176834   3.608   3.437   0.891  1.0186  0.9201 -0.4567
18473TIP3    H276835   3.755   3.411   0.917  0.6462  0.0890  0.9046
18474TIP3   OH276836   2.578   5.539  12.323  0.0200  0.6611 -1.2723
18474TIP3    H176837   2.659   5.533  12.273  0.6852  0.0654 -0.1783
18474TIP3    H276838   2.575   5.630  12.354  2.0800 -0.0651  1.4679
18475TIP3   OH276839   5.982   0.591   1.111  0.3143  0.5120 -0.1274
18475TIP3    H176840   5.888   0.601   1.096 -0.1171 -0.2211  1.8367
18475TIP3    H276841   6.023   0.642   1.040 -1.5610  2.0383 -0.1916
18476TIP3   OH276842   3.752   0.515   1.527 -0.6510 -0.2470  0.1672
18476TIP3    H176843   3.814   0.586   1.544  1.2335 -1.4517 -1.3507
18476TIP3    H276844   3.741   0.472   1.612 -0.9040  1.0876  0.8475
18477TIP3   OH276845   3.933   2.001  11.114  0.2073  0.1575 -0.2493
18477TIP3    H176846   3.896   2.054  11.044 -3.8912 -2.1204 -0.0865
18477TIP3    H276847   3.975   1.928  11.069  0.8115  0.5533 -0.3454
18478TIP3   OH276848   5.557   2.221   5.365 -0.0723  0.1922 -0.3163
18478TIP3    H176849   5.562   2.172   5.283 -0.4864 -1.0242  0.3618
18478TIP3    H276850   5.569   2.313   5.339  0.6843 -0.2485 -1.6195
18479TIP3   OH276851   3.893   3.866  12.753  0.3855  0.0212 -0.3850
18479TIP3    H176852   3.921   3.818  12.831  1.1774  2.0036  0.6226
18479TIP3    H276853   3.907   3.805  12.681  1.5011 -1.1889  0.7970
18480TIP3   OH276854   6.496   1.107  14.671  0.1553 -0.0192 -0.2196
18480TIP3    H176855   6.534   1.194  14.661 -0.8228  0.4227 -0.2235
18480TIP3    H276856   6.463   1.085  14.584  0.7248 -0.5654 -0.3074
18481TIP3   OH276857   1.664   0.159  17.028  0.6097  0.1437 -0.0368
18481TIP3    H176858   1.729   0.128  16.966 -0.9628 -0.8256 -1.2887
18481TIP3    H276859   1.714   0.210  17.092  2.6713 -1.1830 -0.4949
18482TIP3   OH276860   2.955   6.328   0.792 -0.3343 -0.0477  0.1819
18482TIP3    H176861   2.949   6.235   0.813  1.2810 -0.3957 -0.7342
18482TIP3    H276862   2.917   6.335   0.705  2.0258 -0.4122 -0.9816
18483TIP3   OH276863   0.017   3.574  14.468  0.5637 -0.9341 -0.3893
18483TIP3    H176864   0.104   3.537  14.484  0.4769 -0.4023  1.5786
18483TIP3    H276865  -0.043   3.506  14.498  0.3906  0.1157  1.8533
18484TIP3   OH276866   1.682   1.965   5.739  0.3285  0.7786 -0.1883
18484TIP3    H176867   1.602   1.974   5.686 -0.8511  0.9875  1.5400
18484TIP3    H276868   1.719   2.053   5.741  1.3432  0.4523 -2.0058
18485TIP3   OH276869   5.401   3.590  14.568 -0.1291 -0.5746  0.0268
18485TIP3    H176870   5.330   3.527  14.569 -1.0070  0.3587  2.1889
18485TIP3    H276871   5.358   3.675  14.553  0.1943  0.2449  3.1257
18486TIP3   OH276872   5.019   6.129   2.650 -0.0086  0.2150 -0.5972
18486TIP3    H176873   4.961   6.070   2.602  2.1373  0.3499 -3.6488
18486TIP3    H276874   5.024   6.091   2.738 -2.4067 -1.3599 -1.0442
18487TIP3   OH276875   5.551   4.835  12.847  0.7984 -0.9231 -0.4225
18487TIP3    H176876   5.582   4.814  12.935 -1.4781 -1.4771  0.3207
18487TIP3    H276877   5.494   4.911  12.859  1.2037 -0.4240 -1.5793
18488TIP3   OH276878   1.304   1.120  14.848 -0.3576  0.0947 -0.4374
18488TIP3    H176879   1.323   1.053  14.782  0.3384 -0.3245  0.1826
18488TIP3    H276880   1.329   1.080  14.931 -0.5531  0.8858  0.0117
18489TIP3   OH276881   4.992   5.867  16.904  0.2707 -0.0023  0.4018
18489TIP3    H176882   5.007   5.932  16.835 -0.7487  0.0104  0.1801
18489TIP3    H276883   4.962   5.917  16.979 -1.2410 -0.2438  0.0033
18490TIP3   OH276884   5.237   2.416  11.650  0.6317  0.2269 -0.3241
18490TIP3    H176885   5.173   2.349  11.675  1.2447 -0.0422  0.5654
18490TIP3    H276886   5.187   2.477  11.595  0.0772 -0.9731 -1.1812
18491TIP3   OH276887   0.501   2.279   0.331  0.4669 -0.0448  0.1282
18491TIP3    H176888   0.455   2.360   0.352 -0.8658 -0.2853 -1.5889
18491TIP3    H276889   0.516   2.237   0.415 -2.3261  0.1565  0.8141
18492TIP3   OH276890   4.915   4.409  15.293  0.0832  0.7597 -0.4863
18492TIP3    H176891   4.981   4.469  15.259  0.7769  0.4396  0.2580
18492TIP3    H276892   4.849   4.403  15.224  0.4065  1.7501 -0.8910
18493TIP3   OH276893   4.770   2.183   4.227 -0.2167 -0.1262 -0.0644
18493TIP3    H176894   4.748   2.267   4.186 -0.6795  0.0566  0.5549
18493TIP3    H276895   4.706   2.172   4.296 -0.4623 -1.2339 -0.4505
18494TIP3   OH276896   5.121   1.601   2.116  0.2959  0.3334  0.1167
18494TIP3    H176897   5.167   1.533   2.067  0.6719  0.1054  0.7721
18494TIP3    H276898   5.176   1.617   2.193  0.3228  1.5352 -0.1355
18495TIP3   OH276899   0.485   3.655   4.531  0.1333 -0.1783 -0.4877
18495TIP3    H176900   0.461   3.734   4.579  0.3390 -0.6784  0.4660
18495TIP3    H276901   0.416   3.644   4.467 -0.0640  0.6009 -0.4144
18496TIP3   OH276902   0.642   6.478   2.157  0.4695  0.3770  0.2590
18496TIP3    H176903   0.611   6.568   2.156 -2.7855 -0.4302  3.7141
18496TIP3    H276904   0.712   6.476   2.222  0.2687  0.3813  0.4779
18497TIP3   OH276905   4.540   0.947   1.911  0.0007 -0.0350 -0.1215
18497TIP3    H176906   4.544   0.863   1.864  2.7168  0.8268 -1.6896
18497TIP3    H276907   4.501   1.008   1.848  0.7451  0.4698 -0.1091
18498TIP3   OH276908   6.485   1.819   1.903  0.4055  0.4740  0.1474
18498TIP3    H176909   6.434   1.873   1.842  0.9425  0.9887  0.1391
18498TIP3    H276910   6.419   1.768   1.951  0.0103 -0.5596 -1.4204
18499TIP3   OH276911   4.297   5.810   3.413 -0.1402  0.3040  0.7880
18499TIP3    H176912   4.231   5.817   3.482 -0.9061  0.7339  0.0422
18499TIP3    H276913   4.246   5.794   3.333  0.7677 -0.9226  0.4230
18500TIP3   OH276914   4.583   0.427  16.168  0.0188  0.2782 -0.1237
18500TIP3    H176915   4.585   0.334  16.188  0.5024  0.0819 -1.0207
18500TIP3    H276916   4.490   0.451  16.169 -0.1334 -0.3068 -0.3308
18501TIP3   OH276917   3.434   2.418  13.085  0.5984  0.0707  0.0348
18501TIP3    H176918   3.364   2.462  13.133  1.6197  1.3693  0.3733
18501TIP3    H276919   3.487   2.376  13.153  0.5369 -0.3526 -0.1735
18502TIP3   OH276920   5.095   5.722   3.619 -0.2621  0.3059 -0.1516
18502TIP3    H176921   5.133   5.729   3.531 -1.5440  0.1921 -0.7395
18502TIP3    H276922   5.112   5.632   3.646  0.4824  0.4535 -0.1056
18503TIP3   OH276923   5.818   5.502   4.338  0.3308  0.0337  0.0715
18503TIP3    H176924   5.734   5.525   4.297  0.3429 -0.2166 -0.0981
18503TIP3    H276925   5.873   5.475   4.265  0.3532 -0.4149  0.2510
18504TIP3   OH276926   3.260   3.162   3.191 -0.0532  0.0301  0.1004
18504TIP3    H176927   3.216   3.246   3.203 -0.6795 -0.4603  1.4129
18504TIP3    H276928   3.345   3.174   3.233  0.5937  0.5501 -1.2796
18505TIP3   OH276929   6.372   3.104  13.452 -0.1227  0.0299  0.1346
18505TIP3    H176930   6.441   3.066  13.398  0.3818  2.1339 -0.8162
18505TIP3    H276931   6.310   3.033  13.466  1.9201 -1.7701  0.5257
18506TIP3   OH276932   6.141   1.273   5.347 -0.3702  0.2253 -0.4620
18506TIP3    H176933   6.056   1.293   5.386 -0.7377 -0.7621 -0.7209
18506TIP3    H276934   6.205   1.306   5.409 -0.9291  1.6669 -0.6116
18507TIP3   OH276935   3.581   2.238  15.438  0.3761  0.0970 -0.4762
18507TIP3    H176936   3.603   2.313  15.384  3.7364  0.3973  1.0849
18507TIP3    H276937   3.613   2.162  15.390  0.4755  0.0400 -0.3210
18508TIP3   OH276938   1.348   1.598  13.179  0.0307 -0.0075  0.2161
18508TIP3    H176939   1.329   1.659  13.250 -0.3466  1.0580 -0.7792
18508TIP3    H276940   1.332   1.647  13.099  0.0329 -1.3170 -0.6249
18509TIP3   OH276941   2.678   2.553  13.564 -0.1100 -0.1078  0.7379
18509TIP3    H176942   2.728   2.474  13.584 -1.4759 -1.0478  0.6057
18509TIP3    H276943   2.620   2.565  13.639  0.0500  0.7545  0.7356
18510TIP3   OH276944   3.742   4.530  15.917 -0.0316 -0.1680 -0.3276
18510TIP3    H176945   3.665   4.505  15.969 -0.0542  3.8963  1.9772
18510TIP3    H276946   3.812   4.539  15.980  1.4263 -0.2126 -1.8650
18511TIP3   OH276947   4.181   3.647  11.495 -0.3866  0.0112  0.2110
18511TIP3    H176948   4.165   3.741  11.505 -0.8886  0.0309 -0.6905
18511TIP3    H276949   4.115   3.618  11.431 -1.9535 -1.4559  2.3523
18512TIP3   OH276950   4.561   1.007  14.103  0.4919  0.0703 -0.2466
18512TIP3    H176951   4.599   0.974  14.022  0.2335  0.6500 -0.6111
18512TIP3    H276952   4.634   1.048  14.150  0.4550  0.6094 -0.6461
18513TIP3   OH276953   4.922   1.317  11.777  0.5738 -0.4350 -0.1975
18513TIP3    H176954   4.969   1.239  11.806  0.0622 -0.8780 -0.5355
18513TIP3    H276955   4.946   1.385  11.840 -0.7429 -1.4300  1.4508
18514TIP3   OH276956   4.474   1.109   3.805 -0.0704  0.1797 -0.4590
18514TIP3    H176957   4.470   1.204   3.800  0.5737  0.1915 -0.7564
18514TIP3    H276958   4.422   1.087   3.883  0.8260  0.8659  0.3572
18515TIP3   OH276959   1.150   1.074   0.777 -0.1715 -0.4186 -0.2944
18515TIP3    H176960   1.073   1.062   0.721  0.6819 -3.8370 -0.9993
18515TIP3    H276961   1.188   1.157   0.748 -2.2278  0.1208 -1.6514
18516TIP3   OH276962   1.207   3.443   2.079 -0.3290  0.1593 -0.1936
18516TIP3    H176963   1.225   3.521   2.132  0.7987  0.9299 -1.6501
18516TIP3    H276964   1.176   3.378   2.143 -0.1194  1.3998  1.2338
18517TIP3   OH276965   6.539   0.859  16.649 -0.4425 -0.3448  0.0476
18517TIP3    H176966   6.585   0.849  16.566  0.3814 -1.4269  0.6183
18517TIP3    H276967   6.567   0.945  16.682 -1.1391  0.3067 -0.9898
18518TIP3   OH276968   2.596   2.555   5.718  0.2028 -0.5828 -0.1991
18518TIP3    H176969   2.684   2.581   5.691 -0.1727  0.0450 -0.8745
18518TIP3    H276970   2.540   2.580   5.644 -0.8005  0.7056  0.9346
18519TIP3   OH276971   6.184   3.902   4.230 -0.3095 -0.3916 -0.1204
18519TIP3    H176972   6.267   3.857   4.241  0.6583  1.3655  0.1149
18519TIP3    H276973   6.179   3.923   4.137  0.7511  1.6640  0.2234
18520TIP3   OH276974   5.101   4.166   0.272 -0.0778  0.4941  0.2879
18520TIP3    H176975   5.141   4.210   0.198  1.2279  0.0763  0.7265
18520TIP3    H276976   5.174   4.145   0.330 -1.0841  0.9283  1.7637
18521TIP3   OH276977   4.595   3.058   6.155  0.0025 -0.1269  0.3599
18521TIP3    H176978   4.635   3.138   6.189 -0.5452  0.3276 -0.0605
18521TIP3    H276979   4.643   3.039   6.075 -2.0353  1.6929 -1.4048
18522TIP3   OH276980   3.164   1.944   3.768  0.2864  0.4010 -0.4955
18522TIP3    H176981   3.240   1.979   3.816 -0.7108  3.2721 -0.8045
18522TIP3    H276982   3.202   1.892   3.698  1.9491  0.9176 -0.0264
18523TIP3   OH276983   3.042   5.109   4.257 -0.1659  0.4216  0.3013
18523TIP3    H176984   2.955   5.081   4.230 -0.0678  0.2751  0.1342
18523TIP3    H276985   3.085   5.137   4.176 -0.1266  0.6839  0.4113
18524TIP3   OH276986   0.704   6.481   0.565 -0.1836 -0.1655  0.0067
18524TIP3    H176987   0.687   6.559   0.618 -1.6188  0.2298 -0.9799
18524TIP3    H276988   0.665   6.501   0.480  2.5569 -0.5511 -1.4549
18525TIP3   OH276989   2.444   5.563   3.237  0.1359  0.0926 -0.5058
18525TIP3    H176990   2.370   5.526   3.190 -0.4564 -0.9420  1.1794
18525TIP3    H276991   2.521   5.521   3.198 -0.0829  1.2235 -2.3085
18526TIP3   OH276992   3.855   5.271  13.849 -0.4802 -0.1918  0.3351
18526TIP3    H176993   3.904   5.353  13.844 -0.1667 -0.3898  0.1264
18526TIP3    H276994   3.904   5.210  13.794 -1.1310 -0.3115 -0.1189
18527TIP3   OH276995   3.536   4.103   5.439  0.5836  0.2026 -0.0500
18527TIP3    H176996   3.567   4.040   5.373 -1.7542  1.9165 -3.0417
18527TIP3    H276997   3.443   4.084   5.449  0.3373  1.6910  0.7638
18528TIP3   OH276998   2.433   1.681   3.542  0.3187 -0.3508 -0.5639
18528TIP3    H176999   2.437   1.749   3.475  0.8113 -0.1094 -0.2976
18528TIP3    H277000   2.499   1.707   3.606  0.5203 -1.0812 -0.4631
18529TIP3   OH277001   4.670   4.370   4.008 -1.0138  0.1816  0.4423
18529TIP3    H177002   4.674   4.355   3.914  1.7308 -0.3301  0.5489
18529TIP3    H277003   4.597   4.316   4.038 -1.4554 -0.2390 -1.2688
18530TIP3   OH277004   6.677   2.808  10.960  0.1712  0.2815  0.0762
18530TIP3    H177005   6.725   2.854  10.891  0.8905 -0.2644  0.1910
18530TIP3    H277006   6.666   2.719  10.927  1.9240 -0.4400  1.2681
18531TIP3   OH277007   4.749   0.537  12.268  0.3171  0.5208  0.0253
18531TIP3    H177008   4.734   0.583  12.185 -1.1616 -0.7860 -0.4655
18531TIP3    H277009   4.661   0.521  12.303  0.7843 -1.7267  0.2873
18532TIP3   OH277010   6.672   1.733   1.186  0.8383 -0.1695 -0.3677
18532TIP3    H177011   6.635   1.649   1.160 -1.4482  0.4674  0.5495
18532TIP3    H277012   6.705   1.718   1.275 -1.3185  0.2820  0.5814
18533TIP3   OH277013   6.306   3.156   0.942 -0.0480  0.9245 -0.1569
18533TIP3    H177014   6.269   3.239   0.912 -1.4573 -0.5936 -3.0796
18533TIP3    H277015   6.294   3.156   1.037 -2.1577  3.0362 -0.3416
18534TIP3   OH277016   6.011   0.186  17.042 -0.1746 -0.0493 -0.4042
18534TIP3    H177017   6.049   0.198  16.955 -0.2736 -2.6298 -0.8796
18534TIP3    H277018   6.055   0.250  17.097 -2.2541  3.9097 -2.8502
18535TIP3   OH277019   4.610   0.288  15.592 -0.1701 -0.1360 -0.0478
18535TIP3    H177020   4.699   0.253  15.597  0.4371  0.7612 -2.9767
18535TIP3    H277021   4.568   0.257  15.673  2.1966 -2.1828  0.5281
18536TIP3   OH277022   2.400   0.783  13.383 -0.2232 -0.2131  0.6193
18536TIP3    H177023   2.308   0.799  13.404 -0.0322  1.2886  0.4606
18536TIP3    H277024   2.411   0.822  13.296  0.0815 -2.2418 -0.3049
18537TIP3   OH277025   2.202   4.854  14.136 -0.0612 -0.0238 -0.2688
18537TIP3    H177026   2.198   4.761  14.158  0.2735  0.4609  2.0681
18537TIP3    H277027   2.295   4.876  14.138 -0.1017  0.2844 -1.2311
18538TIP3   OH277028   6.431   1.952   0.313 -0.0620  0.2521  0.4332
18538TIP3    H177029   6.512   1.921   0.274 -1.0107 -0.2449 -1.2473
18538TIP3    H277030   6.362   1.904   0.267 -1.3469  1.1628  1.3258
18539TIP3   OH277031   2.911   3.457  15.938  0.2678 -0.3270 -0.0945
18539TIP3    H177032   2.940   3.435  15.849 -0.3133 -0.1761 -0.3230
18539TIP3    H277033   2.923   3.551  15.945 -0.7526 -0.1627 -0.4138
18540TIP3   OH277034   0.095   3.238   5.482 -0.5235  0.7420  0.5059
18540TIP3    H177035   0.005   3.210   5.498 -0.2811 -0.6786 -0.4184
18540TIP3    H277036   0.145   3.157   5.479  0.6959  1.4723  0.4223
18541TIP3   OH277037   4.754   6.628   5.541 -0.2496  0.2766 -0.6485
18541TIP3    H177038   4.821   6.583   5.488  0.4328 -0.9417  1.1566
18541TIP3    H277039   4.728   6.703   5.487  1.2857 -0.2030 -2.1699
18542TIP3   OH277040   5.414   4.421   4.479 -0.1447  0.1706  0.0213
18542TIP3    H177041   5.370   4.356   4.425 -0.1731  0.1534  0.0648
18542TIP3    H277042   5.353   4.495   4.482  0.4580  0.7359 -1.1450
18543TIP3   OH277043   6.259   1.920  15.736 -0.5145  0.6244 -0.3368
18543TIP3    H177044   6.262   1.960  15.649 -0.2297  1.3349 -0.0071
18543TIP3    H277045   6.328   1.855  15.735  0.5871  1.7539 -0.1113
18544TIP3   OH277046   5.411   0.603   3.770 -0.1904 -0.3273  0.4280
18544TIP3    H177047   5.374   0.521   3.803  0.4828 -0.7568  0.1530
18544TIP3    H277048   5.430   0.585   3.678 -0.8163  0.4224  0.1439
18545TIP3   OH277049   5.936   4.294  15.828  0.2724 -0.0755 -0.2366
18545TIP3    H177050   5.926   4.269  15.736  2.5955  2.1241 -1.2082
18545TIP3    H277051   6.026   4.326  15.834  1.0008 -2.2636  3.3888
18546TIP3   OH277052   2.515   6.061   2.404  0.0415 -0.4750 -0.2230
18546TIP3    H177053   2.461   6.027   2.475 -0.8637 -0.7869 -1.0381
18546TIP3    H277054   2.454   6.111   2.350  0.1109 -2.3758 -2.2017
18547TIP3   OH277055   2.125   6.517  11.684  0.2725 -0.0068 -0.2248
18547TIP3    H177056   2.214   6.525  11.651 -0.2880  0.0338 -1.8486
18547TIP3    H277057   2.077   6.587  11.639  0.0790  2.3714  3.2779
18548TIP3   OH277058   2.982   0.853   0.484 -0.0919  0.1319 -0.0831
18548TIP3    H177059   3.035   0.859   0.404 -0.6491 -1.2327 -0.5887
18548TIP3    H277060   2.895   0.829   0.453 -0.1892 -0.9472  0.9644
18549TIP3   OH277061   4.478   3.571   2.018  0.1215  0.1224  0.2862
18549TIP3    H177062   4.430   3.537   2.094  0.6442  0.0106  0.5679
18549TIP3    H277063   4.527   3.496   1.985  1.4315  0.6195  1.0223
18550TIP3   OH277064   2.829   4.475  11.409 -0.3634  0.3028  0.2161
18550TIP3    H177065   2.785   4.549  11.367  0.7784  0.9745  0.1615
18550TIP3    H277066   2.867   4.424  11.338 -1.1787 -0.3762  0.2507
18551TIP3   OH277067   2.538   0.161  11.213  0.3894  0.3864  0.3646
18551TIP3    H177068   2.542   0.182  11.120  0.0498 -0.8454  0.0552
18551TIP3    H277069   2.601   0.220  11.254  0.3434  1.1279 -0.6026
18552TIP3   OH277070   4.680   1.002   1.140  0.1742  0.1293 -0.4411
18552TIP3    H177071   4.620   0.977   1.210 -0.8168  1.4826 -0.7542
18552TIP3    H277072   4.637   0.974   1.060  1.2856 -1.3778 -0.5511
18553TIP3   OH277073   0.482   4.808  11.557 -0.1700  0.2149  0.4618
18553TIP3    H177074   0.538   4.808  11.480  0.4245 -0.0155  0.8859
18553TIP3    H277075   0.543   4.803  11.631 -0.7858 -2.1491  0.8806
18554TIP3   OH277076   5.652   3.190  13.920 -0.1895 -0.5343 -0.2279
18554TIP3    H177077   5.654   3.151  13.832  1.0931  0.3344 -0.6159
18554TIP3    H277078   5.599   3.270  13.909  0.8904  0.1657 -0.4983
18555TIP3   OH277079   4.744   1.966   1.236  0.0376 -0.2336  0.3285
18555TIP3    H177080   4.792   1.953   1.155  0.4036 -0.9121  0.6406
18555TIP3    H277081   4.811   1.964   1.304 -0.1044  1.6311  0.5633
18556TIP3   OH277082   3.758   2.855   2.597  0.1754 -0.2398 -0.0510
18556TIP3    H177083   3.833   2.828   2.651  1.8223  1.3950 -1.3643
18556TIP3    H277084   3.798   2.905   2.525 -2.1680  0.2422 -1.0951
18557TIP3   OH277085   3.608   5.412  16.999  0.3176 -0.3211  0.0507
18557TIP3    H177086   3.576   5.344  16.940  0.9976 -0.4347 -0.2023
18557TIP3    H277087   3.544   5.416  17.069 -0.9437  0.3765 -1.0983
18558TIP3   OH277088   5.229   0.739   0.530  0.5395 -0.5199 -0.1639
18558TIP3    H177089   5.238   0.701   0.443 -0.6169  0.2864 -0.6627
18558TIP3    H277090   5.285   0.816   0.528 -0.5491  0.2906 -0.7065
18559TIP3   OH277091   4.016   2.826   1.626 -0.0157  0.0819  0.3208
18559TIP3    H177092   3.952   2.865   1.685 -0.8717 -0.5844 -0.1501
18559TIP3    H277093   3.977   2.834   1.539  0.3101 -0.7936  0.0862
18560TIP3   OH277094   2.936   1.549   3.759 -0.2621 -0.4975  0.2396
18560TIP3    H177095   2.992   1.529   3.684  0.0477  0.4718  0.2029
18560TIP3    H277096   2.975   1.627   3.798 -2.2431  0.9221 -0.4619
18561TIP3   OH277097   0.021   2.728   0.266  0.1171  0.1344 -0.1547
18561TIP3    H177098   0.002   2.736   0.359 -0.8732  1.1297 -0.4305
18561TIP3    H277099  -0.001   2.637   0.245  0.2808 -0.0787  0.5515
18562TIP3   OH277100   4.545   6.371  14.591  0.2258  0.0510  0.3092
18562TIP3    H177101   4.526   6.459  14.560  1.6092  0.6276  1.0015
18562TIP3    H277102   4.541   6.316  14.513 -0.3440  0.7653 -0.1757
18563TIP3   OH277103   6.632   4.343   1.987  0.1803  0.4889  0.3693
18563TIP3    H177104   6.704   4.342   1.924  0.1533  0.9237  0.3291
18563TIP3    H277105   6.563   4.292   1.946  1.0609 -1.4002  1.1159
18564TIP3   OH277106   2.337   3.497   0.947  0.5764 -0.0756 -0.0146
18564TIP3    H177107   2.348   3.545   1.029  2.6848  0.8392 -0.7571
18564TIP3    H277108   2.242   3.497   0.931  0.2095  0.4905  1.9447
18565TIP3   OH277109   4.549   3.974  16.722 -0.1081  0.3230 -0.0031
18565TIP3    H177110   4.571   3.981  16.629  0.1876 -1.4588 -0.0957
18565TIP3    H277111   4.502   4.055  16.741 -0.1402  0.7450 -1.6957
18566TIP3   OH277112   1.650   1.919   1.306  0.1425  0.0772  0.0582
18566TIP3    H177113   1.647   1.982   1.378 -1.5482  0.7874 -0.5535
18566TIP3    H277114   1.557   1.901   1.287  0.5827 -1.6677 -0.5932
18567TIP3   OH277115   3.919   4.925   0.445 -0.0564 -0.2336  0.3401
18567TIP3    H177116   3.902   4.859   0.379  0.3982  1.2862 -1.3841
18567TIP3    H277117   3.999   4.895   0.489  0.2333 -0.7487 -0.5225
18568TIP3   OH277118   0.761   5.668   4.615 -0.3594  0.1872  0.1465
18568TIP3    H177119   0.796   5.752   4.646  3.2211 -0.9692 -0.2381
18568TIP3    H277120   0.773   5.608   4.689 -0.3445 -0.5652 -0.4547
18569TIP3   OH277121   5.204   0.575  14.465  0.3508 -0.0168  0.1248
18569TIP3    H177122   5.206   0.480  14.455  0.7724 -0.0250  0.2791
18569TIP3    H277123   5.192   0.609  14.377  0.8460 -0.1908 -0.0092
18570TIP3   OH277124   2.518   5.743   2.339 -0.1254 -0.2023  0.4491
18570TIP3    H177125   2.560   5.657   2.347  0.0896 -0.3274 -1.5922
18570TIP3    H277126   2.530   5.783   2.425  1.9616 -1.2340  0.7041
18571TIP3   OH277127   1.760   4.480   0.703 -0.3129  0.2246  0.1076
18571TIP3    H177128   1.671   4.500   0.674 -0.0511 -1.7849 -2.4641
18571TIP3    H277129   1.777   4.392   0.669  1.8057 -0.5043  2.6925
18572TIP3   OH277130   5.857   3.674   3.442  0.5545  0.1262  0.0891
18572TIP3    H177131   5.766   3.659   3.413  0.1509  0.3990  1.1831
18572TIP3    H277132   5.871   3.610   3.511  1.4311 -0.3478 -0.5074
18573TIP3   OH277133   3.866   3.508   3.895 -0.3196 -0.8893  0.2034
18573TIP3    H177134   3.804   3.450   3.851 -1.9653  1.6495 -1.0887
18573TIP3    H277135   3.821   3.535   3.975  0.6468 -1.6895  1.0597
18574TIP3   OH277136   5.559   1.050   4.237  0.6696 -0.1453  0.3384
18574TIP3    H177137   5.616   1.111   4.192  0.9028 -0.9850 -0.5437
18574TIP3    H277138   5.507   1.104   4.296  1.1895  0.8328 -0.0836
18575TIP3   OH277139   5.306   6.725  15.037  0.7052 -0.5073 -0.1399
18575TIP3    H177140   5.288   6.644  15.084  1.1562 -0.3084  0.3888
18575TIP3    H277141   5.386   6.707  14.987  1.4570 -0.0417  0.8643
18576TIP3   OH277142   0.648   3.151   4.918 -0.3077 -0.6098  0.2658
18576TIP3    H177143   0.595   3.231   4.910  0.1911 -0.2112  0.8704
18576TIP3    H277144   0.593   3.091   4.968 -0.2684 -0.2606  0.7345
18577TIP3   OH277145   0.161   5.376   4.630 -0.4556 -0.3933 -0.4704
18577TIP3    H177146   0.211   5.421   4.698 -0.6969  0.3113 -0.7428
18577TIP3    H277147   0.222   5.310   4.595 -0.9123 -2.0260  1.6193
18578TIP3   OH277148   0.633   5.934  15.943  0.2761 -0.2071 -0.0154
18578TIP3    H177149   0.578   6.012  15.941  1.6114  0.7612 -0.3531
18578TIP3    H277150   0.577   5.865  15.908 -0.8188  0.6680 -0.0549
18579TIP3   OH277151   1.265   0.519  15.092 -0.8905  0.6672 -0.0612
18579TIP3    H177152   1.286   0.568  15.013  0.4610  0.0438 -0.1264
18579TIP3    H277153   1.346   0.520  15.143 -0.7581 -1.5480 -0.1161
18580TIP3   OH277154   1.075   3.272  13.324 -0.5159 -0.3391 -0.1146
18580TIP3    H177155   1.084   3.181  13.297  2.2094  0.0461 -0.8194
18580TIP3    H277156   1.070   3.269  13.420  3.3941 -1.1951  0.2385
18581TIP3   OH277157   0.902   3.090   4.268 -0.7050  0.5739 -0.7693
18581TIP3    H177158   0.990   3.103   4.233 -1.3742 -1.2268 -3.5172
18581TIP3    H277159   0.906   3.005   4.312 -0.7033  1.2431  0.5441
18582TIP3   OH277160   6.546   0.041   0.353 -0.1909  0.4853  0.2074
18582TIP3    H177161   6.521  -0.048   0.328  1.3423 -0.0543  0.5000
18582TIP3    H277162   6.476   0.097   0.317 -1.1071 -0.8135 -0.0789
18583TIP3   OH277163   0.589   1.755   5.531  0.1531 -0.8834 -0.1859
18583TIP3    H177164   0.635   1.803   5.601 -1.7640  0.1847  0.4267
18583TIP3    H277165   0.557   1.675   5.574 -0.8376 -0.3303  0.1481
18584TIP3   OH277166   1.764   3.391  14.232  0.2107  0.8034 -0.2927
18584TIP3    H177167   1.743   3.306  14.195  0.3094 -0.8869  3.1114
18584TIP3    H277168   1.860   3.392  14.236  0.1863 -0.0696  1.8172
18585TIP3   OH277169   4.599   2.586  14.921  0.0666  0.0636 -0.2752
18585TIP3    H177170   4.545   2.518  14.960  0.7943 -0.4891 -0.1936
18585TIP3    H277171   4.542   2.662  14.913 -0.1984  0.1167  1.6268
18586TIP3   OH277172   2.717   0.697  15.809  0.5386 -0.9193  0.2399
18586TIP3    H177173   2.640   0.657  15.850  2.1010 -2.1440  2.1236
18586TIP3    H277174   2.685   0.726  15.723 -2.1174 -0.9756  1.1161
18587TIP3   OH277175   4.031   6.152  11.374 -0.4195  0.2178  0.0926
18587TIP3    H177176   3.957   6.191  11.421 -0.8660  0.0581 -0.4600
18587TIP3    H277177   4.090   6.225  11.357 -0.2260  0.2666  0.9396
18588TIP3   OH277178   0.641   4.183   0.238 -0.2433  0.1474 -0.0799
18588TIP3    H177179   0.726   4.167   0.280 -0.3268 -0.0818  0.0010
18588TIP3    H277180   0.602   4.096   0.229  0.8146 -0.1334 -2.8150
18589TIP3   OH277181   5.395   4.646  14.327 -0.4824  0.1439 -0.2649
18589TIP3    H177182   5.400   4.593  14.406 -1.0673  1.9134  1.0422
18589TIP3    H277183   5.486   4.662  14.302 -0.2763  0.2211  0.5170
18590TIP3   OH277184   4.595   4.092  13.003 -0.2033 -0.3186 -0.4431
18590TIP3    H177185   4.590   4.185  12.980  0.7240 -0.1515 -0.0016
18590TIP3    H277186   4.513   4.074  13.050 -0.6834  0.1042 -1.1084
18591TIP3   OH277187   1.009   4.201   5.861  0.0324 -0.4692 -0.0245
18591TIP3    H177188   1.058   4.255   5.923 -1.6562  0.1270  0.8527
18591TIP3    H277189   1.064   4.125   5.846  1.0047 -0.0444  1.2912
18592TIP3   OH277190   0.111   0.968   4.939 -0.0907  0.4550  0.2923
18592TIP3    H177191   0.040   1.022   4.905 -0.5540 -0.1606  0.2701
18592TIP3    H277192   0.113   0.891   4.882 -1.2678 -0.8863  1.9287
18593TIP3   OH277193   3.947   2.509  11.287  0.8603 -0.3614 -0.1633
18593TIP3    H177194   3.870   2.529  11.341  1.0599  2.5002 -0.8155
18593TIP3    H277195   3.913   2.453  11.217 -0.0952 -1.1672  0.8907
18594TIP3   OH277196   1.153   3.490   4.266  0.3410 -0.0241 -0.5266
18594TIP3    H177197   1.235   3.464   4.306 -0.1318 -1.0629 -0.1946
18594TIP3    H277198   1.094   3.508   4.340 -0.0550 -0.3641 -0.7533
18595TIP3   OH277199   2.588   0.911  13.534  0.2574 -0.0209  0.6457
18595TIP3    H177200   2.679   0.927  13.507  0.3101 -0.5187  0.5216
18595TIP3    H277201   2.540   0.902  13.452 -0.3315  2.3806  0.6296
18596TIP3   OH277202   0.864   3.934   4.739  0.0637  0.1819  0.7393
18596TIP3    H177203   0.917   3.880   4.797  0.2596  1.2594  1.6109
18596TIP3    H277204   0.774   3.913   4.762  0.1266  1.4642  2.3357
18597TIP3   OH277205   0.667   2.378  15.037  0.4186  0.0839 -0.1332
18597TIP3    H177206   0.670   2.457  14.983  1.8659  0.5098  0.5142
18597TIP3    H277207   0.575   2.370  15.063 -0.3359 -0.1642 -2.6579
18598TIP3   OH277208   3.144   0.383  17.170 -0.5045  0.1398  0.6175
18598TIP3    H177209   3.200   0.392  17.247 -1.3609 -0.3386  1.3199
18598TIP3    H277210   3.100   0.467  17.161  0.8576  0.7883 -0.4022
18599TIP3   OH277211   4.393   4.705   2.889  0.2259 -0.2100  0.1013
18599TIP3    H177212   4.408   4.619   2.929 -1.0818 -2.7980 -4.2877
18599TIP3    H277213   4.479   4.730   2.854 -0.1341 -2.1729 -2.5163
18600TIP3   OH277214   2.491   0.250  16.863 -0.0489  0.0886  0.2804
18600TIP3    H177215   2.437   0.313  16.911  0.9694  1.3364 -0.1241
18600TIP3    H277216   2.567   0.236  16.919  1.6190  2.2882 -1.2313
18601TIP3   OH277217   4.217   0.847  12.447 -0.4713  0.3229 -0.2576
18601TIP3    H177218   4.200   0.918  12.509  1.5521 -1.2343  2.2647
18601TIP3    H277219   4.268   0.889  12.377 -0.4973  1.6119  0.4606
18602TIP3   OH277220   3.181   2.189  16.114 -0.6283 -0.3326 -0.2402
18602TIP3    H177221   3.256   2.131  16.119 -0.3430  0.0554  0.0404
18602TIP3    H277222   3.175   2.212  16.021  0.0459  0.2098 -0.1577
18603TIP3   OH277223   2.996   0.467   3.635  0.2123  0.0700 -0.4626
18603TIP3    H177224   3.032   0.434   3.718  0.1602 -0.4078 -0.6258
18603TIP3    H277225   3.040   0.551   3.622 -1.0637  1.0068  0.9347
18604TIP3   OH277226   0.250   5.303  12.589  0.2174 -0.3587 -0.3083
18604TIP3    H177227   0.195   5.377  12.565 -2.4493 -2.2287 -0.3538
18604TIP3    H277228   0.248   5.301  12.684  1.6086  0.4978 -0.2317
18605TIP3   OH277229   4.849   0.108   1.893 -0.1504  0.2904 -0.2791
18605TIP3    H177230   4.797   0.064   1.959 -0.7272 -0.5919 -1.2919
18605TIP3    H277231   4.795   0.106   1.814  0.9544  0.3493 -1.0632
18606TIP3   OH277232   1.695   3.290   2.391  0.2026  0.5658  0.1708
18606TIP3    H177233   1.603   3.317   2.383  0.3202  1.1857  0.7703
18606TIP3    H277234   1.743   3.352   2.337  0.2792  0.3112 -0.0526
18607TIP3   OH277235   0.002   1.591  13.591  0.0669  0.3010  0.0827
18607TIP3    H177236  -0.083   1.567  13.555  1.0629 -3.7500 -0.0997
18607TIP3    H277237   0.062   1.591  13.516  0.3677  2.8354  0.2458
18608TIP3   OH277238   6.644   4.550  11.843 -0.1813  0.1472  0.2916
18608TIP3    H177239   6.637   4.549  11.748  0.1831 -0.6179  0.2678
18608TIP3    H277240   6.563   4.511  11.874 -0.0174 -0.2061  0.2762
18609TIP3   OH277241   5.367   5.400   4.412 -0.1124 -0.2910  0.3098
18609TIP3    H177242   5.333   5.419   4.499 -0.8467 -2.3641  0.5243
18609TIP3    H277243   5.377   5.486   4.371 -0.1329  0.6989  2.2772
18610TIP3   OH277244   5.413   3.195  10.532 -0.0314  0.0395 -0.0506
18610TIP3    H177245   5.407   3.188  10.627 -0.2132 -0.6202 -0.1036
18610TIP3    H277246   5.505   3.180  10.512 -0.1286 -0.6447 -0.0298
18611TIP3   OH277247   6.409   0.164   0.003 -0.0291  0.3501 -0.2670
18611TIP3    H177248   6.475   0.217  -0.042  0.1210 -0.3301 -0.8774
18611TIP3    H277249   6.384   0.216   0.079  0.2382  1.2076 -0.7530
18612TIP3   OH277250   3.766   3.946  11.791  0.1050 -0.3775  0.3672
18612TIP3    H177251   3.790   4.010  11.724  0.6441  0.6869  1.5261
18612TIP3    H277252   3.689   3.901  11.756  0.9599 -0.5574 -1.3847
18613TIP3   OH277253   0.230   6.137   0.344 -0.2836 -0.0967  0.2980
18613TIP3    H177254   0.171   6.122   0.417 -1.0313 -2.1352 -0.6426
18613TIP3    H277255   0.183   6.197   0.286 -0.3264  0.3365  0.7840
18614TIP3   OH277256   2.227   3.186   5.552 -0.1532 -0.2431  0.2118
18614TIP3    H177257   2.238   3.266   5.604 -0.6675  0.1382 -0.2581
18614TIP3    H277258   2.311   3.141   5.560 -0.0256  0.0921  0.8957
18615TIP3   OH277259   4.030   4.997   3.886 -0.0393 -0.2698  0.0028
18615TIP3    H177260   3.976   5.068   3.851 -0.0516 -0.2712  0.0190
18615TIP3    H277261   4.040   4.936   3.813  0.9824  0.3369 -0.3827
18616TIP3   OH277262   6.565   0.121  11.977  0.1192  0.1971  0.3372
18616TIP3    H177263   6.557   0.200  11.924  0.0275 -0.7657 -1.1678
18616TIP3    H277264   6.586   0.152  12.065  1.5834  1.8047 -0.5356
18617TIP3   OH277265   6.383   6.568  16.479 -0.3135 -0.2805  0.3185
18617TIP3    H177266   6.399   6.485  16.434 -1.1538 -0.2241 -0.1043
18617TIP3    H277267   6.384   6.545  16.572 -1.3314 -0.9318  0.1867
18618TIP3   OH277268   2.211   2.060   2.296 -0.1991 -0.3323  0.2315
18618TIP3    H177269   2.288   2.005   2.305  0.0922 -0.2789 -1.5808
18618TIP3    H277270   2.178   2.041   2.208 -1.8586  0.1557  0.7131
18619TIP3   OH277271   0.682   5.319  12.481  0.0627  0.1474 -0.2106
18619TIP3    H177272   0.631   5.386  12.436 -0.3404 -0.9846 -1.5229
18619TIP3    H277273   0.626   5.289  12.552 -0.5287 -0.0641 -0.7510
18620TIP3   OH277274   0.587   1.461   2.980 -0.6560  0.1874  0.0304
18620TIP3    H177275   0.561   1.549   3.007 -0.6955  0.1534  0.1052
18620TIP3    H277276   0.561   1.405   3.054 -1.2941  0.0114 -0.3262
18621TIP3   OH277277   2.959   4.174  12.623 -0.3530  0.4173  0.2322
18621TIP3    H177278   3.018   4.174  12.547 -1.6802 -1.0237 -0.8666
18621TIP3    H277279   2.878   4.135  12.590 -1.0014 -0.1903  2.3922
18622TIP3   OH277280   1.571   6.236  13.447 -0.4168  0.7821  0.1001
18622TIP3    H177281   1.511   6.261  13.517 -0.1037  0.0847  0.6220
18622TIP3    H277282   1.515   6.204  13.377 -0.6504 -0.3570  0.7830
18623TIP3   OH277283   2.750   4.887  15.051  0.2584 -0.0497 -0.4777
18623TIP3    H177284   2.655   4.892  15.058  0.2537 -1.6334  1.5183
18623TIP3    H277285   2.779   4.978  15.043 -1.2605  0.7611  2.0883
18624TIP3   OH277286   3.772   2.849   5.562  0.3671  0.8953  0.0204
18624TIP3    H177287   3.733   2.933   5.587 -0.6245 -0.1298  2.1917
18624TIP3    H277288   3.830   2.826   5.634  1.9456  0.4591 -1.3176
18625TIP3   OH277289   5.431   6.287  16.495 -0.3279  0.3949  0.2320
18625TIP3    H177290   5.455   6.197  16.474 -0.0834  0.7392 -1.0341
18625TIP3    H277291   5.495   6.340  16.448 -0.2041  1.2271  1.3177
18626TIP3   OH277292   1.859   2.339  15.718 -0.7671  0.4688 -0.2137
18626TIP3    H177293   1.877   2.302  15.804 -1.1787 -0.5855 -0.5597
18626TIP3    H277294   1.941   2.382  15.692  0.0311 -0.9423 -0.1415
18627TIP3   OH277295   1.205   0.069   1.311  0.9170  0.0293 -0.4851
18627TIP3    H177296   1.198  -0.018   1.349 -5.1417  0.1409 -0.4650
18627TIP3    H277297   1.203   0.129   1.385 -1.0121  0.1164 -0.5513
18628TIP3   OH277298   5.296   6.275   0.649 -0.0716 -0.2976 -0.4624
18628TIP3    H177299   5.246   6.215   0.705 -0.0152 -0.3306 -0.4481
18628TIP3    H277300   5.387   6.253   0.665  0.0691  1.2723  1.2473
18629TIP3   OH277301   1.664   6.777  11.852 -0.8275 -0.0577  0.3441
18629TIP3    H177302   1.672   6.708  11.787  0.1544 -0.3897  0.7859
18629TIP3    H277303   1.693   6.856  11.807 -0.0436 -0.3068  0.3831
18630TIP3   OH277304   5.369   5.168  14.828 -0.6167  0.0589  0.1338
18630TIP3    H177305   5.436   5.114  14.871 -0.0931 -1.0106 -1.8794
18630TIP3    H277306   5.309   5.192  14.899  0.8570 -0.5193  1.6689
18631TIP3   OH277307   3.030   0.414   2.159 -0.3917 -0.0623  0.2824
18631TIP3    H177308   3.004   0.385   2.247 -0.6383  0.4130  0.3763
18631TIP3    H277309   3.117   0.452   2.171 -0.0919 -0.7017  0.1689
18632TIP3   OH277310   2.814   3.543   2.056 -0.0522  0.4432 -0.1205
18632TIP3    H177311   2.809   3.487   2.133 -1.2011  0.6299 -0.0427
18632TIP3    H277312   2.885   3.505   2.004 -2.0179 -2.3276 -1.0208
18633TIP3   OH277313   3.346   6.418   4.012  0.3740 -0.2531  0.1625
18633TIP3    H177314   3.328   6.398   3.920 -0.8786  0.1254  0.3137
18633TIP3    H277315   3.439   6.397   4.023  0.6011 -0.0847 -1.2464
18634TIP3   OH277316   1.101   3.044   0.611  0.0384  0.0976  0.2033
18634TIP3    H177317   1.046   2.976   0.649 -0.8366  0.8534  0.3225
18634TIP3    H277318   1.138   3.090   0.687 -0.7923  0.8703  0.1640
18635TIP3   OH277319   4.184   1.329  14.902 -0.0011 -0.3710  0.6977
18635TIP3    H177320   4.197   1.390  14.974  1.1279 -1.6603  1.6374
18635TIP3    H277321   4.096   1.293  14.916 -1.0644  1.6467 -0.3974
18636TIP3   OH277322   1.438   0.138   2.939 -0.0500 -0.1466 -0.1145
18636TIP3    H177323   1.402   0.172   2.857  0.6689 -0.6584 -0.6494
18636TIP3    H277324   1.421   0.208   3.003 -1.4945 -0.1459 -0.4643
18637TIP3   OH277325   2.432   0.421   1.382  0.1996  0.1768  0.5693
18637TIP3    H177326   2.349   0.397   1.343 -0.5326  2.0373  0.8644
18637TIP3    H277327   2.497   0.366   1.338 -1.2796 -2.2071  1.2001
18638TIP3   OH277328   3.529   3.576  16.570 -0.3311 -0.5736  0.0968
18638TIP3    H177329   3.597   3.554  16.633 -0.0151  2.1460  0.8358
18638TIP3    H277330   3.576   3.621  16.500 -1.0320 -1.2379 -0.8265
18639TIP3   OH277331   5.324   6.280   0.962 -0.0761 -0.1271 -0.1601
18639TIP3    H177332   5.266   6.214   0.923  2.1868 -1.1090 -2.0868
18639TIP3    H277333   5.265   6.348   0.995 -2.3676 -1.8571 -0.4844
18640TIP3   OH277334   5.745   6.720   5.476  0.3087 -0.1984  0.6901
18640TIP3    H177335   5.721   6.648   5.418  1.2849  1.3305 -1.7472
18640TIP3    H277336   5.662   6.750   5.512 -0.5114 -0.3722 -0.9675
18641TIP3   OH277337   6.445   3.913   6.274  0.3811  0.0835 -0.1096
18641TIP3    H177338   6.537   3.911   6.299 -0.2572  0.5424  2.6294
18641TIP3    H277339   6.415   4.001   6.298 -0.9768 -0.3707 -0.0450
18642TIP3   OH277340   2.499   3.297  17.276 -0.1962  0.1647  0.0432
18642TIP3    H177341   2.440   3.371  17.264 -1.7635 -0.8263  1.2258
18642TIP3    H277342   2.515   3.294  17.370  0.0411 -0.8352 -0.0146
18643TIP3   OH277343   1.358   6.490  13.341  0.2273  0.0254  0.1211
18643TIP3    H177344   1.443   6.469  13.379  0.0675 -0.8212  0.0299
18643TIP3    H277345   1.337   6.415  13.286 -0.1758  0.6237 -0.5553
18644TIP3   OH277346   5.271   1.696   3.768  0.2431  0.2089 -0.5030
18644TIP3    H177347   5.256   1.651   3.685 -0.8114  1.9142 -1.2839
18644TIP3    H277348   5.248   1.631   3.835  1.4631 -1.3194 -1.4764
18645TIP3   OH277349   0.230   5.101  16.791  0.2473 -0.3428 -0.6142
18645TIP3    H177350   0.318   5.129  16.817  0.2908 -0.8105 -0.2506
18645TIP3    H277351   0.205   5.163  16.722 -0.5730  2.0112  1.6490
18646TIP3   OH277352   5.588   5.771  16.092 -0.0822 -0.0447  0.0089
18646TIP3    H177353   5.678   5.747  16.114 -0.5394 -1.8937 -0.0237
18646TIP3    H277354   5.545   5.689  16.069 -1.2159  1.0655 -2.1374
18647TIP3   OH277355   5.179   0.796  16.589 -0.3335 -0.3041  0.1366
18647TIP3    H177356   5.267   0.759  16.592  0.2695  0.7597  4.8171
18647TIP3    H277357   5.123   0.731  16.632 -1.4194 -0.1214 -0.9482
18648TIP3   OH277358   3.656   5.491   3.970  0.3258 -0.1806 -0.4305
18648TIP3    H177359   3.746   5.509   3.942  0.7308 -1.3519  0.0587
18648TIP3    H277360   3.662   5.406   4.015 -0.5430  0.9734  1.9912
18649TIP3   OH277361   0.828   5.391  13.170 -0.1601 -0.1118 -0.1089
18649TIP3    H177362   0.774   5.330  13.120 -0.6961 -0.2043  0.5668
18649TIP3    H277363   0.795   5.477  13.146 -0.3842 -0.1541  0.0452
18650TIP3   OH277364   0.578   5.965   1.062 -0.5637 -0.0749 -0.7056
18650TIP3    H177365   0.498   5.945   1.014 -0.8730  0.6816 -0.5322
18650TIP3    H277366   0.550   5.972   1.154 -0.4116  0.7091 -0.7079
18651TIP3   OH277367   3.939   6.607  10.831 -0.3410 -0.4036  0.3867
18651TIP3    H177368   3.855   6.565  10.815 -0.1285 -0.3409 -0.9718
18651TIP3    H277369   3.993   6.583  10.756  1.1403 -1.1287  1.6239
18652TIP3   OH277370   5.973   0.679   3.457  0.4631 -0.2852 -0.1546
18652TIP3    H177371   6.067   0.661   3.467  0.0680 -1.2808  2.5067
18652TIP3    H277372   5.970   0.772   3.434  2.1084 -0.5175 -1.5658
18653TIP3   OH277373   5.134   4.469   5.812  0.5004  0.1206  0.6971
18653TIP3    H177374   5.217   4.464   5.858  0.0970  2.3203  1.7777
18653TIP3    H277375   5.089   4.544   5.851 -2.1995 -1.2712  0.4888
18654TIP3   OH277376   3.186   0.969  12.990  0.2558 -0.2755 -0.4191
18654TIP3    H177377   3.209   1.046  12.938 -0.7127 -0.3096 -0.9035
18654TIP3    H277378   3.206   0.895  12.933  0.1469 -0.3458 -0.3658
18655TIP3   OH277379   3.534   3.745  16.994 -0.3679 -0.6378 -0.0572
18655TIP3    H177380   3.620   3.779  17.018 -0.4577 -0.2366 -0.2909
18655TIP3    H277381   3.541   3.651  17.006  0.1507 -0.6217 -0.2188
18656TIP3   OH277382   6.065   3.481  14.025 -0.4574 -0.1490  0.0895
18656TIP3    H177383   6.027   3.565  14.001  1.4557  0.1324 -2.4115
18656TIP3    H277384   6.004   3.416  13.990 -1.0361  0.2066  0.4256
18657TIP3   OH277385   6.093   2.168  15.032 -0.2265  0.2857 -0.0901
18657TIP3    H177386   6.057   2.254  15.011  1.5526  0.8276 -1.1693
18657TIP3    H277387   6.088   2.162  15.127  2.4861  3.0143  0.3704
18658TIP3   OH277388   1.942   5.076  14.540 -0.3891  0.1945 -0.6524
18658TIP3    H177389   1.889   5.114  14.469  0.1236 -1.3342 -1.9077
18658TIP3    H277390   1.949   4.984  14.517 -0.6067 -0.4476  1.6838
18659TIP3   OH277391   2.852   3.937   6.361  0.3450  0.1961  0.1693
18659TIP3    H177392   2.927   3.927   6.419 -1.0355 -1.0240  1.8473
18659TIP3    H277393   2.890   3.958   6.276  2.5464  0.0330  1.0577
18660TIP3   OH277394   3.387   2.541   0.893 -0.0831  0.2005 -0.1477
18660TIP3    H177395   3.385   2.490   0.812 -0.8836  0.2354 -0.1581
18660TIP3    H277396   3.435   2.486   0.955  0.1944  0.0072 -0.5339
18661TIP3   OH277397   2.886   3.947  14.484 -0.6752 -0.3676  1.0571
18661TIP3    H177398   2.910   3.856  14.466  2.1274  0.3159  0.7221
18661TIP3    H277399   2.799   3.957  14.445 -0.2685 -2.4207 -0.6050
18662TIP3   OH277400   2.483   4.228   2.745  0.5241  0.3984  0.0268
18662TIP3    H177401   2.410   4.248   2.685  0.6844  1.1790  0.0812
18662TIP3    H277402   2.465   4.140   2.776 -1.1772  1.0837  1.1424
18663TIP3   OH277403   5.948   3.496  14.660 -0.1384 -0.8128 -0.8740
18663TIP3    H177404   5.986   3.409  14.671 -1.3970 -1.4303 -1.2068
18663TIP3    H277405   5.867   3.494  14.711  0.0959  0.3555 -0.4312
18664TIP3   OH277406   5.557   4.493   0.655  0.1554  0.3108 -0.3273
18664TIP3    H177407   5.463   4.507   0.647  0.2123 -0.0772 -2.6360
18664TIP3    H277408   5.566   4.413   0.707 -0.8643 -0.3190 -1.0908
18665TIP3   OH277409   6.363   6.600  17.115 -0.6817  0.0090 -0.4269
18665TIP3    H177410   6.355   6.688  17.077 -0.4503  0.6386  0.9304
18665TIP3    H277411   6.446   6.567  17.079 -0.6972  0.3993 -0.8402
18666TIP3   OH277412   3.070   6.358  16.962  0.4922 -0.3990  0.4371
18666TIP3    H177413   2.980   6.390  16.968 -0.0819 -1.4182 -1.6593
18666TIP3    H277414   3.061   6.266  16.936  2.1496 -0.4490 -0.0772
18667TIP3   OH277415   3.358   5.058   2.847  0.1720  0.0636  0.4272
18667TIP3    H177416   3.423   5.118   2.811  0.3600  0.1133  0.8434
18667TIP3    H277417   3.398   5.024   2.928  0.9773 -2.2289 -0.8272
18668TIP3   OH277418   3.710   6.327  12.706  0.2680 -0.8475 -0.1659
18668TIP3    H177419   3.629   6.280  12.724  0.3659 -0.9449  0.0162
18668TIP3    H277420   3.683   6.419  12.696  0.0874 -0.9314 -0.4622
18669TIP3   OH277421   6.617   1.107  11.468 -0.4213  0.4298 -0.4363
18669TIP3    H177422   6.539   1.110  11.524 -0.6288  0.1699 -0.7087
18669TIP3    H277423   6.589   1.059  11.391 -0.1973  0.9600 -0.8549
18670TIP3   OH277424   6.538   5.929  15.147  0.1502 -0.0271  0.0343
18670TIP3    H177425   6.488   5.990  15.092  1.1219 -0.4918 -1.4125
18670TIP3    H277426   6.521   5.843  15.109 -0.1696 -0.5361  1.2724
18671TIP3   OH277427   0.878   3.959  14.764 -0.2624 -0.3768  0.5008
18671TIP3    H177428   0.858   3.867  14.781  1.2873 -0.7202  0.6303
18671TIP3    H277429   0.855   3.972  14.673  2.2616 -1.7620 -0.4378
18672TIP3   OH277430   2.588   5.216   1.398 -0.3316  0.0791 -0.3784
18672TIP3    H177431   2.583   5.150   1.329 -0.5991  0.0838 -0.3640
18672TIP3    H277432   2.515   5.196   1.456 -1.3958  1.3521 -1.2299
18673TIP3   OH277433   0.187   6.566   2.495  0.0719  0.1527  0.7441
18673TIP3    H177434   0.220   6.589   2.583 -0.1191  1.5723  0.4725
18673TIP3    H277435   0.188   6.470   2.494  1.2842  0.1127  1.8444
18674TIP3   OH277436   4.122   2.383   0.801 -0.0524  0.0206 -0.1825
18674TIP3    H177437   4.183   2.456   0.787  0.3534 -0.4888 -1.2077
18674TIP3    H277438   4.081   2.370   0.716 -0.4452 -0.6584  0.1092
18675TIP3   OH277439   0.344   4.933   0.539  0.6087 -0.1682 -0.3667
18675TIP3    H177440   0.356   5.015   0.588 -1.3772  0.8926 -1.5211
18675TIP3    H277441   0.313   4.961   0.453 -3.0612 -2.1048  0.0858
18676TIP3   OH277442   6.393   5.806  13.138 -0.9250 -0.1505 -0.0762
18676TIP3    H177443   6.297   5.804  13.146 -0.8864 -1.2837  0.2540
18676TIP3    H277444   6.419   5.888  13.181 -1.7618  0.2979 -0.4015
18677TIP3   OH277445   4.243   2.043   3.446 -0.3359 -0.1961  0.3306
18677TIP3    H177446   4.173   2.104   3.467 -0.4665  0.1259 -0.9875
18677TIP3    H277447   4.319   2.098   3.430 -0.2778 -0.4231 -0.1739
18678TIP3   OH277448   6.609   4.595   0.214  0.4747  0.6886 -0.1839
18678TIP3    H177449   6.628   4.674   0.264 -1.7182  1.8547 -1.0292
18678TIP3    H277450   6.633   4.523   0.272 -1.1707  1.9615  2.2768
18679TIP3   OH277451   2.212   5.041  15.733 -0.1602  0.0976 -0.4118
18679TIP3    H177452   2.133   5.092  15.716 -0.0480  0.3726 -0.1090
18679TIP3    H277453   2.280   5.084  15.682 -0.0259  0.3670 -0.0121
18680TIP3   OH277454   5.162   6.062   0.909 -0.1149  0.1093 -0.2741
18680TIP3    H177455   5.126   6.056   0.997  1.2691 -0.1502  0.2987
18680TIP3    H277456   5.128   5.985   0.864  0.2874 -0.5106  0.4652
18681TIP3   OH277457   5.675   5.057  15.267  0.8176 -0.1528  0.0792
18681TIP3    H177458   5.667   4.981  15.324  5.1252 -0.7553  0.2128
18681TIP3    H277459   5.594   5.057  15.215 -0.5063 -3.1893  1.8844
18682TIP3   OH277460   2.937   2.838   3.667 -0.0949 -1.1400 -0.4210
18682TIP3    H177461   2.959   2.908   3.728 -1.3420 -1.7949  0.8510
18682TIP3    H277462   2.868   2.876   3.612  2.6218  0.2654 -3.1397
18683TIP3   OH277463   1.421   6.234   1.105 -0.1494 -0.2808 -0.0351
18683TIP3    H177464   1.449   6.161   1.050 -0.7885  0.1658 -0.9851
18683TIP3    H277465   1.341   6.267   1.063 -0.3743  0.3972  0.8800
18684TIP3   OH277466   2.298   6.531   1.666  0.1453  0.7196 -0.3602
18684TIP3    H177467   2.310   6.540   1.761 -0.7602  1.1150 -0.2761
18684TIP3    H277468   2.241   6.455   1.657 -0.2300  1.0248 -0.5584
18685TIP3   OH277469   0.270   0.307   1.539  0.3340  0.2044  0.5859
18685TIP3    H177470   0.174   0.307   1.541  0.3363  0.5162  0.6761
18685TIP3    H277471   0.295   0.319   1.630  0.4588  0.9301  0.4576
18686TIP3   OH277472   4.416   1.555   1.998 -0.1610  0.7828 -0.1844
18686TIP3    H177473   4.461   1.529   1.918 -0.1382 -1.5667  0.5157
18686TIP3    H277474   4.370   1.476   2.027  1.9113  0.6513  3.4697
18687TIP3   OH277475   5.454   2.063   1.303  0.3501 -0.0770 -0.4115
18687TIP3    H177476   5.371   2.064   1.350  0.9478  0.0285  0.6667
18687TIP3    H277477   5.500   1.985   1.336  0.7504 -0.0459 -0.8765
18688TIP3   OH277478   1.564   5.436  10.529  0.4853  0.4708 -0.1721
18688TIP3    H177479   1.507   5.384  10.586  1.1052 -0.9331 -0.7695
18688TIP3    H277480   1.504   5.490  10.478 -0.1467  0.8196  0.9140
18689TIP3   OH277481   2.446   6.221   3.742 -0.3009  0.3528 -0.0370
18689TIP3    H177482   2.451   6.198   3.835  0.5979 -0.1651 -0.2087
18689TIP3    H277483   2.402   6.307   3.742  0.1163  0.5844  0.8996
18690TIP3   OH277484   3.234   2.755  14.720 -0.3380 -0.7417 -0.4037
18690TIP3    H177485   3.149   2.765  14.764  0.1961  0.2291  0.4477
18690TIP3    H277486   3.275   2.841  14.727  1.1454 -1.4537  0.1072
18691TIP3   OH277487   5.607   5.394  16.488  0.3100  0.4846 -0.8485
18691TIP3    H177488   5.544   5.430  16.426 -1.0152  0.0354  0.1730
18691TIP3    H277489   5.653   5.326  16.438  0.7295  1.5279 -1.9115
18692TIP3   OH277490   1.953   2.046   4.019 -0.2217  0.0642 -0.0908
18692TIP3    H177491   2.046   2.024   4.025  0.2579  1.8817 -0.3204
18692TIP3    H277492   1.908   1.962   4.031  1.4349 -0.8715 -0.0844
18693TIP3   OH277493   5.900   0.799   5.241  0.3809 -0.2060 -0.3441
18693TIP3    H177494   5.987   0.771   5.270 -0.3661 -2.0335  0.2696
18693TIP3    H277495   5.891   0.761   5.154  0.9429  1.7007 -1.2936
18694TIP3   OH277496   4.146   4.327  14.540  0.2565  0.4296  0.2209
18694TIP3    H177497   4.198   4.262  14.586  0.8919  0.2776 -0.6771
18694TIP3    H277498   4.057   4.292  14.540  0.6938 -0.7586 -0.7660
18695TIP3   OH277499   3.723   1.357   3.715 -0.1440 -0.4492 -0.1437
18695TIP3    H177500   3.810   1.321   3.732 -0.0543 -0.2431 -0.1668
18695TIP3    H277501   3.685   1.371   3.801 -0.0665 -0.3252 -0.1295
18696TIP3   OH277502   2.406   0.836  11.297 -0.0981  0.3756  0.4288
18696TIP3    H177503   2.448   0.796  11.221  1.1608  2.1438  0.1480
18696TIP3    H277504   2.476   0.843  11.362 -0.9631 -0.3482  1.4714
18697TIP3   OH277505   5.829   2.170   1.026 -0.1126  0.2287 -0.0547
18697TIP3    H177506   5.783   2.163   0.943 -1.1289 -4.1952  0.6350
18697TIP3    H277507   5.905   2.112   1.016  1.4654  1.9526  1.2004
18698TIP3   OH277508   4.747   4.818   4.278 -0.0110  0.0919  0.2785
18698TIP3    H177509   4.695   4.870   4.217 -1.0554 -1.0307  0.1718
18698TIP3    H277510   4.724   4.727   4.258  2.1757 -0.4730  0.0948
18699TIP3   OH277511   2.709   5.292   1.970  0.2047  1.0725 -0.2872
18699TIP3    H177512   2.732   5.219   2.027 -0.5806  1.5793  0.7015
18699TIP3    H277513   2.790   5.344   1.964  0.6563  0.3403 -0.6921
18700TIP3   OH277514   4.836   3.360  14.543  0.5213 -0.1498  0.1938
18700TIP3    H177515   4.854   3.444  14.501 -0.4718 -0.3453 -0.6758
18700TIP3    H277516   4.781   3.382  14.618 -0.3158 -0.0613 -0.4265
18701TIP3   OH277517   5.277   2.736  13.960 -0.0348  0.3253 -0.6193
18701TIP3    H177518   5.241   2.804  14.017 -0.6691  0.6287 -1.3626
18701TIP3    H277519   5.203   2.677  13.944  0.2196  0.0743 -0.8773
18702TIP3   OH277520   5.341   1.991  11.142  0.3274 -0.0584  0.3567
18702TIP3    H177521   5.364   1.953  11.057  0.4806  0.7211  0.0401
18702TIP3    H277522   5.365   1.923  11.206  0.8258 -0.3914 -0.1733
18703TIP3   OH277523   4.283   1.027   2.302  0.4300  0.6178  0.1106
18703TIP3    H177524   4.297   0.936   2.277  2.5857  0.9492 -0.1477
18703TIP3    H277525   4.207   1.056   2.251 -0.0910 -0.9326 -0.0223
18704TIP3   OH277526   6.723   0.954   3.199  0.0312 -0.3320 -0.1557
18704TIP3    H177527   6.658   1.014   3.236 -0.9564 -0.1694 -1.9962
18704TIP3    H277528   6.682   0.923   3.117  2.5932  0.4163 -1.8161
18705TIP3   OH277529   5.568   4.380   4.852 -0.0697  0.0190 -0.3177
18705TIP3    H177530   5.618   4.461   4.845  0.1795 -0.2599 -2.8566
18705TIP3    H277531   5.478   4.408   4.867  0.4672  0.5693  2.5020
18706TIP3   OH277532   4.909   3.275   1.095  0.0571  0.1969 -0.0329
18706TIP3    H177533   4.817   3.250   1.087  0.3417 -0.7408 -0.4754
18706TIP3    H277534   4.907   3.360   1.139 -1.0415  0.4055 -0.4565
18707TIP3   OH277535   5.417   2.937   0.177 -0.2373  0.5728 -0.6167
18707TIP3    H177536   5.331   2.942   0.137 -0.6752  0.1891  0.2362
18707TIP3    H277537   5.417   2.852   0.223  1.1744 -0.1745 -1.9038
18708TIP3   OH277538   3.406   2.296  14.816 -0.7151 -0.0130  0.4753
18708TIP3    H177539   3.384   2.382  14.853 -0.6049  0.5688 -0.7490
18708TIP3    H277540   3.501   2.292  14.818 -0.6487  0.4815 -0.6707
18709TIP3   OH277541   0.567   2.744   2.491 -0.9021 -0.4530  0.6687
18709TIP3    H177542   0.557   2.816   2.429  0.1130  0.3406  1.3750
18709TIP3    H277543   0.616   2.678   2.443 -0.4387  0.0082  0.4945
18710TIP3   OH277544   1.207   4.282  17.113 -0.1945 -0.3387 -0.1974
18710TIP3    H177545   1.288   4.331  17.127  0.6732 -1.6073 -0.5842
18710TIP3    H277546   1.208   4.259  17.020 -0.1388 -1.7950  0.1363
18711TIP3   OH277547   5.367   4.876   0.091 -0.2312 -0.2060  0.3249
18711TIP3    H177548   5.407   4.945   0.143 -0.4296 -1.2427  1.9178
18711TIP3    H277549   5.274   4.878   0.116 -0.1354 -1.3983  0.8195
18712TIP3   OH277550   2.931   0.177  12.076 -0.0604  0.1843 -0.7438
18712TIP3    H177551   2.853   0.229  12.097 -0.2152 -0.1016 -0.6030
18712TIP3    H277552   2.985   0.181  12.155 -0.6148 -0.8404 -0.2901
18713TIP3   OH277553   6.232   0.330  11.054  0.4945  0.1399 -0.4822
18713TIP3    H177554   6.137   0.336  11.046  0.4733 -0.6993 -0.9319
18713TIP3    H277555   6.261   0.294  10.970  1.0398 -1.2784  0.2872
18714TIP3   OH277556   2.679   0.709   4.635  0.2000 -0.2834 -0.1639
18714TIP3    H177557   2.704   0.760   4.712 -1.5926  1.1073 -0.4435
18714TIP3    H277558   2.714   0.621   4.652  1.9762  0.5877  1.0757
18715TIP3   OH277559   4.877   6.644  12.157 -0.0109  0.0270  0.0565
18715TIP3    H177560   4.867   6.706  12.085  1.7038 -0.2177 -0.4320
18715TIP3    H277561   4.853   6.560  12.120  1.2769 -0.1644 -0.3719
18716TIP3   OH277562   4.542   6.285  12.251  0.4764  0.3867 -0.0008
18716TIP3    H177563   4.557   6.192  12.263 -0.7181  0.3701  1.5995
18716TIP3    H277564   4.468   6.291  12.191  0.1047  0.2731  0.4386
18717TIP3   OH277565   4.447   3.405   5.216  0.2244 -0.1525 -0.4241
18717TIP3    H177566   4.522   3.464   5.205 -1.0103  1.5180 -0.2457
18717TIP3    H277567   4.484   3.328   5.258  1.8050  0.7524 -0.0540
18718TIP3   OH277568   2.957   6.479   2.975  0.4734  0.3713  0.0008
18718TIP3    H177569   2.884   6.443   2.924  0.5079  0.9436 -0.4706
18718TIP3    H277570   2.945   6.574   2.969 -1.1875  0.5009  3.4456
18719TIP3   OH277571   5.925   1.987  16.961 -0.6233  0.2330 -0.2465
18719TIP3    H177572   6.000   2.039  16.989 -1.1191  1.2231 -0.7126
18719TIP3    H277573   5.854   2.014  17.018 -1.2579  1.1759 -1.4250
18720TIP3   OH277574   1.331   3.389  14.187  0.5314 -0.4822  0.6675
18720TIP3    H177575   1.351   3.307  14.143 -0.4430  0.0913 -0.9332
18720TIP3    H277576   1.240   3.408  14.162  1.4871  2.3066 -1.0899
18721TIP3   OH277577   6.700   2.227  11.784 -0.2241  0.4470 -0.8171
18721TIP3    H177578   6.757   2.288  11.738 -0.7259  0.2753 -1.6950
18721TIP3    H277579   6.744   2.143  11.778 -0.4119  0.3772 -1.2023
18722TIP3   OH277580   1.453   0.065  16.658 -0.6596  0.0386 -0.1860
18722TIP3    H177581   1.513   0.021  16.598 -1.1903  0.1180 -0.7810
18722TIP3    H277582   1.382   0.097  16.602 -0.1496  1.9090  0.1573
18723TIP3   OH277583   1.858   1.725   2.469 -0.0517 -0.3419 -0.1074
18723TIP3    H177584   1.900   1.811   2.463  2.4606 -1.4628  0.0003
18723TIP3    H277585   1.844   1.699   2.378 -0.8549  0.1821 -0.1394
18724TIP3   OH277586   3.502   6.643  12.283 -0.1166  0.0564 -0.7286
18724TIP3    H177587   3.589   6.668  12.251  0.1653 -0.9105 -0.7561
18724TIP3    H277588   3.520   6.579  12.352 -0.8186 -1.9744 -2.3112
18725TIP3   OH277589   1.558   1.705  15.069 -0.0867 -0.5653  0.7711
18725TIP3    H177590   1.646   1.727  15.038 -0.4489 -2.0343 -1.6137
18725TIP3    H277591   1.507   1.785  15.053  0.0647 -0.8291 -1.3420
18726TIP3   OH277592   2.311   2.533  16.392  0.4361 -0.3000 -0.2694
18726TIP3    H177593   2.349   2.453  16.354  2.2165 -0.1600  1.0890
18726TIP3    H277594   2.352   2.604  16.343  1.4485 -0.1707  0.7108
18727TIP3   OH277595   4.050   4.785   3.701  0.3267 -0.1815 -0.1584
18727TIP3    H177596   4.068   4.692   3.719 -1.8008 -0.7984 -0.9131
18727TIP3    H277597   4.030   4.788   3.608  0.6709  1.1074 -0.2057
18728TIP3   OH277598   1.881   1.555   6.867 -0.4811  0.0484 -0.4319
18728TIP3    H177599   1.922   1.472   6.842  0.3994  0.4011 -0.1785
18728TIP3    H277600   1.925   1.581   6.947 -2.8980 -0.7857  1.2875
18729TIP3   OH277601   2.971   4.645   3.281 -0.1903  0.8235  0.1629
18729TIP3    H177602   2.943   4.557   3.258 -0.2548  0.5465  1.2774
18729TIP3    H277603   2.917   4.702   3.226 -0.5177  0.1939 -0.1766
18730TIP3   OH277604   3.980   0.958   2.054  0.2654  0.0174  0.0932
18730TIP3    H177605   4.048   1.025   2.047 -2.0661  2.8497  2.1454
18730TIP3    H277606   3.925   0.971   1.977  0.2719 -0.0908  0.0704
18731TIP3   OH277607   4.238   4.369   5.367  0.2275  0.3454  0.1892
18731TIP3    H177608   4.314   4.335   5.320  1.4245  0.2362  2.1113
18731TIP3    H277609   4.205   4.294   5.417 -1.3349  0.3245 -0.8131
18732TIP3   OH277610   1.937   6.014  14.113  0.0399 -0.0046 -0.8450
18732TIP3    H177611   1.924   5.935  14.165  1.3765  0.3864  0.1455
18732TIP3    H277612   1.883   6.081  14.156 -1.2939 -0.4017 -1.8337
18733TIP3   OH277613   1.245   5.352  14.424  0.0471 -0.0464  0.0197
18733TIP3    H177614   1.230   5.319  14.513 -0.3333  1.4449  0.5355
18733TIP3    H277615   1.203   5.287  14.367  0.8843 -1.3851  0.8590
18734TIP3   OH277616   5.285   2.782   0.764  0.5269 -0.0349 -0.2791
18734TIP3    H177617   5.349   2.716   0.736  1.1660  1.0290 -1.4375
18734TIP3    H277618   5.233   2.738   0.830  0.6348 -1.8548 -1.3371
18735TIP3   OH277619   6.655   2.672  13.799 -0.1408 -0.5066 -0.6728
18735TIP3    H177620   6.747   2.658  13.821 -0.7406  0.7924  3.3542
18735TIP3    H277621   6.612   2.589  13.819 -0.1313 -0.5675 -0.8943
18736TIP3   OH277622   0.598   0.389   3.976  0.0771  0.3446 -0.7426
18736TIP3    H177623   0.504   0.395   3.989  0.1021 -0.8716  0.1723
18736TIP3    H277624   0.634   0.464   4.023 -0.4935  1.6706 -2.3241
18737TIP3   OH277625   0.369   2.923  12.119  0.2477 -0.3569  0.2437
18737TIP3    H177626   0.384   2.984  12.192 -0.8848  0.2766 -0.0196
18737TIP3    H277627   0.354   2.980  12.044  1.1864 -1.0046 -0.4546
18738TIP3   OH277628   0.010   5.889  15.514 -0.4448 -0.5516 -0.2889
18738TIP3    H177629   0.078   5.840  15.467 -0.2665 -2.0747  1.4461
18738TIP3    H277630  -0.072   5.857  15.478 -0.2923 -1.1799 -0.1006
18739TIP3   OH277631   5.579   2.064   1.051  0.0712  0.0700  0.1402
18739TIP3    H177632   5.674   2.054   1.061  0.2849  0.7084 -1.0401
18739TIP3    H277633   5.543   2.036   1.135  1.4469  1.9207  1.4259
18740TIP3   OH277634   3.158   2.527  11.994  0.6072 -0.1941 -0.8062
18740TIP3    H177635   3.182   2.618  12.013  1.7826 -0.5900 -0.2993
18740TIP3    H277636   3.129   2.529  11.902 -0.8979  0.9561 -0.3418
18741TIP3   OH277637   3.898   5.288  11.469  0.3144  0.0366  0.2185
18741TIP3    H177638   3.822   5.346  11.471  0.8143  0.6886  0.8611
18741TIP3    H277639   3.921   5.275  11.561  0.2934 -1.0889  0.0790
18742TIP3   OH277640   4.580   0.864  12.189 -0.7561 -0.0234 -0.3044
18742TIP3    H177641   4.631   0.939  12.159 -0.2196 -0.3265 -0.1579
18742TIP3    H277642   4.625   0.788  12.152  0.2054 -0.4557  1.6214
18743TIP3   OH277643   0.750   1.786  14.137 -0.1368 -0.3139  0.5788
18743TIP3    H177644   0.759   1.770  14.043  2.6540 -0.6452  0.8291
18743TIP3    H277645   0.692   1.863  14.142 -1.6142 -1.2026 -1.2792
18744TIP3   OH277646   6.183   5.698   6.214 -0.4378 -0.1529 -0.0517
18744TIP3    H177647   6.261   5.751   6.197  1.0254 -1.7879  1.2309
18744TIP3    H277648   6.153   5.670   6.127  1.0249 -0.3275 -0.5235
18745TIP3   OH277649   2.958   4.073  15.223 -0.2780 -0.2768 -0.4145
18745TIP3    H177650   2.874   4.112  15.250  0.2583  0.7169 -0.1328
18745TIP3    H277651   2.974   4.003  15.286  0.0953  0.8619  0.8009
18746TIP3   OH277652   0.029   2.426  13.165 -0.0307 -0.7117  0.5233
18746TIP3    H177653   0.057   2.476  13.089 -0.8658  1.0230  1.2946
18746TIP3    H277654  -0.048   2.379  13.136 -1.2760  1.1399  0.6313
18747TIP3   OH277655   1.052   6.612   0.123  0.8362 -0.7078 -0.1286
18747TIP3    H177656   1.128   6.654   0.083  0.5946  0.6923  0.7985
18747TIP3    H277657   1.025   6.672   0.192 -2.5299  0.0053 -1.8580
18748TIP3   OH277658   3.877   5.283  13.497 -0.5615  0.2199  0.6403
18748TIP3    H177659   3.920   5.217  13.551  2.0282  0.7169 -0.6161
18748TIP3    H277660   3.863   5.240  13.413  0.8190  1.0749 -0.0730
18749TIP3   OH277661   6.486   4.805  13.832  0.3015  0.3079 -0.4947
18749TIP3    H177662   6.417   4.779  13.894 -0.6030  2.6995 -0.3792
18749TIP3    H277663   6.438   4.839  13.757  1.3987 -1.5727 -2.1392
18750TIP3   OH277664   2.114   1.180   2.747 -0.1585  0.1134  0.1428
18750TIP3    H177665   2.138   1.088   2.758  2.0896  0.7255  1.0353
18750TIP3    H277666   2.080   1.206   2.833 -0.1321  0.2708  0.1063
18751TIP3   OH277667   3.465   0.465   0.341  0.3890  0.5270  1.4281
18751TIP3    H177668   3.503   0.378   0.354 -1.5894 -0.1440  3.3680
18751TIP3    H277669   3.404   0.454   0.267  0.2819  0.3178  1.5480
18752TIP3   OH277670   3.210   4.869  11.000 -0.2720 -0.2241  0.1870
18752TIP3    H177671   3.305   4.857  11.006 -0.3392 -1.5681 -0.9403
18752TIP3    H277672   3.192   4.873  10.906 -1.3762 -0.3625  0.3777
18753TIP3   OH277673   4.402   0.033   1.529 -0.2247 -0.2256  0.2605
18753TIP3    H177674   4.355  -0.039   1.487  0.4400  0.0983 -1.0884
18753TIP3    H277675   4.354   0.112   1.503  0.2976 -0.0052 -0.0455
18754TIP3   OH277676   5.110   6.734   0.475 -0.3471 -0.0884 -0.0574
18754TIP3    H177677   5.183   6.709   0.531 -1.6832 -2.0097  0.9443
18754TIP3    H277678   5.103   6.663   0.412 -1.1377  0.2371 -0.3468
18755TIP3   OH277679   3.504   6.297  11.724  0.2346  0.0116  0.6520
18755TIP3    H177680   3.488   6.389  11.742 -1.6247 -0.3146  0.9468
18755TIP3    H277681   3.436   6.251  11.774  2.0125 -1.6290  1.6929
18756TIP3   OH277682   6.194   1.268   3.305 -0.1083 -0.7898  0.0741
18756TIP3    H177683   6.180   1.360   3.328  0.3351 -0.6191 -0.3351
18756TIP3    H277684   6.192   1.222   3.389 -0.3770 -0.4147  0.2746
18757TIP3   OH277685   6.452   1.657  12.559  0.0626 -0.3430 -0.7566
18757TIP3    H177686   6.362   1.640  12.588  0.4239 -1.0514 -0.0247
18757TIP3    H277687   6.447   1.741  12.514 -0.7599  0.1845  0.2800
18758TIP3   OH277688   1.512   2.405  13.816  0.0909 -0.0367  0.2431
18758TIP3    H177689   1.468   2.491  13.822  1.1372  0.4796  0.8089
18758TIP3    H277690   1.480   2.367  13.734 -1.0263  0.5320  0.3933
18759TIP3   OH277691   5.641   4.799  17.291  0.1838  0.6030  0.5067
18759TIP3    H177692   5.564   4.854  17.304  0.4327  1.2258 -0.4950
18759TIP3    H277693   5.663   4.767  17.378 -1.6026 -0.1435  0.7317
18760TIP3   OH277694   2.090   3.872  15.775  0.1752 -0.0502 -0.2368
18760TIP3    H177695   2.011   3.860  15.828  0.7394  0.6865  0.8069
18760TIP3    H277696   2.150   3.803  15.806  0.3956  0.1850 -0.1382
18761TIP3   OH277697   0.349   5.886  11.371  0.3634 -0.4488 -0.1659
18761TIP3    H177698   0.383   5.822  11.434 -0.8302 -1.2834 -0.3140
18761TIP3    H277699   0.345   5.838  11.288  0.1778  0.0591 -0.4549
18762TIP3   OH277700   3.014   4.510   1.424  0.3648 -0.4934  0.2125
18762TIP3    H177701   2.947   4.546   1.366 -1.0938  0.4649  2.3866
18762TIP3    H277702   2.966   4.454   1.485  1.4010  0.7776  2.2695
18763TIP3   OH277703   0.244   3.947   3.216  0.4930 -0.1064  0.2623
18763TIP3    H177704   0.258   3.943   3.311  1.1895 -0.8471  0.1398
18763TIP3    H277705   0.155   3.914   3.203  0.1311  0.6571  0.7047
18764TIP3   OH277706   2.189   0.335  13.653  0.4539  0.3342 -0.1816
18764TIP3    H177707   2.217   0.259  13.601  3.2253 -0.1618  1.7850
18764TIP3    H277708   2.139   0.296  13.725  0.8782  0.4883  0.1971
18765TIP3   OH277709   6.562   5.644   1.275 -0.5925 -0.1332  0.2713
18765TIP3    H177710   6.493   5.581   1.254  0.2217 -1.3024  1.0246
18765TIP3    H277711   6.524   5.699   1.344 -1.0403 -0.2585  0.1290
18766TIP3   OH277712   0.200   4.219  16.733 -0.0674 -0.4623  0.1942
18766TIP3    H177713   0.139   4.166  16.680 -2.0789  2.1171 -0.3161
18766TIP3    H277714   0.261   4.256  16.669 -1.2846  1.0817 -0.1500
18767TIP3   OH277715   3.903   2.487  12.653  0.0081  0.1919 -0.2788
18767TIP3    H177716   3.815   2.458  12.680  0.4302  0.5539  1.6467
18767TIP3    H277717   3.959   2.411  12.669  0.5788  0.9741  1.7741
18768TIP3   OH277718   0.773   4.691   1.828 -0.3253  0.1324 -0.0011
18768TIP3    H177719   0.805   4.601   1.829  0.2883  0.3369 -0.6065
18768TIP3    H277720   0.716   4.697   1.905 -1.6897 -1.2504 -0.8322
18769TIP3   OH277721   3.930   3.732  13.969 -0.4436  0.3424 -0.0413
18769TIP3    H177722   3.995   3.664  13.949 -0.7025 -0.1339  0.6910
18769TIP3    H277723   3.850   3.703  13.924 -1.1379 -0.9337  1.8947
18770TIP3   OH277724   5.507   1.444   0.278  0.4602  0.1457 -0.2766
18770TIP3    H177725   5.559   1.411   0.204  1.5112  1.1525 -0.0128
18770TIP3    H277726   5.570   1.490   0.333 -0.1588 -1.1683  1.6403
18771TIP3   OH277727   1.491   2.428  14.167 -0.4632 -0.5027 -0.2275
18771TIP3    H177728   1.504   2.388  14.253 -0.7524 -0.5011 -0.1820
18771TIP3    H277729   1.537   2.370  14.107  0.4514 -0.0509  0.0246
18772TIP3   OH277730   0.103   5.717   3.633  0.0428 -0.7905  0.6016
18772TIP3    H177731   0.197   5.737   3.633 -0.3286  1.1652 -0.1810
18772TIP3    H277732   0.082   5.705   3.726  0.6821  0.8717  0.9987
18773TIP3   OH277733   0.223   5.526   0.993  0.3487  0.6755 -0.0760
18773TIP3    H177734   0.157   5.464   1.022  0.6112  0.2099 -0.4654
18773TIP3    H277735   0.173   5.604   0.967  0.0070  0.5663  0.2469
18774TIP3   OH277736   0.441   0.253   6.156 -0.5862  0.3349  0.4807
18774TIP3    H177737   0.511   0.306   6.118  0.0386 -1.0748 -0.3792
18774TIP3    H277738   0.381   0.237   6.083 -0.7888 -0.1122  0.7441
18775TIP3   OH277739   4.906   2.095   4.804 -0.3476 -0.2429  0.4680
18775TIP3    H177740   4.953   2.012   4.812 -1.4408 -1.0051 -0.7722
18775TIP3    H277741   4.860   2.105   4.888  0.7499 -0.2616  1.0886
18776TIP3   OH277742   3.832   1.146   3.154  0.0092  0.1769 -0.7353
18776TIP3    H177743   3.744   1.110   3.163 -0.8417  2.4017  0.4319
18776TIP3    H277744   3.820   1.228   3.107  1.2052  1.3768  0.9591
18777TIP3   OH277745   4.260   4.969  13.131  0.2490  0.0632 -0.1035
18777TIP3    H177746   4.235   4.931  13.215  2.6061 -0.3945  0.4820
18777TIP3    H277747   4.328   4.910  13.097  3.2946  2.9825  0.3342
18778TIP3   OH277748   4.844   4.150   0.365 -0.7051  0.0314 -0.2487
18778TIP3    H177749   4.923   4.163   0.312  0.1654  0.6771  1.1506
18778TIP3    H277750   4.877   4.135   0.454 -2.1347 -0.7932  0.1641
18779TIP3   OH277751   4.676   3.082  11.374 -0.1421  0.1067  0.0274
18779TIP3    H177752   4.685   3.005  11.431 -0.9296 -0.5069 -0.6440
18779TIP3    H277753   4.707   3.053  11.289  0.6044  0.8836  0.0247
18780TIP3   OH277754   4.341   1.160   0.180  0.0594 -0.5214  0.1835
18780TIP3    H177755   4.354   1.255   0.185  0.1495 -0.5284  0.0815
18780TIP3    H277756   4.427   1.123   0.197 -0.1478 -0.6122  1.0960
18781TIP3   OH277757   2.987   0.205   3.579  0.0006  0.5922  0.2811
18781TIP3    H177758   3.038   0.176   3.503 -0.6319  1.6595 -0.5833
18781TIP3    H277759   2.998   0.300   3.580  0.2260  0.5678  1.7078
18782TIP3   OH277760   3.755   1.675   3.160  0.2205  0.1425  0.0456
18782TIP3    H177761   3.754   1.699   3.252 -1.8458 -1.4989  0.5152
18782TIP3    H277762   3.733   1.756   3.114  1.2233  0.9660  0.9746
18783TIP3   OH277763   1.262   1.332  16.389 -0.1339 -0.8886  0.5236
18783TIP3    H177764   1.333   1.363  16.445 -1.0527  2.8358 -0.1097
18783TIP3    H277765   1.182   1.363  16.431 -1.0903 -1.1888 -0.9895
18784TIP3   OH277766   2.446   0.248   1.056  0.5007 -0.3091 -0.0572
18784TIP3    H177767   2.486   0.313   1.113 -1.1183  0.7176 -0.0464
18784TIP3    H277768   2.406   0.298   0.985  0.9566 -1.4474 -1.1775
18785TIP3   OH277769   4.855   2.588  11.683  0.1914 -0.0977  0.1622
18785TIP3    H177770   4.842   2.515  11.744 -0.2745 -0.1856 -0.0374
18785TIP3    H277771   4.784   2.648  11.703  0.5383  0.2777  0.2814
18786TIP3   OH277772   1.575   4.054  15.854 -0.0759  0.6776 -0.4951
18786TIP3    H177773   1.608   4.132  15.899 -0.4839  0.3561  0.3772
18786TIP3    H277774   1.493   4.083  15.813 -0.5494  0.5694  0.3438
18787TIP3   OH277775   4.155   3.937   2.541  0.7664  0.2276  0.0753
18787TIP3    H177776   4.088   3.993   2.502  0.5406 -1.2836 -1.8223
18787TIP3    H277777   4.136   3.939   2.635 -2.6082 -0.9710 -0.4476
18788TIP3   OH277778   4.241   4.840  13.995 -0.0401  0.1494  0.2149
18788TIP3    H177779   4.159   4.876  14.028  0.1876  0.3448  0.5829
18788TIP3    H277780   4.235   4.848  13.900 -0.9701 -0.9763  0.1565
18789TIP3   OH277781   0.772   5.112  13.450 -0.5784  0.4614 -0.2521
18789TIP3    H177782   0.777   5.177  13.381  0.1525  0.3693 -0.3004
18789TIP3    H277783   0.691   5.063  13.433 -1.0132  1.2105 -0.3402
18790TIP3   OH277784   0.652   0.436  14.631 -0.1242 -0.2185  0.0016
18790TIP3    H177785   0.721   0.439  14.697  0.6562 -1.2660 -0.7418
18790TIP3    H277786   0.595   0.364  14.658 -1.5330  1.2564  1.1519
18791TIP3   OH277787   3.221   3.463   2.321  0.1278  0.2513  0.1923
18791TIP3    H177788   3.310   3.457   2.287  0.1175 -0.8120  0.3028
18791TIP3    H277789   3.174   3.391   2.277 -0.1991 -0.3549  1.4880
18792TIP3   OH277790   6.306   6.169  16.748  0.2044  0.0585 -0.0768
18792TIP3    H177791   6.233   6.230  16.741 -0.5468 -0.7559  0.4515
18792TIP3    H277792   6.277   6.091  16.699 -0.0444 -0.9554  1.6074
18793TIP3   OH277793   6.478   3.820   2.743 -0.0209 -0.4989  0.0954
18793TIP3    H177794   6.449   3.896   2.794 -0.7104  0.8366 -2.1538
18793TIP3    H277795   6.530   3.857   2.671  0.6927 -2.2735 -0.3739
18794TIP3   OH277796   4.278   5.823  13.708 -0.6540  0.4635  0.1663
18794TIP3    H177797   4.218   5.837  13.781  0.2299  0.7089  0.8537
18794TIP3    H277798   4.236   5.753  13.656 -1.4778  0.5649  0.6814
18795TIP3   OH277799   1.658   4.558   1.475 -0.2339 -0.0456  0.0365
18795TIP3    H177800   1.593   4.578   1.543 -0.1253 -0.6674  0.3310
18795TIP3    H277801   1.636   4.618   1.403 -1.0544 -0.1499  0.1836
18796TIP3   OH277802   1.512   0.405  13.692 -0.2360 -0.0426  0.7584
18796TIP3    H177803   1.491   0.344  13.763  0.0660 -1.0316  0.0078
18796TIP3    H277804   1.548   0.350  13.622 -1.9487  0.7093 -0.7765
18797TIP3   OH277805   3.533   1.324   1.274  0.4830 -0.0232  0.2573
18797TIP3    H177806   3.474   1.381   1.324  0.7407 -0.2577  0.8341
18797TIP3    H277807   3.475   1.264   1.228  0.2197  0.5367 -0.1493
18798TIP3   OH277808   6.108   0.743   3.128  0.0203  0.8191 -0.0415
18798TIP3    H177809   6.139   0.667   3.176  0.3415  0.6079 -0.5670
18798TIP3    H277810   6.020   0.720   3.099 -0.4707  1.2391  1.0634
18799TIP3   OH277811   2.946   0.197  15.201  0.4107 -0.2432 -0.0475
18799TIP3    H177812   3.020   0.223  15.146  0.3322 -1.0262 -0.5396
18799TIP3    H277813   2.869   0.211  15.145  0.1678  0.6045  0.4751
18800TIP3   OH277814   5.735   5.304   5.730  0.7082  0.2394 -0.9819
18800TIP3    H177815   5.737   5.210   5.711 -2.9906 -0.0894 -0.5637
18800TIP3    H277816   5.726   5.345   5.644  0.6259  0.0716 -1.0548
18801TIP3   OH277817   0.359   2.013  13.825 -0.3597  0.1905 -0.1292
18801TIP3    H177818   0.453   2.016  13.841  0.0955 -0.2882 -2.4131
18801TIP3    H277819   0.336   1.920  13.832 -0.2996  0.0756 -1.3205
18802TIP3   OH277820   4.011   0.217   1.561 -0.4697 -0.1083  0.7762
18802TIP3    H177821   4.000   0.293   1.618  0.2296  0.4325  0.2152
18802TIP3    H277822   3.923   0.182   1.551 -0.9538  1.1741  0.3134
18803TIP3   OH277823   6.723   2.453   1.096 -0.7006 -0.0890  0.2186
18803TIP3    H177824   6.720   2.540   1.055  0.0874 -0.0094  0.3216
18803TIP3    H277825   6.815   2.427   1.091 -0.8137 -0.6188  0.8175
18804TIP3   OH277826   0.140   4.082  15.094 -0.0360 -0.2882 -0.7631
18804TIP3    H177827   0.221   4.047  15.056 -0.4469 -1.9035 -0.2479
18804TIP3    H277828   0.071   4.028  15.056 -0.8380  0.7538 -0.8198
18805TIP3   OH277829   5.862   3.408  12.954 -0.0353  0.8267  0.0037
18805TIP3    H177830   5.776   3.416  12.996 -0.1401  0.7224 -0.1947
18805TIP3    H277831   5.898   3.327  12.990  0.1083  1.0267  0.3187
18806TIP3   OH277832   3.044   5.089  13.769 -0.1328 -0.0707  0.5530
18806TIP3    H177833   2.985   5.133  13.830 -0.2327 -0.7931  0.9896
18806TIP3    H277834   3.130   5.093  13.812  0.3938  1.9478 -0.5729
18807TIP3   OH277835   3.023   3.039   0.445 -0.0935  0.2482  0.3973
18807TIP3    H177836   3.027   3.107   0.378 -0.2169 -0.0481  0.0836
18807TIP3    H277837   3.112   3.033   0.479  0.7422 -1.7026 -1.8736
18808TIP3   OH277838   5.114   1.209   0.585  0.7019  0.1042  0.2665
18808TIP3    H177839   5.174   1.225   0.512  1.0311 -0.3943  0.4259
18808TIP3    H277840   5.066   1.130   0.559  0.4788  0.2038  0.3749
18809TIP3   OH277841   4.890   3.206  14.109  0.0235 -0.1222 -0.0194
18809TIP3    H177842   4.950   3.271  14.072 -1.0091  1.3222  0.7403
18809TIP3    H277843   4.879   3.141  14.040 -1.5349  2.2532 -2.1757
18810TIP3   OH277844   4.071   3.017  13.341  0.1531 -0.0163  0.5009
18810TIP3    H177845   4.145   3.009  13.402  1.7988  1.5841 -1.1647
18810TIP3    H277846   4.026   3.097  13.367 -0.2536 -0.3099  0.7178
18811TIP3   OH277847   0.400   2.410   3.122 -0.0852 -0.1209  0.1556
18811TIP3    H177848   0.468   2.354   3.085 -0.4527 -0.8459  0.5661
18811TIP3    H277849   0.399   2.487   3.064  2.9492  1.2368  1.6661
18812TIP3   OH277850   2.062   1.724   4.425 -0.1049  0.2774 -0.4878
18812TIP3    H177851   1.982   1.768   4.395  0.3085  0.2548 -1.6787
18812TIP3    H277852   2.126   1.744   4.358  0.6865 -0.3542  0.0695
18813TIP3   OH277853   5.951   5.842   4.905  0.1795 -0.2226  0.0283
18813TIP3    H177854   6.008   5.772   4.872  0.3793  0.4436 -1.0613
18813TIP3    H277855   5.885   5.796   4.958  0.2169 -1.2509 -0.7973
18814TIP3   OH277856   0.444   3.395  16.440 -0.3595  0.2019  0.2435
18814TIP3    H177857   0.421   3.477  16.483 -0.7919 -0.2426  0.8950
18814TIP3    H277858   0.527   3.370  16.479 -0.2750  0.2832  0.1145
18815TIP3   OH277859   1.033   3.377   6.083 -0.2928 -0.6273  0.0071
18815TIP3    H177860   1.101   3.404   6.021  0.5683 -1.9927  0.2991
18815TIP3    H277861   0.951   3.388   6.036  0.1401  0.7694 -0.4679
18816TIP3   OH277862   5.191   0.832   5.686  0.0234  0.2444  0.3901
18816TIP3    H177863   5.179   0.739   5.667 -0.4768  0.1526  1.1227
18816TIP3    H277864   5.250   0.834   5.761  2.2939  0.6187 -1.2639
18817TIP3   OH277865   6.151   4.317  12.859  0.0732  0.4132  0.1708
18817TIP3    H177866   6.189   4.404  12.844  0.3158  0.2820  0.0171
18817TIP3    H277867   6.062   4.335  12.888  0.3220  0.7368  0.7751
18818TIP3   OH277868   4.202   6.203  13.407  0.0396 -0.0365  0.1545
18818TIP3    H177869   4.272   6.264  13.383 -0.8148  0.5638 -0.9014
18818TIP3    H277870   4.242   6.145  13.472  1.5022  0.3101 -0.3983
18819TIP3   OH277871   6.666   5.109  11.746  0.7010  0.0307 -0.3304
18819TIP3    H177872   6.715   5.188  11.721  0.1698  1.4250  2.6527
18819TIP3    H277873   6.727   5.037  11.732  1.7551  1.1256 -1.6019
18820TIP3   OH277874   2.105   5.517  13.824 -0.0602 -0.0568 -0.2484
18820TIP3    H177875   2.055   5.579  13.771 -0.2321 -0.3880 -0.4775
18820TIP3    H277876   2.057   5.434  13.816 -0.7449  0.1515  1.3588
18821TIP3   OH277877   3.469   6.187  11.023  0.0164 -0.6815 -0.0272
18821TIP3    H177878   3.543   6.220  10.971  0.4214 -2.1160 -0.4008
18821TIP3    H277879   3.392   6.215  10.974  0.3550 -0.5636 -0.5070
18822TIP3   OH277880   3.852   0.894  16.718  0.3177  0.4561 -0.7504
18822TIP3    H177881   3.829   0.969  16.772  1.3023 -0.7290  1.4436
18822TIP3    H277882   3.855   0.820  16.779 -0.3926 -1.3625 -2.7771
18823TIP3   OH277883   0.669   6.721   0.755 -0.0523  0.2471 -1.2571
18823TIP3    H177884   0.599   6.772   0.714 -0.0496  0.0135 -1.5549
18823TIP3    H277885   0.624   6.658   0.811 -0.1010 -0.1800 -1.7678
18824TIP3   OH277886   3.102   5.797   2.172 -0.7589  0.6905  0.5019
18824TIP3    H177887   3.071   5.812   2.083 -1.3975 -1.0078  0.4174
18824TIP3    H277888   3.170   5.863   2.184  1.8226 -1.1378 -2.4929
18825TIP3   OH277889   1.414   0.844  16.112  0.3862  0.2706  0.1086
18825TIP3    H177890   1.508   0.855  16.124  0.4837 -0.1310 -0.2905
18825TIP3    H277891   1.376   0.922  16.154  0.8653  0.2405  0.6192
18826TIP3   OH277892   2.277   2.128   4.890 -0.1385 -0.1617  0.9793
18826TIP3    H177893   2.338   2.087   4.952  1.8620 -0.7745 -1.2659
18826TIP3    H277894   2.212   2.061   4.872  1.5206 -1.4375 -0.5224
18827TIP3   OH277895   0.286   1.018  11.536  0.2488  0.3201  0.1157
18827TIP3    H177896   0.315   0.982  11.452 -0.2870 -1.1090  0.5125
18827TIP3    H277897   0.365   1.058  11.573  0.5924  0.5763 -0.8588
18828TIP3   OH277898   0.877   5.932   4.406  0.0305 -0.1628 -0.0497
18828TIP3    H177899   0.807   5.925   4.341 -0.7288 -1.5970  0.8490
18828TIP3    H277900   0.844   5.992   4.472  0.8834  1.4510 -1.0359
18829TIP3   OH277901   1.710   3.505   5.229  0.1711 -0.2864  0.6949
18829TIP3    H177902   1.718   3.416   5.263 -2.2098 -0.6934  0.3935
18829TIP3    H277903   1.658   3.495   5.149 -0.1669  1.3758  0.6767
18830TIP3   OH277904   2.042   0.348  15.746 -0.0357 -0.9988 -0.2320
18830TIP3    H177905   2.110   0.322  15.809 -0.1862 -2.0959 -0.5010
18830TIP3    H277906   2.071   0.433  15.714 -0.6005  0.2166  2.2522
18831TIP3   OH277907   2.601   0.501   0.835  0.0976  0.0859 -0.6605
18831TIP3    H177908   2.612   0.596   0.831 -2.1816  0.3603 -2.7597
18831TIP3    H277909   2.507   0.488   0.848  0.1357 -1.8758 -1.8787
18832TIP3   OH277910   6.461   2.238  16.732  0.1116  0.0038  0.3334
18832TIP3    H177911   6.518   2.304  16.772  1.9544  0.3881 -2.6197
18832TIP3    H277912   6.511   2.157  16.737 -1.0054 -0.6523  1.5377
18833TIP3   OH277913   0.583   0.435  15.490 -0.0357 -0.0903 -0.4668
18833TIP3    H177914   0.590   0.341  15.473 -0.3041 -0.1204 -0.4126
18833TIP3    H277915   0.546   0.442  15.578  3.2212  0.0574  1.0466
18834TIP3   OH277916   4.440   3.280  13.338  0.0904  0.4404  0.2778
18834TIP3    H177917   4.479   3.251  13.420  0.2099 -1.7632 -0.4822
18834TIP3    H277918   4.351   3.306  13.361  0.8030  1.9893  1.4284
18835TIP3   OH277919   4.212   5.542  11.758  0.1994 -0.7663  0.3393
18835TIP3    H177920   4.259   5.613  11.803  0.6283 -1.3603  0.8417
18835TIP3    H277921   4.140   5.586  11.712  0.6575  0.0318  0.3757
18836TIP3   OH277922   1.920   3.142  10.417 -0.4783 -0.1775  0.3352
18836TIP3    H177923   1.856   3.193  10.367  1.9105  0.2485 -2.6759
18836TIP3    H277924   1.943   3.070  10.358  2.0192 -0.0652  1.0622
18837TIP3   OH277925   4.372   1.512   4.563 -0.2009 -0.2936 -0.4608
18837TIP3    H177926   4.326   1.559   4.632  0.8422  1.5829 -0.9699
18837TIP3    H277927   4.438   1.459   4.608 -0.0014  0.3697  0.0335
18838TIP3   OH277928   4.025   3.082  13.685 -0.4988 -0.2369 -0.3146
18838TIP3    H177929   4.096   3.142  13.708 -1.5500  0.8253  0.1928
18838TIP3    H277930   4.060   2.995  13.707  0.7477  0.2334 -0.3559
18839TIP3   OH277931   0.715   4.591   1.325  0.3498 -0.4339 -0.3265
18839TIP3    H177932   0.683   4.510   1.286  0.2847  0.1919 -1.5903
18839TIP3    H277933   0.640   4.650   1.326  1.3235  1.0844 -3.4292
18840TIP3   OH277934   1.243   5.054  11.327  0.9598  0.4921 -0.2247
18840TIP3    H177935   1.272   5.119  11.262 -0.5582  0.8413 -0.6013
18840TIP3    H277936   1.198   4.987  11.276 -0.8822  1.1168  0.4536
18841TIP3   OH277937   2.358   2.850   4.650 -0.4844  0.2323 -0.1165
18841TIP3    H177938   2.353   2.770   4.598 -0.9944  1.0078 -1.3171
18841TIP3    H277939   2.338   2.920   4.588  0.7912  1.3767  0.7182
18842TIP3   OH277940   1.444   5.112  16.909  0.5770  0.2430 -0.3683
18842TIP3    H177941   1.351   5.112  16.886  0.1687  0.6401  1.1891
18842TIP3    H277942   1.488   5.078  16.831 -0.9561 -0.8268 -0.8036
18843TIP3   OH277943   6.474   5.534  13.310 -0.1694 -0.2573 -0.3729
18843TIP3    H177944   6.424   5.456  13.285 -0.3382 -0.1386 -0.4039
18843TIP3    H277945   6.442   5.603  13.252  0.4099 -0.3070 -0.7638
18844TIP3   OH277946   5.917   0.992  15.911 -0.6427  0.0795  0.6075
18844TIP3    H177947   5.846   0.960  15.857 -0.5264  0.0306  0.4827
18844TIP3    H277948   5.954   0.913  15.952 -0.3082  0.0443  0.2418
18845TIP3   OH277949   2.665   2.726  14.786 -0.2138  0.3225  0.4989
18845TIP3    H177950   2.684   2.637  14.817  0.9158  0.1940 -0.5117
18845TIP3    H277951   2.749   2.771  14.786 -0.1254  0.3392 -2.2319
18846TIP3   OH277952   3.050   0.084   2.694 -0.9214 -0.2086  0.2546
18846TIP3    H177953   3.028   0.172   2.664  1.8035  0.9673  1.3569
18846TIP3    H277954   3.139   0.092   2.730 -1.7634 -2.6633  3.3973
18847TIP3   OH277955   1.214   4.733  11.726  0.3510 -1.1370  0.1742
18847TIP3    H177956   1.147   4.800  11.739  2.3050  0.9393  0.0157
18847TIP3    H277957   1.169   4.664  11.676 -2.0926 -0.6366  1.5253
18848TIP3   OH277958   5.707   5.508  15.962  0.3018  0.4880  0.1670
18848TIP3    H177959   5.685   5.560  15.885 -0.1571  0.2686  0.1446
18848TIP3    H277960   5.691   5.417  15.935  2.0664  0.2388 -0.1159
18849TIP3   OH277961   3.597   4.004   0.860 -0.3010 -0.6497  0.2722
18849TIP3    H177962   3.688   4.017   0.836 -0.1357 -0.3402  1.0418
18849TIP3    H277963   3.556   4.090   0.850 -0.6687 -0.9312 -0.7190
18850TIP3   OH277964   2.833   5.152  10.745  0.0234 -0.0569  0.1095
18850TIP3    H177965   2.837   5.123  10.654 -0.7184  0.5782 -0.1384
18850TIP3    H277966   2.787   5.236  10.741 -1.1897 -0.6292  1.1978
18851TIP3   OH277967   4.851   1.057   0.279 -0.2883  0.3127  0.3392
18851TIP3    H177968   4.925   1.008   0.242 -0.1757  0.4292  0.4040
18851TIP3    H277969   4.814   1.104   0.204 -0.0152  0.6058  0.3844
18852TIP3   OH277970   5.131   5.555   5.068  0.3752 -0.0283 -0.4836
18852TIP3    H177971   5.163   5.619   5.133 -1.0057 -0.8291  1.0787
18852TIP3    H277972   5.175   5.474   5.091  1.3875  0.1122 -1.8531
18853TIP3   OH277973   2.467   3.043  15.479 -0.6579  0.2773 -0.8042
18853TIP3    H177974   2.395   2.982  15.467  0.7633 -1.9109  0.9622
18853TIP3    H277975   2.517   3.037  15.397 -1.6585  0.7294 -1.4722
18854TIP3   OH277976   0.315   6.612   0.022  0.1158  0.1614 -0.1777
18854TIP3    H177977   0.390   6.649  -0.025  0.1269  0.1039 -0.2066
18854TIP3    H277978   0.298   6.673   0.093 -2.1781  2.2276 -2.3150
18855TIP3   OH277979   6.440   6.020  13.673  0.4157  0.0427  0.0554
18855TIP3    H177980   6.511   5.984  13.618 -0.5006 -1.0177 -0.4693
18855TIP3    H277981   6.419   5.950  13.734 -0.4565  0.1986 -0.0562
18856TIP3   OH277982   4.269   1.306  14.131 -0.1452  0.5833 -0.2134
18856TIP3    H177983   4.272   1.253  14.052 -0.4421  0.4251 -0.1230
18856TIP3    H277984   4.183   1.285  14.170 -0.4570  1.4612 -0.4122
18857TIP3   OH277985   6.617   5.611   2.860 -0.1996 -0.1113  0.1809
18857TIP3    H177986   6.570   5.643   2.936  1.9570 -0.7599  1.9030
18857TIP3    H277987   6.551   5.606   2.790 -2.2193  0.6057  1.9523
18858TIP3   OH277988   6.342   3.149   4.045 -0.3185 -0.3558 -0.6366
18858TIP3    H177989   6.408   3.106   4.099  1.6079  0.3180 -2.3235
18858TIP3    H277990   6.267   3.089   4.047  0.2691 -1.1041  1.4337
18859TIP3   OH277991   5.549   4.835   1.709 -0.2729  0.2278  0.3608
18859TIP3    H177992   5.519   4.850   1.620  0.1254 -0.8054  0.0339
18859TIP3    H277993   5.606   4.758   1.702 -0.5295 -0.0879  1.5593
18860TIP3   OH277994   6.525   1.044   6.310 -0.3412 -0.0979 -0.2414
18860TIP3    H177995   6.489   1.133   6.313  1.7206  0.8527 -1.7166
18860TIP3    H277996   6.535   1.025   6.217 -0.1919 -1.6664  0.0700
18861TIP3   OH277997   0.200   1.424   4.347 -0.6947 -0.5392  0.6804
18861TIP3    H177998   0.157   1.429   4.432 -0.4980 -3.3949  1.0563
18861TIP3    H277999   0.293   1.438   4.366 -0.5936 -1.6116  1.0441
18862TIP3   OH278000   5.612   1.095  14.221 -0.5183  0.1555 -0.2328
18862TIP3    H178001   5.592   1.172  14.274  0.0826  1.0441 -1.2583
18862TIP3    H278002   5.550   1.100  14.148  0.4267  0.4445 -1.0308
18863TIP3   OH278003   3.014   2.147   1.201 -0.1842 -0.2737 -1.0321
18863TIP3    H178004   3.010   2.210   1.129 -1.0293 -1.1501 -1.7760
18863TIP3    H278005   3.020   2.062   1.159 -0.2981 -0.7789 -0.0596
18864TIP3   OH278006   4.254   1.263   4.761 -0.0251 -0.1902 -0.1448
18864TIP3    H178007   4.258   1.269   4.666 -1.1259  1.6539 -0.1244
18864TIP3    H278008   4.324   1.321   4.792  0.8578 -1.3955  0.2066
18865TIP3   OH278009   1.784   0.763  11.404  0.6285  0.8866  0.2979
18865TIP3    H178010   1.832   0.772  11.322  1.4141  0.7316  0.7261
18865TIP3    H278011   1.727   0.840  11.408 -0.7629 -0.0042 -1.2349
18866TIP3   OH278012   2.216   3.078   3.030 -0.8802 -0.3150 -0.3708
18866TIP3    H178013   2.163   3.053   2.954 -0.9415 -0.3812 -0.3067
18866TIP3    H278014   2.190   3.016   3.098 -0.0160 -0.9762 -0.6202
18867TIP3   OH278015   2.073   2.538   0.226  0.1122 -0.4350 -0.0802
18867TIP3    H178016   2.167   2.539   0.243 -0.1173 -2.0972  1.5220
18867TIP3    H278017   2.053   2.448   0.201 -0.8702  0.1971 -1.7021
18868TIP3   OH278018   5.440   4.295  16.063 -0.5484 -0.0142  0.2305
18868TIP3    H178019   5.401   4.270  15.979  0.9476  0.0525 -0.5320
18868TIP3    H278020   5.518   4.345  16.038  0.8363 -1.3579  1.6293
18869TIP3   OH278021   0.977   1.212  14.482  0.1524 -0.1843  0.0682
18869TIP3    H178022   0.989   1.305  14.501 -2.4105  0.1693  0.3345
18869TIP3    H278023   0.905   1.209  14.420 -1.7313 -2.0792  2.1691
18870TIP3   OH278024   1.739   0.645  15.592  0.0857  0.0945 -0.2689
18870TIP3    H178025   1.651   0.610  15.582 -1.0233  2.2849  1.0625
18870TIP3    H278026   1.745   0.715  15.526  0.4148  0.6631  0.3438
18871TIP3   OH278027   5.073   4.302   4.952 -0.2133 -0.5295  0.8166
18871TIP3    H178028   5.014   4.361   4.998  0.6309 -0.0823  1.3455
18871TIP3    H278029   5.015   4.251   4.895 -1.3554 -1.4023  2.6463
18872TIP3   OH278030   2.477   3.486  13.262  0.7429 -0.3813 -0.6366
18872TIP3    H178031   2.564   3.511  13.293  0.8415 -1.7579  0.3173
18872TIP3    H278032   2.462   3.399  13.300 -2.8575  1.4768  3.0352
18873TIP3   OH278033   5.047   1.415   3.042 -0.0224 -0.6364  0.1518
18873TIP3    H178034   5.069   1.322   3.048  1.4420 -0.2580  0.9642
18873TIP3    H278035   5.043   1.433   2.949 -0.9019 -1.6269 -0.0252
18874TIP3   OH278036   4.008   0.643  16.055 -0.1421 -0.3669 -0.2902
18874TIP3    H178037   3.914   0.633  16.039 -0.3031 -0.0897  0.4161
18874TIP3    H278038   4.026   0.582  16.126  0.0566  0.1178  0.0822
18875TIP3   OH278039   1.008   6.662  14.831  0.3507  0.1554 -0.1577
18875TIP3    H178040   0.977   6.628  14.747 -0.3186  1.0733 -0.2962
18875TIP3    H278041   0.964   6.746  14.840  0.2491 -0.0329  1.2226
18876TIP3   OH278042   0.953   3.714  13.685 -0.4727  0.2685  0.1215
18876TIP3    H178043   1.036   3.671  13.662 -1.0148  0.3178 -2.1665
18876TIP3    H278044   0.888   3.673  13.628 -1.5946  1.8336  0.2197
18877TIP3   OH278045   6.049   6.484  13.197  0.0311 -0.1696 -0.3130
18877TIP3    H178046   6.124   6.426  13.212  0.9096  1.1935  0.7953
18877TIP3    H278047   6.050   6.500  13.102  0.5662 -0.9099 -0.4429
18878TIP3   OH278048   3.450   3.030  11.601 -0.0179 -0.0400  0.0368
18878TIP3    H178049   3.390   3.046  11.674 -1.3042  0.8679 -1.1631
18878TIP3    H278050   3.393   3.002  11.530  0.7317  2.4103 -1.6491
18879TIP3   OH278051   4.962   3.327  16.173  0.2012  0.4246 -0.4104
18879TIP3    H178052   4.871   3.342  16.197  0.0842 -1.6710  0.6717
18879TIP3    H278053   5.011   3.395  16.220 -0.6190  0.1492  0.8902
18880TIP3   OH278054   2.983   3.348  12.516 -0.1242  0.2731  0.2112
18880TIP3    H178055   3.061   3.402  12.524  0.4097  0.1213 -2.8149
18880TIP3    H278056   3.011   3.261  12.547  0.8790  0.2690 -0.6495
18881TIP3   OH278057   3.672   5.117   1.571 -0.3682 -0.2520  0.0313
18881TIP3    H178058   3.735   5.094   1.502  0.1052 -0.5011  0.5371
18881TIP3    H278059   3.601   5.054   1.561 -0.0585 -0.6104  0.0948
18882TIP3   OH278060   1.963   6.026   5.681 -0.3688  0.5455 -0.3117
18882TIP3    H178061   1.951   6.074   5.600  0.2497 -1.1950 -1.5002
18882TIP3    H278062   1.945   5.935   5.658 -0.7069  0.0590  1.6397
18883TIP3   OH278063   3.562   1.969  16.327 -0.2579 -0.0537 -0.4389
18883TIP3    H178064   3.502   2.043  16.328 -0.1889  0.0286  1.4620
18883TIP3    H278065   3.642   2.002  16.368 -0.3349 -1.2357  0.7312
18884TIP3   OH278066   4.001   5.551   4.614 -0.4084 -0.1135 -0.4711
18884TIP3    H178067   3.943   5.478   4.594  0.3993 -0.9319  0.0972
18884TIP3    H278068   4.088   5.512   4.621 -0.0897  0.7354  0.7449
18885TIP3   OH278069   5.865   5.855  14.814 -0.1218 -0.1172  0.1432
18885TIP3    H178070   5.805   5.784  14.835 -2.4757  1.0194 -2.1196
18885TIP3    H278071   5.920   5.819  14.744  0.0600 -0.3476  0.4040
18886TIP3   OH278072   4.801   5.482   0.046  0.8066 -0.1059  0.0918
18886TIP3    H178073   4.845   5.562   0.017 -0.4619  1.0721  1.2586
18886TIP3    H278074   4.722   5.477  -0.007  0.7161 -0.4117  0.2505
18887TIP3   OH278075   1.854   1.006   2.670 -0.0866 -0.1269 -0.4161
18887TIP3    H178076   1.933   1.026   2.721 -0.3022  0.5603 -0.3419
18887TIP3    H278077   1.787   0.989   2.736  0.4539 -2.7678 -0.4425
18888TIP3   OH278078   2.786   5.570  12.126  1.1034 -0.3084 -0.6699
18888TIP3    H178079   2.746   5.490  12.094 -0.8551  0.8106 -1.1653
18888TIP3    H278080   2.725   5.640  12.101  1.7652  1.1365  1.3986
18889TIP3   OH278081   6.079   6.001  15.190  0.5278 -0.1029 -0.5339
18889TIP3    H178082   6.005   5.947  15.217  0.1865 -0.1913 -1.5976
18889TIP3    H278083   6.147   5.982  15.255 -0.4785  0.2507  0.6677
18890TIP3   OH278084   3.645   0.344  13.361  0.1698  0.2976 -0.2013
18890TIP3    H178085   3.713   0.278  13.349 -1.5995 -1.4928 -0.8766
18890TIP3    H278086   3.624   0.374  13.273  0.2874  1.0779  0.0286
18891TIP3   OH278087   2.823   2.305  13.640  0.3501  0.0104  0.2534
18891TIP3    H178088   2.783   2.277  13.723 -1.0448  1.5944  0.1650
18891TIP3    H278089   2.819   2.226  13.585 -3.2863  0.1212  0.0705
18892TIP3   OH278090   3.740   0.728   4.979 -0.2757 -0.3029  0.5143
18892TIP3    H178091   3.761   0.809   4.932 -0.2676  1.6466  3.6100
18892TIP3    H278092   3.645   0.718   4.969 -0.3763  0.4772  0.6104
18893TIP3   OH278093   3.861   2.734   3.609  0.0967 -0.1602 -0.0791
18893TIP3    H178094   3.793   2.668   3.596 -0.1458  0.3503 -1.5831
18893TIP3    H278095   3.886   2.761   3.521  2.2862 -0.3390  0.4141
18894TIP3   OH278096   4.233   0.672   5.537  0.2781  0.6698  0.3916
18894TIP3    H178097   4.248   0.767   5.537 -0.3926  0.8266  2.6157
18894TIP3    H278098   4.288   0.639   5.608  0.7481 -0.6814 -0.5650
18895TIP3   OH278099   6.357   1.650  16.442  0.0286  0.1019 -0.6568
18895TIP3    H178100   6.325   1.569  16.402 -1.3509  1.1839 -1.8447
18895TIP3    H278101   6.295   1.668  16.513  2.8720 -2.2129  2.7786
18896TIP3   OH278102   0.003   5.849  14.636 -0.0402  0.1235 -0.0874
18896TIP3    H178103  -0.001   5.852  14.540 -1.9462  1.0237 -0.0371
18896TIP3    H278104  -0.053   5.776  14.660 -2.1334  1.7670  0.3647
18897TIP3   OH278105   3.712   5.357  16.029 -0.0239  0.1985  0.4744
18897TIP3    H178106   3.735   5.437  16.075 -1.5258  0.4863  0.7749
18897TIP3    H278107   3.673   5.387  15.946 -0.1671 -0.2297  0.3820
18898TIP3   OH278108   5.442   2.179   4.431  0.5015  0.3956  0.2211
18898TIP3    H178109   5.442   2.108   4.367  1.1726  0.2250  0.4037
18898TIP3    H278110   5.352   2.182   4.465 -0.0811  1.0016 -1.2842
18899TIP3   OH278111   0.824   0.761   6.407 -0.4675  1.0551  0.0228
18899TIP3    H178112   0.778   0.828   6.357 -1.2979  1.5405  1.4077
18899TIP3    H278113   0.916   0.789   6.405 -0.2824  0.5175 -2.0459
18900TIP3   OH278114   1.625   2.961  15.107  0.3606  0.0910 -0.3651
18900TIP3    H178115   1.654   2.944  15.017 -0.6252  1.1980 -0.9144
18900TIP3    H278116   1.584   3.047  15.103  0.3558  0.1787  1.1703
18901TIP3   OH278117   5.395   2.182   5.761 -0.0335 -0.4260 -0.4462
18901TIP3    H178118   5.428   2.156   5.675  1.2355  0.6837 -0.3311
18901TIP3    H278119   5.464   2.156   5.822 -1.3625 -2.1309  0.4028
18902TIP3   OH278120   0.833   3.757   2.460  0.1382 -0.8251  0.3755
18902TIP3    H178121   0.742   3.728   2.470  0.3125 -0.7739  2.4863
18902TIP3    H278122   0.842   3.775   2.366 -1.9590 -1.0323  0.0873
18903TIP3   OH278123   5.471   4.520   3.763 -0.8981 -0.0213 -0.1080
18903TIP3    H178124   5.523   4.453   3.718 -0.5710 -1.0382  1.6877
18903TIP3    H278125   5.406   4.470   3.814  0.5790  0.8269  2.8226
18904TIP3   OH278126   3.494   0.430  11.919 -0.1684 -0.4260  0.2319
18904TIP3    H178127   3.496   0.522  11.892  0.9558 -0.3224  0.6200
18904TIP3    H278128   3.478   0.433  12.013 -1.4752 -0.7000  0.0476
18905TIP3   OH278129   2.815   0.489   4.544  0.0672  0.3209 -0.4576
18905TIP3    H178130   2.768   0.407   4.561  0.6992 -0.1796 -1.0734
18905TIP3    H278131   2.905   0.462   4.526  0.2298  1.1340 -0.9044
18906TIP3   OH278132   6.478   5.663  15.910 -0.0722  0.7346 -0.6923
18906TIP3    H178133   6.390   5.701  15.904 -0.8221 -0.9553 -1.0491
18906TIP3    H278134   6.479   5.597  15.840  0.6235 -0.9249  0.8314
18907TIP3   OH278135   6.437   2.806  12.166 -0.5894 -0.2120  1.0379
18907TIP3    H178136   6.469   2.888  12.127  1.2904 -1.1449  0.4589
18907TIP3    H278137   6.377   2.833  12.235  0.2129  1.6591  1.0537
18908TIP3   OH278138   1.117   1.619  16.578  0.5929 -0.2147 -0.2006
18908TIP3    H178139   1.093   1.616  16.485  0.4137  0.8562 -0.2029
18908TIP3    H278140   1.178   1.693  16.584  0.3284 -0.0582  0.5872
18909TIP3   OH278141   5.484   3.241  17.218 -0.0400 -0.0262  0.0746
18909TIP3    H178142   5.448   3.244  17.306 -0.7414  1.0039 -0.2385
18909TIP3    H278143   5.421   3.288  17.164 -0.8421 -2.6432 -1.4312
18910TIP3   OH278144   6.507   0.610   0.709 -0.8836 -0.1681 -0.3057
18910TIP3    H178145   6.528   0.521   0.736  2.0170  0.1033 -1.3037
18910TIP3    H278146   6.479   0.603   0.618  1.3877  0.0363 -1.0916
18911TIP3   OH278147   4.987   1.824   3.373  0.0737  0.5333  0.7354
18911TIP3    H178148   5.041   1.755   3.333 -0.4188  0.7421 -0.3501
18911TIP3    H278149   4.898   1.790   3.369 -0.0410  0.7718  1.2198
18912TIP3   OH278150   5.623   3.389  13.135 -0.3032  0.1747  0.8391
18912TIP3    H178151   5.583   3.307  13.165  0.1275  0.6663  2.9632
18912TIP3    H278152   5.549   3.449  13.123 -0.5207 -0.1596  0.4999
18913TIP3   OH278153   1.216   3.458  16.894 -0.1423 -0.1888 -0.9062
18913TIP3    H178154   1.260   3.453  16.979 -0.7671 -1.5331 -0.6326
18913TIP3    H278155   1.142   3.516  16.909 -0.3128 -0.5082 -0.4950
18914TIP3   OH278156   3.543   1.997   4.330 -0.0861 -0.5129  0.1434
18914TIP3    H178157   3.543   2.041   4.415  0.7137  0.6460 -0.4375
18914TIP3    H278158   3.564   2.066   4.267 -0.2475 -1.4387 -0.9568
18915TIP3   OH278159   5.635   1.373  12.319 -0.1955 -0.1378 -0.2878
18915TIP3    H178160   5.666   1.285  12.296  0.5939  0.4428 -1.4932
18915TIP3    H278161   5.647   1.425  12.240 -2.1239  0.6966 -0.0800
18916TIP3   OH278162   0.554   6.213   3.435 -0.5367  0.0221  0.1187
18916TIP3    H178163   0.605   6.259   3.368  0.8215 -0.0031  1.1039
18916TIP3    H278164   0.526   6.132   3.392  1.3253 -0.5528 -0.0853
18917TIP3   OH278165   2.498   0.956   0.416 -0.2072 -0.1182 -0.0629
18917TIP3    H178166   2.504   1.048   0.388 -0.5904 -0.0854 -0.0474
18917TIP3    H278167   2.526   0.957   0.508 -1.9401  0.2923  0.5028
18918TIP3   OH278168   4.285   1.824  16.156 -0.1562 -0.3836  0.4486
18918TIP3    H178169   4.366   1.784  16.126 -0.1550 -1.4903  1.8313
18918TIP3    H278170   4.228   1.750  16.178 -0.5177  0.3393  2.1454
18919TIP3   OH278171   1.110   4.004   4.090 -0.0408 -0.0114  0.0760
18919TIP3    H178172   1.064   3.938   4.142  0.3711  0.9106  1.6800
18919TIP3    H278173   1.202   3.975   4.090 -0.1559 -0.4005 -0.7926
18920TIP3   OH278174   3.851   1.664  11.994 -0.2149  0.0974  0.5218
18920TIP3    H178175   3.884   1.605  11.926 -1.8017  0.4473 -0.6125
18920TIP3    H278176   3.906   1.646  12.070 -0.8643 -3.1294  0.3492
18921TIP3   OH278177   5.785   0.758   4.009  0.2180  0.4560 -0.1499
18921TIP3    H178178   5.847   0.765   3.936  0.1560 -0.5095 -0.3141
18921TIP3    H278179   5.700   0.776   3.970  0.2328  0.3454 -0.2344
18922TIP3   OH278180   1.214   5.781  13.142 -0.3128 -0.5926 -0.1327
18922TIP3    H178181   1.127   5.741  13.147 -0.4346 -0.2151  1.1007
18922TIP3    H278182   1.272   5.709  13.116 -0.5982 -1.4911  1.5840
18923TIP3   OH278183   3.892   5.443   4.366 -0.2892 -0.5097  0.3950
18923TIP3    H178184   3.862   5.360   4.329 -0.4606 -0.6515  0.8404
18923TIP3    H278185   3.815   5.500   4.359 -0.0424 -0.2600 -0.2937
18924TIP3   OH278186   1.177   4.598   1.311  0.0252 -0.1863  0.0051
18924TIP3    H178187   1.227   4.677   1.330 -0.1734  0.4859 -2.0202
18924TIP3    H278188   1.244   4.530   1.298  0.4331  0.5174 -1.8579
18925TIP3   OH278189   4.134   3.578   4.855  0.1936 -0.6741  0.4857
18925TIP3    H178190   4.071   3.637   4.814  0.1094 -0.0263  1.4971
18925TIP3    H278191   4.152   3.511   4.789 -0.5951 -0.1611 -0.2644
18926TIP3   OH278192   0.463   0.332  13.805 -0.5287 -0.2020  0.1607
18926TIP3    H178193   0.529   0.401  13.808 -1.1801  0.4479 -0.0301
18926TIP3    H278194   0.501   0.259  13.854  0.2347  0.2369  0.2302
18927TIP3   OH278195   3.470   6.772   4.879  0.3215  0.6188  0.4154
18927TIP3    H178196   3.427   6.741   4.959  1.0271  0.3896  0.7173
18927TIP3    H278197   3.398   6.800   4.822 -0.1796  1.0327  1.2284
18928TIP3   OH278198   1.058   1.854   5.582  0.1773 -0.6960 -0.1226
18928TIP3    H178199   1.121   1.873   5.512 -1.5906  1.9181 -1.1714
18928TIP3    H278200   1.060   1.759   5.590  2.8146 -0.8603 -1.4326
18929TIP3   OH278201   4.151   5.814   6.518  0.0589 -0.1219  0.3865
18929TIP3    H178202   4.100   5.859   6.450 -0.4655 -0.6490  0.4217
18929TIP3    H278203   4.235   5.796   6.476  0.2824  0.8940  0.3763
18930TIP3   OH278204   0.754   5.344  14.817 -0.0061  0.0898 -0.0019
18930TIP3    H178205   0.832   5.325  14.765 -2.3021 -0.4157 -3.5817
18930TIP3    H278206   0.718   5.258  14.837 -0.0704  0.3408  0.9810
18931TIP3   OH278207   0.267   5.939  11.041 -0.1945  0.2583 -0.7825
18931TIP3    H178208   0.185   5.947  11.090  0.1505  1.6208 -0.3985
18931TIP3    H278209   0.239   5.909  10.954 -1.2280  1.6653 -0.9801
18932TIP3   OH278210   6.526   3.793   5.111  0.1243 -0.2295  0.0406
18932TIP3    H178211   6.467   3.865   5.133  1.3096  0.6946  0.3299
18932TIP3    H278212   6.553   3.812   5.021 -0.5466 -1.0298 -0.3372
18933TIP3   OH278213   0.178   2.512  15.859  0.1118  0.0676  0.7067
18933TIP3    H178214   0.190   2.486  15.768  0.0218 -0.6223  0.8829
18933TIP3    H278215   0.249   2.467  15.906 -0.7008 -0.7559  1.1755
18934TIP3   OH278216   1.444   2.978   0.788  0.2157  0.1053 -0.5392
18934TIP3    H178217   1.379   2.913   0.760 -1.4532  0.6598  1.7543
18934TIP3    H278218   1.523   2.927   0.805 -0.9315 -1.3254  0.8173
18935TIP3   OH278219   0.727   6.571   5.027  0.4500  0.2618  0.3915
18935TIP3    H178220   0.763   6.648   5.070 -0.7678  0.9696  0.2083
18935TIP3    H278221   0.650   6.604   4.980  1.2858 -0.6144 -1.7364
18936TIP3   OH278222   4.395   5.423   1.563 -0.3160  0.7267  0.2441
18936TIP3    H178223   4.437   5.409   1.478 -1.5488 -2.2054  0.0136
18936TIP3    H278224   4.455   5.385   1.626  1.0311  3.6945  0.9269
18937TIP3   OH278225   4.425   6.758   4.204  0.1615 -0.5464 -0.1316
18937TIP3    H178226   4.515   6.760   4.234 -0.2275 -0.6628  1.1034
18937TIP3    H278227   4.422   6.820   4.131  0.4926  2.2508  2.0647
18938TIP3   OH278228   1.850   4.930   6.375  0.5710 -0.4340 -0.0811
18938TIP3    H178229   1.816   4.975   6.452 -0.2592 -1.7681  0.3793
18938TIP3    H278230   1.850   4.997   6.306  1.1176  0.7187  1.0001
18939TIP3   OH278231   0.717   1.587   4.823 -0.3040  0.0771  0.8341
18939TIP3    H178232   0.780   1.582   4.751  0.8474  1.6741  1.6673
18939TIP3    H278233   0.769   1.575   4.902 -0.5714  3.4271  1.6674
18940TIP3   OH278234   0.413   6.593  15.944  0.2433  0.4642 -0.1345
18940TIP3    H178235   0.390   6.521  15.886  0.2699  2.4402 -2.7965
18940TIP3    H278236   0.508   6.585  15.956  0.6161  1.1597 -2.1729
18941TIP3   OH278237   4.174   6.677   1.435  0.1616 -0.6827  0.0845
18941TIP3    H178238   4.119   6.660   1.358  0.4434  0.6903 -0.4537
18941TIP3    H278239   4.215   6.593   1.454 -2.2375 -1.8126  0.6177
18942TIP3   OH278240   1.814   2.721   1.989  0.5996  0.1735 -0.1441
18942TIP3    H178241   1.894   2.743   2.037  0.4579  0.5266 -0.0665
18942TIP3    H278242   1.743   2.748   2.048  0.4230 -0.3528 -0.1126
18943TIP3   OH278243   0.883   4.173   5.417 -0.1131 -0.4398 -0.0510
18943TIP3    H178244   0.907   4.190   5.326  3.3888  0.9863  0.9536
18943TIP3    H278245   0.963   4.137   5.456 -1.6228 -1.3755  2.3892
18944TIP3   OH278246   2.315   5.300   5.437 -0.6318 -0.0676 -0.1133
18944TIP3    H178247   2.276   5.386   5.454 -1.6719 -0.5677  0.0739
18944TIP3    H278248   2.385   5.318   5.375  2.7018  1.6959  3.7215
18945TIP3   OH278249   2.310   3.359  17.031  0.3988 -0.6195 -0.3197
18945TIP3    H178250   2.272   3.273  17.049  0.3761 -0.7166 -0.8307
18945TIP3    H278251   2.244   3.403  16.976  0.5503 -0.3935 -0.3222
18946TIP3   OH278252   0.830   1.773  14.539  0.6469 -0.2862 -0.0436
18946TIP3    H178253   0.750   1.815  14.507 -0.0449  0.2423  2.1692
18946TIP3    H278254   0.881   1.755  14.461 -0.8065  1.1004 -1.3800
18947TIP3   OH278255   5.912   0.549   1.390  0.2043  0.1781 -0.4638
18947TIP3    H178256   5.832   0.600   1.405  0.8602  0.8085  1.0893
18947TIP3    H278257   5.942   0.578   1.303 -1.4783 -0.4284 -1.2976
18948TIP3   OH278258   6.618   2.992   1.991 -0.0020 -0.6353  0.2586
18948TIP3    H178259   6.630   2.924   2.057  0.4944 -0.5064  0.3099
18948TIP3    H278260   6.666   3.067   2.026 -2.4506  0.5479  1.3433
18949TIP3   OH278261   0.055   1.853  12.567  0.1482  0.1461  0.2141
18949TIP3    H178262   0.144   1.886  12.553 -0.2244  0.9652 -0.2907
18949TIP3    H278263   0.066   1.781  12.630  1.3440 -0.8254 -1.0371
18950TIP3   OH278264   1.044   5.129   5.102 -0.0788  0.5317 -0.3501
18950TIP3    H178265   1.111   5.088   5.047 -0.3812  0.4874 -0.6854
18950TIP3    H278266   1.080   5.215   5.123  1.2417 -0.3953  1.5630
18951TIP3   OH278267   2.628   4.853   5.614  0.4003  0.3523 -0.3932
18951TIP3    H178268   2.652   4.852   5.707  0.8268  0.7740 -0.4919
18951TIP3    H278269   2.710   4.877   5.569  0.9366 -2.4928 -1.1075
18952TIP3   OH278270   4.667   5.024  14.995  0.4585  0.0878  0.1945
18952TIP3    H178271   4.689   4.935  14.968 -1.1664 -1.0967  2.3978
18952TIP3    H278272   4.581   5.040  14.958 -0.0354  0.0008  1.2586
18953TIP3   OH278273   6.615   1.782  16.502 -0.5551 -0.4304  0.3058
18953TIP3    H178274   6.603   1.832  16.421 -1.1049  1.3904  1.4428
18953TIP3    H278275   6.659   1.702  16.475 -0.0077  0.4825 -1.6848
18954TIP3   OH278276   3.285   1.685   2.832 -0.3971 -0.7225  0.3433
18954TIP3    H178277   3.245   1.659   2.749 -0.2012 -2.3110  0.7144
18954TIP3    H278278   3.217   1.668   2.897  0.2813 -1.8494  0.7827
18955TIP3   OH278279   4.383   0.709   3.717 -0.1984  0.2639 -0.1592
18955TIP3    H178280   4.447   0.658   3.768 -0.3633 -0.8853 -1.0618
18955TIP3    H278281   4.427   0.792   3.700  0.5044  0.0313  0.4361
18956TIP3   OH278282   3.258   4.584  11.843 -0.3001 -0.1228  0.1255
18956TIP3    H178283   3.351   4.563  11.852 -0.5112 -1.2544 -0.1792
18956TIP3    H278284   3.250   4.672  11.880  0.6730 -0.4990  1.3104
18957TIP3   OH278285   3.761   2.955   0.906 -0.1661  0.4425 -0.8652
18957TIP3    H178286   3.679   2.987   0.866 -0.5172  1.0300  0.2971
18957TIP3    H278287   3.825   3.024   0.888 -0.8081  1.6780  1.2275
18958TIP3   OH278288   1.717   2.900  10.345 -0.6100  0.1991  0.2092
18958TIP3    H178289   1.649   2.967  10.342 -0.7048  0.0702 -1.0572
18958TIP3    H278290   1.746   2.890  10.254 -0.0056 -0.8736  0.4908
18959TIP3   OH278291   3.670   3.900  13.725 -0.2965 -0.2568  0.5300
18959TIP3    H178292   3.593   3.878  13.778 -1.0630  1.6063  0.2671
18959TIP3    H278293   3.674   3.832  13.658 -0.4436 -1.5626  1.8048
18960TIP3   OH278294   3.903   5.103  14.797 -0.1115 -0.5850 -0.2214
18960TIP3    H178295   3.896   5.037  14.729  1.3198  0.4538 -1.4555
18960TIP3    H278296   3.851   5.069  14.870 -0.2912 -2.5314 -1.1992
18961TIP3   OH278297   0.276   1.604  11.447 -0.1976 -0.0113  0.6891
18961TIP3    H178298   0.322   1.688  11.444  1.1556 -0.7385 -0.2106
18961TIP3    H278299   0.305   1.563  11.529 -0.9422  0.4294  1.1814
18962TIP3   OH278300   5.718   4.783   3.176  0.1236  0.0037  0.0202
18962TIP3    H178301   5.708   4.754   3.266 -2.1958  0.3535 -0.0636
18962TIP3    H278302   5.654   4.731   3.127  1.0962  0.0604 -1.3905
18963TIP3   OH278303   4.460   0.035   1.814  1.2285 -0.5294 -0.1342
18963TIP3    H178304   4.552   0.025   1.792  1.0674  0.8941 -1.6797
18963TIP3    H278305   4.413   0.010   1.734  0.3461  0.0489  0.1843
18964TIP3   OH278306   0.409   4.248  12.205  0.0172  0.1288  0.4892
18964TIP3    H178307   0.361   4.243  12.122 -0.6264 -1.1600  0.9147
18964TIP3    H278308   0.482   4.307  12.187 -0.0476 -0.2129 -1.0333
18965TIP3   OH278309   1.971   6.522  16.352 -0.1133 -0.3112  0.6559
18965TIP3    H178310   1.915   6.463  16.402  0.5577 -1.3654  0.2010
18965TIP3    H278311   1.910   6.578  16.303 -0.7798 -1.1999  0.4409
18966TIP3   OH278312   6.369   3.076   0.337  0.9089 -1.0478 -0.2735
18966TIP3    H178313   6.349   3.108   0.425 -0.0622 -2.2575 -0.0210
18966TIP3    H278314   6.436   3.136   0.305  0.7974 -0.1667  1.0221
18967TIP3   OH278315   6.535   4.947  14.479  0.1344  0.5974 -0.0368
18967TIP3    H178316   6.504   4.857  14.487 -0.6128  0.8221 -0.2984
18967TIP3    H278317   6.557   4.957  14.386  1.1447  0.4010  0.1691
18968TIP3   OH278318   5.353   3.180   6.886  0.0931  0.6951  0.1388
18968TIP3    H178319   5.395   3.110   6.938 -0.9081 -0.1015 -0.0931
18968TIP3    H278320   5.309   3.133   6.815  0.0464  1.6423 -0.4653
18969TIP3   OH278321   6.253   3.915   0.322 -0.0221 -0.5085  0.3479
18969TIP3    H178322   6.332   3.958   0.354 -0.3431 -0.5637  1.2228
18969TIP3    H278323   6.279   3.823   0.310  0.2579 -0.3714 -0.1232
18970TIP3   OH278324   6.305   3.627   0.694 -0.2020  0.5593 -0.0024
18970TIP3    H178325   6.272   3.544   0.729 -0.4018  0.1392 -1.1713
18970TIP3    H278326   6.382   3.603   0.642  0.5725  1.2738  0.7766
18971TIP3   OH278327   4.527   6.110  16.700 -0.0104  0.5275  0.0541
18971TIP3    H178328   4.480   6.128  16.781 -0.2071  1.1394 -0.1914
18971TIP3    H278329   4.617   6.096  16.728 -0.3509 -0.8751  0.5538
18972TIP3   OH278330   2.615   1.278  13.106  0.1700 -0.0667  0.0376
18972TIP3    H178331   2.658   1.233  13.179 -0.1782  0.1096  0.3548
18972TIP3    H278332   2.631   1.221  13.030 -0.7731 -1.0427  0.5458
18973TIP3   OH278333   2.369   5.220   2.034 -0.4118 -0.6181 -0.5154
18973TIP3    H178334   2.364   5.237   2.128  0.1048  0.8458 -0.7215
18973TIP3    H278335   2.338   5.301   1.994  0.4838 -0.7951 -1.6056
18974TIP3   OH278336   1.528   4.979  10.611 -0.3304  0.0839  0.0590
18974TIP3    H178337   1.496   5.063  10.645  1.6862  0.1630  1.9320
18974TIP3    H278338   1.601   5.003  10.554 -0.6820 -0.3494 -0.5915
18975TIP3   OH278339   4.910   0.565   1.452 -0.0279  0.4271  0.6187
18975TIP3    H178340   4.872   0.531   1.371 -0.2655 -0.1305  0.9591
18975TIP3    H278341   5.003   0.545   1.445 -0.0047  0.6070  0.3756
18976TIP3   OH278342   1.959   1.189   1.901 -0.4115 -0.5930 -0.7299
18976TIP3    H178343   2.022   1.230   1.842 -0.7260 -1.0792 -1.4225
18976TIP3    H278344   1.929   1.111   1.853  1.7839 -2.9539  1.3871
18977TIP3   OH278345   6.104   1.865   6.096 -0.3287 -0.4387  0.2921
18977TIP3    H178346   6.011   1.888   6.099 -1.5441 -4.2910 -1.0897
18977TIP3    H278347   6.125   1.839   6.185 -0.7115 -0.0370  0.5050
18978TIP3   OH278348   0.781   6.577   4.666 -0.6010  0.4032  0.6485
18978TIP3    H178349   0.860   6.552   4.618 -1.0330 -1.2580  0.7122
18978TIP3    H278350   0.765   6.667   4.640 -0.0614  0.0002 -1.3047
18979TIP3   OH278351   5.322   5.112   3.033 -0.4517  0.2772  0.1510
18979TIP3    H178352   5.364   5.065   2.960  0.6367 -1.3279  1.7369
18979TIP3    H278353   5.267   5.178   2.990  2.1386  1.1428 -2.0721
18980TIP3   OH278354   6.546   1.136   5.392 -0.0006 -0.5927 -0.0230
18980TIP3    H178355   6.456   1.104   5.391 -0.1856 -0.0795 -0.0200
18980TIP3    H278356   6.553   1.186   5.474  0.2658 -0.5716 -0.0574
18981TIP3   OH278357   5.846   5.462   0.106 -0.3716  0.1221 -0.4621
18981TIP3    H178358   5.840   5.399   0.178 -0.4797 -0.3260 -0.8561
18981TIP3    H278359   5.934   5.450   0.071  0.6174  2.0822  1.1458
18982TIP3   OH278360   0.345   5.544   3.821  0.2435  0.4731  0.5735
18982TIP3    H178361   0.254   5.565   3.839 -0.1157 -0.9518  0.5282
18982TIP3    H278362   0.342   5.467   3.764  1.4521  1.4203 -0.8560
18983TIP3   OH278363   0.228   5.791  10.760  0.2748  0.5160  0.0699
18983TIP3    H178364   0.203   5.727  10.694  1.2415 -1.0629  1.1640
18983TIP3    H278365   0.248   5.871  10.710 -0.7036 -0.0834 -1.3450
18984TIP3   OH278366   5.337   5.610  14.977 -0.1634  0.5276 -0.2064
18984TIP3    H178367   5.246   5.580  14.967  0.0751  0.2011 -1.5760
18984TIP3    H278368   5.367   5.625  14.888  0.7520  1.8493  0.2890
18985TIP3   OH278369   6.629   2.024  16.676 -0.4362  0.4592  0.1860
18985TIP3    H178370   6.629   1.940  16.630  1.1049  0.3242  0.3909
18985TIP3    H278371   6.719   2.035  16.706 -0.3963  2.6053 -0.5676
18986TIP3   OH278372   0.895   0.543   4.838  0.0355  0.2685 -0.7125
18986TIP3    H178373   0.872   0.537   4.745 -0.2834 -0.2088 -0.6064
18986TIP3    H278374   0.977   0.494   4.845  0.1530  0.4550 -0.7718
18987TIP3   OH278375   4.852   2.144  16.787 -0.3047  0.7703 -0.7913
18987TIP3    H178376   4.816   2.105  16.707 -1.1482 -0.8018  0.3169
18987TIP3    H278377   4.937   2.179  16.760 -0.2800 -0.3042 -2.2280
18988TIP3   OH278378   5.701   6.381   4.440 -0.3254  0.0184 -0.0206
18988TIP3    H178379   5.696   6.467   4.480 -1.7119 -1.1797  2.6852
18988TIP3    H278380   5.779   6.384   4.385 -0.6287  3.1090 -0.4448
18989TIP3   OH278381   4.207   6.514  14.414 -0.1291 -0.1286  0.0201
18989TIP3    H178382   4.149   6.560  14.474 -1.6512 -1.5553 -0.3058
18989TIP3    H278383   4.292   6.513  14.459 -0.4056  1.6877  0.6581
18990TIP3   OH278384   6.249   1.592  15.089  0.7584  0.1972 -0.1855
18990TIP3    H178385   6.257   1.651  15.164 -2.4291  0.0514  0.3786
18990TIP3    H278386   6.230   1.506  15.128  1.7702 -0.4962 -1.1320
18991TIP3   OH278387   2.889   0.059   5.365 -0.0119 -0.3344  0.0391
18991TIP3    H178388   2.795   0.077   5.365 -0.2374 -1.4531  0.3861
18991TIP3    H278389   2.924   0.118   5.431 -0.6442 -0.7398  0.7493
18992TIP3   OH278390   1.553   0.766  10.871  0.3111 -0.4928  0.0458
18992TIP3    H178391   1.587   0.839  10.923  1.1608 -0.1479 -0.9681
18992TIP3    H278392   1.626   0.705  10.865 -0.2391 -1.1992  0.4582
18993TIP3   OH278393   6.586   6.379  15.429 -0.5128 -0.2558 -0.1695
18993TIP3    H178394   6.573   6.385  15.334 -0.4710  1.1637 -0.1020
18993TIP3    H278395   6.663   6.323  15.439 -0.8712 -0.9140 -0.9313
18994TIP3   OH278396   2.123   1.690  16.808  0.2997 -0.0150 -0.1338
18994TIP3    H178397   2.034   1.673  16.779  0.9445 -1.8300 -1.1963
18994TIP3    H278398   2.166   1.605  16.807  2.4227  0.9983 -0.9511
18995TIP3   OH278399   2.180   5.461   3.070 -0.1653  0.3468 -0.3853
18995TIP3    H178400   2.184   5.503   2.984 -1.4094  0.1862 -0.5382
18995TIP3    H278401   2.097   5.491   3.108 -1.3456 -2.2475 -0.6787
18996TIP3   OH278402   3.603   4.676   0.808 -0.2723  0.3862  0.2547
18996TIP3    H178403   3.679   4.659   0.751  2.2898 -0.5752  3.6396
18996TIP3    H278404   3.547   4.600   0.797  0.0790  0.2787 -0.9999
18997TIP3   OH278405   3.718   6.257   2.845 -0.2126  0.1170 -0.1315
18997TIP3    H178406   3.744   6.196   2.914  0.5174  1.3352  0.7164
18997TIP3    H278407   3.725   6.344   2.886 -1.9642  0.7392 -1.0544
18998TIP3   OH278408   5.962   6.543   3.021 -0.3631  0.2123  0.2053
18998TIP3    H178409   5.927   6.612   2.965  1.4168 -0.5186 -1.9239
18998TIP3    H278410   5.888   6.485   3.037 -0.9976  0.6130 -1.1424
18999TIP3   OH278411   4.066   4.538   3.948 -0.2527  0.1508 -0.3966
18999TIP3    H178412   4.038   4.624   3.977  0.8703  0.1424  0.7952
18999TIP3    H278413   4.144   4.519   3.999 -0.7191 -1.7763 -0.3079
19000TIP3   OH278414   2.151   5.247  13.286  0.4163  0.5902 -0.3492
19000TIP3    H178415   2.086   5.197  13.336 -0.5404  0.5922 -1.5355
19000TIP3    H278416   2.169   5.324  13.339 -1.1084  0.9437 -0.3170
19001TIP3   OH278417   0.007   1.328  10.721  0.4195  0.1069  0.1667
19001TIP3    H178418  -0.084   1.320  10.749 -0.1599  1.2595 -1.2442
19001TIP3    H278419   0.009   1.407  10.667  2.1686 -0.1327 -0.1978
19002TIP3   OH278420   1.165   3.020   2.400  0.0735 -0.1535  0.7628
19002TIP3    H178421   1.170   2.924   2.395 -3.4062 -0.3929 -1.0587
19002TIP3    H278422   1.232   3.051   2.339 -0.1221 -1.5098 -0.1904
19003TIP3   OH278423   1.004   2.449  12.480 -0.3996 -0.3891 -0.4819
19003TIP3    H178424   1.006   2.453  12.576 -0.0066 -2.1017 -0.3923
19003TIP3    H278425   0.911   2.453  12.458 -0.4562  0.8116 -0.0979
19004TIP3   OH278426   6.412   5.936   1.869  0.3203  0.2675 -0.2392
19004TIP3    H178427   6.322   5.917   1.844  0.1772  1.2925 -0.5578
19004TIP3    H278428   6.421   6.031   1.857  0.5640  0.6750  2.5149
19005TIP3   OH278429   3.044   3.187   1.647 -0.4087 -0.4540  0.4859
19005TIP3    H178430   3.100   3.173   1.723  1.4833  1.0900 -0.5070
19005TIP3    H278431   3.105   3.186   1.573 -1.9432 -0.2436 -0.8269
19006TIP3   OH278432   1.636   3.112  15.837 -0.1770 -0.1344  0.1698
19006TIP3    H178433   1.622   3.017  15.835  0.8166 -0.3038 -2.2199
19006TIP3    H278434   1.696   3.125  15.911 -1.7539 -1.0796  1.6913
19007TIP3   OH278435   0.649   4.747  11.023 -0.3670 -0.2094 -0.1567
19007TIP3    H178436   0.618   4.725  10.936 -0.4165 -1.2747  0.1259
19007TIP3    H278437   0.740   4.775  11.010 -0.5479  0.1765 -0.6132
19008TIP3   OH278438   2.805   0.511  13.695  0.3022 -0.3276 -0.4187
19008TIP3    H178439   2.800   0.458  13.775 -1.2524  2.2043  1.3322
19008TIP3    H278440   2.715   0.512  13.662  0.2937  1.1431 -0.4069
19009TIP3   OH278441   1.942   1.574  11.685 -0.2632  0.5776 -0.1242
19009TIP3    H178442   1.995   1.593  11.607  0.1147  0.4251  0.0932
19009TIP3    H278443   1.864   1.629  11.674 -0.4459  0.1931 -0.8516
19010TIP3   OH278444   2.021   6.281   3.538 -0.2569  0.3109 -0.7882
19010TIP3    H178445   1.969   6.331   3.475 -0.2373  0.9941 -0.2730
19010TIP3    H278446   2.093   6.340   3.562  1.1353 -0.8568 -1.9710
19011TIP3   OH278447   6.600   5.515  13.895 -0.1916 -0.2135  0.3417
19011TIP3    H178448   6.590   5.467  13.813  0.6846 -1.7775  1.1079
19011TIP3    H278449   6.694   5.530  13.903 -0.0350 -1.6816  1.8860
19012TIP3   OH278450   4.000   3.432  10.338 -0.0303  1.2169  0.3269
19012TIP3    H178451   3.945   3.433  10.260  0.5544 -0.2047 -0.1361
19012TIP3    H278452   3.954   3.490  10.400 -1.8508  0.3947 -0.1720
19013TIP3   OH278453   3.981   3.397  13.974 -0.0246 -0.2392 -0.0355
19013TIP3    H178454   3.937   3.409  14.058 -0.2718 -0.7736 -0.0834
19013TIP3    H278455   3.935   3.323  13.934  0.7337 -0.6235 -0.2047
19014TIP3   OH278456   6.734   5.171  14.857  0.0582 -0.8321  0.8497
19014TIP3    H178457   6.685   5.234  14.911 -0.1899 -0.5110  0.2607
19014TIP3    H278458   6.793   5.225  14.805  1.4793 -1.2647  1.9743
19015TIP3   OH278459   1.705   1.013  15.064  0.0063 -0.2188  0.3790
19015TIP3    H178460   1.670   1.102  15.054 -0.0152 -0.1147  1.2959
19015TIP3    H278461   1.769   1.020  15.134  0.7324 -0.7392 -0.2098
19016TIP3   OH278462   6.675   2.280  15.400  0.0909 -0.6012 -0.0027
19016TIP3    H178463   6.634   2.205  15.443  0.4264 -1.2204 -0.7531
19016TIP3    H278464   6.636   2.282  15.313 -0.8308  0.8518  0.3976
19017TIP3   OH278465   6.006   5.541   5.570 -1.0203  0.0774  0.5009
19017TIP3    H178466   5.956   5.580   5.498 -0.4664 -0.2790 -0.0892
19017TIP3    H278467   5.985   5.595   5.646  0.7709  2.4275 -0.5356
19018TIP3   OH278468   5.390   4.183  12.615  0.1118  0.1664  0.1393
19018TIP3    H178469   5.418   4.234  12.691 -1.3676  1.2440  0.0246
19018TIP3    H278470   5.294   4.190  12.616 -0.0431 -1.3398 -0.7875
19019TIP3   OH278471   3.197   6.436   1.656 -0.0837  0.4234 -0.2722
19019TIP3    H178472   3.271   6.421   1.598  0.1909 -0.6346  0.3201
19019TIP3    H278473   3.123   6.449   1.597  0.4584  0.8951 -0.8645
19020TIP3   OH278474   4.830   0.279   6.288 -0.0348  0.3563  0.2560
19020TIP3    H178475   4.803   0.248   6.202  1.1084  1.8271 -0.6792
19020TIP3    H278476   4.751   0.315   6.327 -0.2649  1.0447 -0.8143
19021TIP3   OH278477   3.744   1.488  14.593  0.0242 -0.5355  0.0626
19021TIP3    H178478   3.716   1.434  14.520  1.8131 -0.0992 -1.0250
19021TIP3    H278479   3.795   1.559  14.553  1.5859 -0.6206  1.7354
19022TIP3   OH278480   3.455   2.933   4.831 -0.1354 -0.1998 -0.2870
19022TIP3    H178481   3.458   2.898   4.920  2.1534  0.2496 -0.1385
19022TIP3    H278482   3.500   2.868   4.778  0.6137  0.6170 -0.6831
19023TIP3   OH278483   4.874   2.771  15.177 -0.3586 -0.0071  0.5938
19023TIP3    H178484   4.860   2.749  15.085 -0.0193 -0.8966  0.7427
19023TIP3    H278485   4.951   2.827  15.177  0.5000 -1.1587  0.4528
19024TIP3   OH278486   2.939   4.061   2.576  0.7023  0.2074 -0.0579
19024TIP3    H178487   2.856   4.019   2.554 -0.9325  3.0126  0.2632
19024TIP3    H278488   2.957   4.120   2.503  4.0194 -2.2724 -1.5100
19025TIP3   OH278489   3.263   1.090   2.176 -0.1609 -0.2659 -0.3026
19025TIP3    H178490   3.191   1.028   2.181  0.6595 -1.3288 -1.2654
19025TIP3    H278491   3.268   1.128   2.264 -1.5142 -0.5803 -0.0739
19026TIP3   OH278492   5.056   3.404   2.601  0.0396  0.1606  0.3679
19026TIP3    H178493   4.969   3.413   2.563 -0.1618 -0.3517  0.6982
19026TIP3    H278494   5.095   3.331   2.554  0.9706  1.4743 -1.0177
19027TIP3   OH278495   3.573   5.507  12.402  0.1065 -0.5268  0.1632
19027TIP3    H178496   3.582   5.527  12.496  0.8811 -0.8884  0.1693
19027TIP3    H278497   3.478   5.507  12.387 -0.0448 -0.9784  1.0557
19028TIP3   OH278498   1.139   2.336   1.135 -0.5562  0.6361 -0.6688
19028TIP3    H178499   1.202   2.325   1.206  0.5793 -0.0901 -1.7283
19028TIP3    H278500   1.142   2.429   1.114 -2.1393  1.1822  1.2756
19029TIP3   OH278501   2.757   6.617  14.914  0.0907 -0.3405  0.1214
19029TIP3    H178502   2.780   6.596  14.824 -0.9328  1.5774 -0.6535
19029TIP3    H278503   2.675   6.570  14.929 -0.2658  0.1186 -0.3254
19030TIP3   OH278504   3.822   4.532  11.612 -0.2533  0.3594 -0.2302
19030TIP3    H178505   3.817   4.453  11.558 -0.2900 -0.5405  1.0409
19030TIP3    H278506   3.790   4.602  11.555 -0.7960 -0.6453 -1.1995
19031TIP3   OH278507   1.632   5.697  16.508  0.0624 -0.2855 -0.0449
19031TIP3    H178508   1.635   5.753  16.430  0.1594  1.4793  1.1507
19031TIP3    H278509   1.708   5.725  16.559 -0.9165 -0.2415  1.4265
19032TIP3   OH278510   1.345   4.499  16.747 -0.4108 -0.4239  0.4554
19032TIP3    H178511   1.400   4.537  16.815 -0.7146 -1.0287  1.0493
19032TIP3    H278512   1.328   4.572  16.687  0.2955 -0.0155  0.7360
19033TIP3   OH278513   5.846   6.303  12.023 -0.1767 -0.3105  0.4513
19033TIP3    H178514   5.899   6.271  11.950 -1.5124  0.5810 -0.9626
19033TIP3    H278515   5.772   6.243  12.028 -1.1595  0.7988 -0.3095
19034TIP3   OH278516   1.106   5.036   1.283 -0.1226 -0.0809  0.0703
19034TIP3    H178517   1.197   5.063   1.296 -0.9239  2.4653  0.8416
19034TIP3    H278518   1.112   4.960   1.225  2.6080 -1.5202  2.0235
19035TIP3   OH278519   5.225   0.300  13.481 -0.2447 -0.6941 -0.3305
19035TIP3    H178520   5.147   0.322  13.429  1.0349  1.4134 -1.5050
19035TIP3    H278521   5.259   0.220  13.442 -1.5670 -1.4444 -0.0333
19036TIP3   OH278522   5.596   2.849   6.130  0.0848 -0.3577 -0.1971
19036TIP3    H178523   5.573   2.936   6.097  0.0450 -0.5411 -0.6520
19036TIP3    H278524   5.621   2.864   6.221  2.9626  0.6165 -1.0366
19037TIP3   OH278525   0.393   1.075  12.552  1.1263  0.2145  0.3625
19037TIP3    H178526   0.390   1.131  12.475  0.3711  0.0629  0.2823
19037TIP3    H278527   0.399   1.136  12.626  0.8809  0.3819  0.2440
19038TIP3   OH278528   1.944   5.348   0.810  1.0048 -0.2093  0.2592
19038TIP3    H178529   1.852   5.331   0.832 -0.0832  2.5457 -1.7049
19038TIP3    H278530   1.964   5.285   0.740  0.4769 -0.4893  0.3546
19039TIP3   OH278531   3.498   2.200   5.082  0.5829 -0.1945 -0.1142
19039TIP3    H178532   3.514   2.256   5.158  2.2733  0.1366 -0.6799
19039TIP3    H278533   3.579   2.205   5.030  0.0259 -1.5756 -1.1926
19040TIP3   OH278534   3.393   6.020  11.636 -0.1692  0.4825 -0.1062
19040TIP3    H178535   3.358   6.095  11.683 -1.8335 -0.1258 -0.3340
19040TIP3    H278536   3.376   5.945  11.693 -0.7961 -0.0539 -0.9724
19041TIP3   OH278537   6.147   5.043   4.456  0.2267  0.5426 -0.3174
19041TIP3    H178538   6.190   5.112   4.404  1.4271 -1.6172 -2.4347
19041TIP3    H278539   6.098   4.992   4.391  1.0388 -1.7659  0.7859
19042TIP3   OH278540   1.007   6.018  13.741  0.5965  0.1241 -0.4012
19042TIP3    H178541   1.015   5.930  13.704 -0.0382 -0.0651 -0.1061
19042TIP3    H278542   1.018   6.077  13.667 -1.7097 -0.2647 -1.1323
19043TIP3   OH278543   1.140   2.028   4.030 -0.5227  0.8070  0.2184
19043TIP3    H178544   1.071   1.994   3.974 -0.2176  0.1330  0.2435
19043TIP3    H278545   1.209   2.056   3.970  0.1146 -0.5926  0.2576
19044TIP3   OH278546   2.941   3.715   4.327 -0.5869 -0.1911 -0.0275
19044TIP3    H178547   3.012   3.764   4.368 -0.1974 -1.4576  0.8709
19044TIP3    H278548   2.972   3.701   4.237 -0.6048  0.9589 -0.2366
19045TIP3   OH278549   3.859   6.734  12.599  0.1631  0.9484  0.1392
19045TIP3    H178550   3.840   6.827  12.585 -1.7527  0.5123 -0.4679
19045TIP3    H278551   3.785   6.688  12.559  1.8612 -0.9285 -1.0098
19046TIP3   OH278552   5.979   6.475  17.234  0.6662  0.3635 -0.1707
19046TIP3    H178553   6.016   6.388  17.217 -0.8225 -0.1618 -0.8687
19046TIP3    H278554   5.904   6.481  17.175 -0.2187  1.4972  1.0305
19047TIP3   OH278555   2.959   6.427   5.324 -0.3661  0.5649 -0.3727
19047TIP3    H178556   2.942   6.377   5.404 -1.8825 -0.0398 -1.0483
19047TIP3    H278557   3.054   6.419   5.311 -0.0123  1.0489  1.5887
19048TIP3   OH278558   6.597   3.394  12.127 -0.9163 -0.5151  0.6619
19048TIP3    H178559   6.636   3.335  12.192 -2.1076 -0.8547  1.0976
19048TIP3    H278560   6.503   3.384  12.139 -1.1556 -0.0453 -0.6508
19049TIP3   OH278561   6.063   2.354  16.244 -0.3112  0.1527 -0.3494
19049TIP3    H178562   6.008   2.425  16.277  0.5111  0.2455  0.8634
19049TIP3    H278563   6.050   2.282  16.307  1.6879  0.5126  0.5522
19050TIP3   OH278564   1.583   2.308  12.429  0.1293 -0.8657  0.1420
19050TIP3    H178565   1.673   2.339  12.438  0.4259 -1.8829  0.8699
19050TIP3    H278566   1.575   2.239  12.495 -1.5648  0.0420  0.9567
19051TIP3   OH278567   3.505   2.832  14.321 -0.1326 -0.0657  0.3108
19051TIP3    H178568   3.508   2.800  14.231  1.6852  0.3118  0.1872
19051TIP3    H278569   3.465   2.761  14.371 -0.2618 -0.6842 -0.6451
19052TIP3   OH278570   4.497   1.955   6.607  0.7007 -0.3136  0.0095
19052TIP3    H178571   4.585   1.945   6.573  0.4549  0.9169 -1.0699
19052TIP3    H278572   4.441   1.959   6.529 -0.1393  0.2687  0.6209
19053TIP3   OH278573   5.618   6.633  12.148 -0.4399 -0.2413 -0.1479
19053TIP3    H178574   5.538   6.681  12.170 -0.7615  0.0362 -1.7971
19053TIP3    H278575   5.689   6.688  12.180 -0.8825 -0.6190  1.5825
19054TIP3   OH278576   6.151   0.210   5.474  0.2199  0.3490  0.0703
19054TIP3    H178577   6.245   0.211   5.461  0.2386 -3.0968 -0.9175
19054TIP3    H278578   6.139   0.199   5.568  0.8657 -0.7129  0.0337
19055TIP3   OH278579   1.755   4.467  12.088  0.4894  0.3138 -0.2884
19055TIP3    H178580   1.827   4.405  12.081  0.2022  0.0005 -0.4889
19055TIP3    H278581   1.683   4.416  12.125  0.8369  1.0097  1.4575
19056TIP3   OH278582   3.291   2.456   1.543  0.0098 -0.6670  0.0219
19056TIP3    H178583   3.368   2.407   1.574  0.4202 -0.7980 -1.1731
19056TIP3    H278584   3.318   2.494   1.460 -1.1982 -0.6395 -0.3775
19057TIP3   OH278585   4.066   6.625  14.621 -0.4184  0.4594 -0.2567
19057TIP3    H178586   4.068   6.562  14.693 -2.4177 -0.4050 -0.8877
19057TIP3    H278587   3.973   6.641  14.606 -0.0522  0.8093 -2.4796
19058TIP3   OH278588   4.803   1.613  16.095 -0.3678 -0.1113  0.1367
19058TIP3    H178589   4.847   1.536  16.060 -0.0354  0.3559 -0.4916
19058TIP3    H278590   4.870   1.682  16.095 -1.4355  1.0643 -2.3199
19059TIP3   OH278591   3.558   3.218   2.169  0.1962 -0.2939  0.0001
19059TIP3    H178592   3.487   3.280   2.155 -0.6840 -0.7673  1.9628
19059TIP3    H278593   3.516   3.132   2.167  0.9514 -0.6711 -0.1544
19060TIP3   OH278594   5.412   1.786  11.311 -0.1410  0.2367  0.8597
19060TIP3    H178595   5.409   1.736  11.393 -1.4765 -0.3718  0.4785
19060TIP3    H278596   5.398   1.720  11.243  0.9477  0.7387  0.1253
19061TIP3   OH278597   6.075   2.674   1.983 -0.0358  0.1404 -0.1753
19061TIP3    H178598   5.982   2.652   1.990 -0.2779  1.2688  0.5191
19061TIP3    H278599   6.106   2.625   1.908 -1.1114 -0.5422 -0.1974
19062TIP3   OH278600   3.967   4.402   1.274 -0.2895 -0.5039  0.5077
19062TIP3    H178601   3.968   4.343   1.199 -0.8735 -0.6668  0.6188
19062TIP3    H278602   3.874   4.422   1.287 -0.1851 -0.3810  1.1080
19063TIP3   OH278603   1.826   6.090  12.154  0.6881 -0.0479  0.2775
19063TIP3    H178604   1.878   6.168  12.138  0.7461  0.0523  0.9332
19063TIP3    H278605   1.831   6.041  12.072 -0.3841  1.2260 -0.5859
19064TIP3   OH278606   1.031   0.560  15.819 -0.0585  0.1779  0.1826
19064TIP3    H178607   0.979   0.482  15.836 -0.3364  0.1327 -0.8243
19064TIP3    H278608   1.031   0.607  15.902  0.5368 -1.1276  0.9543
19065TIP3   OH278609   4.196   0.116  14.344  0.2340 -0.1648  0.7170
19065TIP3    H178610   4.281   0.100  14.302  1.1965 -2.7890  3.3085
19065TIP3    H278611   4.135   0.059  14.297 -0.6327  2.7889 -2.1211
19066TIP3   OH278612   0.880   3.075  14.402  0.7807  0.5899  0.1501
19066TIP3    H178613   0.878   3.085  14.307  1.0500 -1.4939 -0.1252
19066TIP3    H278614   0.960   3.121  14.429  0.2140  2.0036 -0.4860
19067TIP3   OH278615   6.129   0.685   0.529  0.0165  0.1848  0.0342
19067TIP3    H178616   6.180   0.750   0.578  0.1087 -0.7662  1.2537
19067TIP3    H278617   6.063   0.736   0.483  0.0407  1.1512  1.0303
19068TIP3   OH278618   3.751   4.025  15.302 -0.2844  0.4405  0.1579
19068TIP3    H178619   3.808   4.085  15.255 -0.8391  0.6565 -0.2484
19068TIP3    H278620   3.672   4.020  15.249  0.2568 -1.7159 -0.5695
19069TIP3   OH278621   3.614   0.466  12.179 -0.4223 -0.1547 -0.5062
19069TIP3    H178622   3.536   0.510  12.212 -0.9296 -0.2882 -1.4693
19069TIP3    H278623   3.687   0.515  12.216 -0.9571  0.0763  0.2760
19070TIP3   OH278624   2.271   5.296  13.880 -0.3504 -0.0159 -0.0953
19070TIP3    H178625   2.231   5.289  13.966  0.0125 -1.4267 -0.0161
19070TIP3    H278626   2.226   5.370  13.839 -2.8780 -1.3069  0.1015
19071TIP3   OH278627   0.395   1.173  14.236 -0.3778 -0.0406 -0.1830
19071TIP3    H178628   0.489   1.194  14.233 -0.0550 -1.0462  1.5355
19071TIP3    H278629   0.366   1.206  14.321 -1.7952  0.9479 -1.0088
19072TIP3   OH278630   6.133   5.346  13.306  0.0448 -0.1350  0.4070
19072TIP3    H178631   6.183   5.392  13.238  1.4674 -0.3032  1.3165
19072TIP3    H278632   6.058   5.404  13.323  1.2644  1.3981  0.8174
19073TIP3   OH278633   2.136   0.477  15.006  0.2349  0.1627  0.2425
19073TIP3    H178634   2.206   0.534  15.035  0.5903 -0.6385  1.0101
19073TIP3    H278635   2.114   0.509  14.918 -0.3155  2.1261  1.0457
19074TIP3   OH278636   5.974   2.307  13.094  0.1289 -0.4577 -0.3392
19074TIP3    H178637   5.906   2.259  13.140 -0.3502 -1.5362 -2.0910
19074TIP3    H278638   6.030   2.342  13.163 -1.0222 -1.2987  1.0569
19075TIP3   OH278639   6.238   4.915  13.261  0.0999  0.0479  0.0511
19075TIP3    H178640   6.269   4.827  13.279  0.3999 -0.3074 -1.9416
19075TIP3    H278641   6.168   4.903  13.196 -1.0128  1.1782  0.9683
19076TIP3   OH278642   1.457   5.771   1.330 -0.1933 -0.0098 -0.6866
19076TIP3    H178643   1.533   5.825   1.350 -1.3985  0.9822  1.5258
19076TIP3    H278644   1.491   5.681   1.330  1.3354  0.5206 -1.8361
19077TIP3   OH278645   5.721   6.052  15.788  0.4371  0.3186  0.0334
19077TIP3    H178646   5.628   6.031  15.779  1.1589 -2.6971 -2.0967
19077TIP3    H278647   5.729   6.141  15.751 -1.4333  0.1388 -0.9540
19078TIP3   OH278648   4.806   5.167   0.171 -0.0365 -0.2239 -0.0328
19078TIP3    H178649   4.806   5.262   0.174 -0.5734 -0.2518  1.0750
19078TIP3    H278650   4.795   5.146   0.078 -1.5634  0.7968 -0.1185
19079TIP3   OH278651   0.521   4.488   5.610 -0.0971 -0.4879  0.1734
19079TIP3    H178652   0.434   4.488   5.570 -0.8655  0.4989  1.7563
19079TIP3    H278653   0.549   4.396   5.606 -0.5480 -0.5815 -1.6803
19080TIP3   OH278654   3.108   4.666  12.703  0.2176 -0.8119 -0.1665
19080TIP3    H178655   3.143   4.666  12.792 -1.9479 -2.5991  0.7819
19080TIP3    H278656   3.031   4.723  12.708  0.4899 -0.3275 -1.1303
19081TIP3   OH278657   0.502   3.230  11.309 -0.4253 -0.7129  0.2594
19081TIP3    H178658   0.488   3.272  11.224 -0.9677  1.1001  1.1911
19081TIP3    H278659   0.588   3.262  11.338 -1.0719  0.2461  1.2112
19082TIP3   OH278660   3.293   0.795   5.263  0.3573  0.2556  0.3000
19082TIP3    H178661   3.227   0.745   5.311 -0.6778 -1.3192 -2.5016
19082TIP3    H278662   3.284   0.765   5.173  3.0494  2.0713 -0.6890
19083TIP3   OH278663   1.338   4.715  16.561 -0.9262 -0.6699 -0.0296
19083TIP3    H178664   1.325   4.683  16.472  0.7052  1.9631 -1.3275
19083TIP3    H278665   1.306   4.805  16.559  0.2744 -0.1609  1.6806
19084TIP3   OH278666   0.712   0.360   6.620 -0.4369  0.0299  0.5306
19084TIP3    H178667   0.676   0.447   6.606  0.0164  0.0486 -0.6199
19084TIP3    H278668   0.648   0.301   6.579 -0.0036 -0.0609 -0.0214
19085TIP3   OH278669   0.917   1.485   4.631 -0.3340  0.3201 -0.0386
19085TIP3    H178670   0.955   1.571   4.651 -2.9296  0.8873  3.3316
19085TIP3    H278671   0.961   1.425   4.692 -0.3729 -0.2604 -0.5733
19086TIP3   OH278672   3.929   3.824  13.288 -0.0203  0.1210 -0.0296
19086TIP3    H178673   3.926   3.751  13.350 -1.9726 -0.1012 -0.3126
19086TIP3    H278674   3.961   3.898  13.340  2.5832 -1.0104  0.1040
19087TIP3   OH278675   0.361   1.736   0.177  0.9041 -0.1311 -1.0109
19087TIP3    H178676   0.375   1.674   0.249  2.7604  0.6491 -0.6310
19087TIP3    H278677   0.286   1.788   0.205  0.4305 -1.0480 -0.5168
19088TIP3   OH278678   4.043   4.029  16.234 -0.1137  0.7477 -0.1334
19088TIP3    H178679   3.998   4.096  16.183 -1.0768 -0.3868 -0.8311
19088TIP3    H278680   4.127   4.017  16.189  0.2080  1.6889  0.1870
19089TIP3   OH278681   4.230   2.345   4.429  0.0348  0.2493  0.1358
19089TIP3    H178682   4.157   2.406   4.435  0.3610  0.5792  0.8835
19089TIP3    H278683   4.308   2.397   4.449  0.3479 -0.3337  0.5005
19090TIP3   OH278684   0.683   1.088   1.880  0.5652 -0.1414 -0.2224
19090TIP3    H178685   0.685   1.001   1.921 -1.8710 -0.8210 -1.3680
19090TIP3    H278686   0.645   1.073   1.794 -0.5660  2.1660 -0.1988
19091TIP3   OH278687   6.031   0.675   0.157  0.6946 -0.5646  0.9221
19091TIP3    H178688   6.043   0.750   0.215 -1.1612  1.6710 -1.3097
19091TIP3    H278689   5.938   0.654   0.165 -0.1160  1.0532 -2.3592
19092TIP3   OH278690   2.644   5.705  13.401  0.1402 -0.1407 -0.4993
19092TIP3    H178691   2.587   5.637  13.364 -0.9625  0.5471 -0.1416
19092TIP3    H278692   2.583   5.764  13.447  1.2194  0.2758  0.4476
19093TIP3   OH278693   3.126   4.743  16.116 -0.3021 -0.3507  0.4395
19093TIP3    H178694   3.167   4.802  16.179 -0.8865 -0.3706  0.8372
19093TIP3    H278695   3.043   4.786  16.094  0.2240  0.0381 -0.8897
19094TIP3   OH278696   3.530   5.851  12.618  0.0034  0.1159  0.2869
19094TIP3    H178697   3.476   5.928  12.636  0.1013  0.1086  0.6168
19094TIP3    H278698   3.600   5.884  12.561  0.3261  0.3768  0.8330
19095TIP3   OH278699   2.589   3.550  14.942  0.4893  0.6427 -0.2900
19095TIP3    H178700   2.541   3.520  15.018  1.2544 -0.5358 -0.2490
19095TIP3    H278701   2.633   3.630  14.972 -0.7862  1.2981 -0.1068
19096TIP3   OH278702   2.118   6.733  12.892 -0.1409 -0.1424 -0.2402
19096TIP3    H178703   2.194   6.708  12.839  0.4431 -0.1526  0.5782
19096TIP3    H278704   2.051   6.668  12.871  0.1471 -0.2575 -0.8143
19097TIP3   OH278705   6.626   1.157   3.401  0.0336 -0.1846  0.0646
19097TIP3    H178706   6.587   1.166   3.488 -0.5765  0.4136 -0.2544
19097TIP3    H278707   6.677   1.238   3.389  0.5053 -0.4800  0.0543
19098TIP3   OH278708   1.269   2.437  15.219 -0.0812 -0.4473  0.7290
19098TIP3    H178709   1.307   2.356  15.253 -2.4369 -2.0664 -0.2481
19098TIP3    H278710   1.193   2.453  15.274  1.7095  2.6695  2.5869
19099TIP3   OH278711   2.766   1.900  14.159 -0.0838 -0.8712 -0.5485
19099TIP3    H178712   2.845   1.865  14.202  0.9442 -0.3352 -1.9368
19099TIP3    H278713   2.746   1.835  14.091  1.2785  0.6495 -2.5159
19100TIP3   OH278714   4.627   3.585   5.753  0.1102  0.1135 -0.9926
19100TIP3    H178715   4.593   3.505   5.713 -2.5337  0.1865  0.7885
19100TIP3    H278716   4.558   3.650   5.737 -0.1755  0.6371  1.8066
19101TIP3   OH278717   3.669   2.186  14.342 -0.0917  0.3447 -0.0938
19101TIP3    H178718   3.713   2.109  14.378 -0.3092  0.3531  0.1932
19101TIP3    H278719   3.670   2.250  14.412 -0.1597  0.5059 -0.2386
19102TIP3   OH278720   2.463   1.782   1.605 -0.6032  0.1270  0.2394
19102TIP3    H178721   2.386   1.797   1.549 -0.0595 -0.7312 -0.7852
19102TIP3    H278722   2.486   1.869   1.637 -1.6951  0.4682  0.1540
19103TIP3   OH278723   0.034   6.250   4.866  0.3167 -0.2364  0.5864
19103TIP3    H178724   0.055   6.310   4.938 -3.1247  0.3508  1.2724
19103TIP3    H278725   0.112   6.252   4.810  0.9740  3.7443  1.3415
19104TIP3   OH278726   0.788   0.654   2.217 -0.1932 -0.0229 -0.4665
19104TIP3    H178727   0.775   0.748   2.206 -0.3212 -0.0696 -0.7198
19104TIP3    H278728   0.713   0.614   2.173 -0.4155 -0.2298  0.0925
19105TIP3   OH278729   4.352   2.251   0.624 -0.3725 -0.5977 -0.1204
19105TIP3    H178730   4.295   2.234   0.699  0.3565 -0.1700  0.5436
19105TIP3    H278731   4.432   2.288   0.662 -0.1048 -0.0966 -1.1277
19106TIP3   OH278732   1.509   5.135   0.358 -0.2412 -0.1639 -0.2054
19106TIP3    H178733   1.444   5.204   0.369 -0.0275 -0.0357  0.2968
19106TIP3    H278734   1.534   5.112   0.448 -2.3551 -2.8708 -0.1750
19107TIP3   OH278735   1.334   4.094  16.381  0.0147  0.7216 -0.3563
19107TIP3    H178736   1.340   4.176  16.429 -0.1562 -0.3309  1.5866
19107TIP3    H278737   1.415   4.047  16.404 -0.0024  0.2433 -1.2353
19108TIP3   OH278738   4.348   6.498   1.254 -0.0307  0.3003  0.0698
19108TIP3    H178739   4.282   6.451   1.305  1.5056 -2.0659 -0.0046
19108TIP3    H278740   4.423   6.505   1.312  0.9589 -0.4269 -1.0905
19109TIP3   OH278741   5.312   4.386   2.213  0.4675  0.1198 -0.5313
19109TIP3    H178742   5.220   4.400   2.234  0.9385  2.2574  0.4230
19109TIP3    H278743   5.320   4.412   2.121  0.0850 -0.2585 -0.6728
19110TIP3   OH278744   2.697   0.290  11.378  0.0511  0.7879  0.3815
19110TIP3    H178745   2.731   0.270  11.465 -0.6575 -0.6033  0.3597
19110TIP3    H278746   2.667   0.381  11.385  3.0110  1.8589  0.5933
19111TIP3   OH278747   5.961   5.711  13.829 -0.5874  0.0050  0.0138
19111TIP3    H178748   6.004   5.788  13.792 -2.7663  1.1432 -0.2906
19111TIP3    H278749   5.868   5.726  13.815 -1.2692 -1.3645  2.5149
19112TIP3   OH278750   1.635   3.792   4.476 -0.1829  0.0338 -0.1313
19112TIP3    H178751   1.713   3.745   4.444  0.4519  1.3072 -0.5239
19112TIP3    H278752   1.621   3.862   4.412 -0.3539  1.1384  1.0772
19113TIP3   OH278753   0.194   5.064   1.029  0.8869  0.3011  0.4444
19113TIP3    H178754   0.247   5.129   1.075  1.4364 -0.3240  0.7056
19113TIP3    H278755   0.236   4.980   1.048  0.4265 -0.0928 -0.2268
19114TIP3   OH278756   2.713   5.778  12.715 -0.0836 -0.2617 -0.7888
19114TIP3    H178757   2.645   5.781  12.648 -0.4645  0.6752 -0.3675
19114TIP3    H278758   2.711   5.865  12.755  0.8488 -0.4780 -0.2663
19115TIP3   OH278759   4.139   1.825  12.868  0.5117  0.0579  0.2829
19115TIP3    H178760   4.061   1.795  12.914 -0.2322 -0.4753 -1.2587
19115TIP3    H278761   4.177   1.891  12.926 -0.6501 -0.2176  1.4079
19116TIP3   OH278762   5.887   5.213   1.455  0.7706  0.2315 -0.0533
19116TIP3    H178763   5.890   5.165   1.538  1.3798  1.2612  0.5403
19116TIP3    H278764   5.949   5.167   1.399 -1.6970 -2.2575 -0.9952
19117TIP3   OH278765   4.998   6.139  17.014 -0.1398 -0.5661  0.2307
19117TIP3    H178766   4.933   6.181  16.958 -0.1020  0.0973  0.6711
19117TIP3    H278767   5.082   6.155  16.970 -0.2681 -1.4393 -0.3472
19118TIP3   OH278768   4.996   6.298   5.633 -0.4842  0.2142  0.1298
19118TIP3    H178769   4.975   6.313   5.725  0.6591  1.3763  0.2231
19118TIP3    H278770   4.918   6.326   5.585 -0.6477  0.7100  0.6773
19119TIP3   OH278771   6.169   0.383   0.569 -0.0254 -0.2488  0.1584
19119TIP3    H178772   6.183   0.455   0.507  0.9837  1.1367  1.8698
19119TIP3    H278773   6.077   0.359   0.559 -0.0476  0.3929 -1.3676
19120TIP3   OH278774   4.146   5.283   0.080 -0.0270  0.1458 -0.2161
19120TIP3    H178775   4.186   5.321   0.158 -1.3223  2.5455 -0.6236
19120TIP3    H278776   4.118   5.196   0.108  3.2303 -0.7405  0.7344
19121TIP3   OH278777   4.602   0.182   3.174  0.8306  0.6213  0.0164
19121TIP3    H178778   4.636   0.181   3.084 -0.6562  2.3930 -0.6178
19121TIP3    H278779   4.507   0.189   3.164  0.6151  0.5352  1.7463
19122TIP3   OH278780   2.453   0.681  13.126  0.3285 -0.1584 -0.1965
19122TIP3    H178781   2.364   0.678  13.090  0.3088 -1.8065 -0.1012
19122TIP3    H278782   2.443   0.647  13.215  0.8882  0.7093  0.1994
19123TIP3   OH278783   1.650   0.148  11.499 -0.2902  0.4517 -0.5350
19123TIP3    H178784   1.698   0.187  11.573 -1.9119 -1.0117  1.4048
19123TIP3    H278785   1.611   0.223  11.454 -1.1499  1.2940  1.4947
19124TIP3   OH278786   1.629   2.225   4.731  0.5515  0.6218  0.1730
19124TIP3    H178787   1.717   2.262   4.726  1.1605 -0.8794 -1.2938
19124TIP3    H278788   1.572   2.293   4.696  1.4294  0.7928 -0.9716
19125TIP3   OH278789   1.603   6.431   1.205 -0.2338  0.5286  0.0006
19125TIP3    H178790   1.615   6.399   1.294  0.8674  1.1632  0.0977
19125TIP3    H278791   1.541   6.370   1.166  0.6352 -0.8201  0.6421
19126TIP3   OH278792   1.023   1.101  14.160 -0.4666  0.5355 -0.2668
19126TIP3    H178793   1.064   1.169  14.213  2.0437 -1.0035 -0.0716
19126TIP3    H278794   0.973   1.149  14.095 -2.8897  2.5240  2.7666
19127TIP3   OH278795   1.929   2.786   0.648  0.0981 -0.2311 -0.6070
19127TIP3    H178796   2.022   2.811   0.648 -0.3823  1.7240 -1.6219
19127TIP3    H278797   1.930   2.692   0.664  2.2697 -0.3098 -0.8718
19128TIP3   OH278798   6.586   1.674   3.400  0.1886 -0.0563 -0.6359
19128TIP3    H178799   6.593   1.683   3.304  0.0649  1.1456 -0.5445
19128TIP3    H278800   6.652   1.735   3.434  0.6410 -0.9120  0.0471
19129TIP3   OH278801   0.052   0.574  17.308  0.0831 -0.3482 -0.0049
19129TIP3    H178802  -0.005   0.544  17.379  0.3209 -1.6552 -0.3440
19129TIP3    H278803   0.102   0.496  17.282  1.9324  0.6979  0.1875
19130TIP3   OH278804   5.511   4.356   1.950  0.1441  0.0387 -0.1259
19130TIP3    H178805   5.571   4.416   1.994  0.9340 -0.9257  0.1372
19130TIP3    H278806   5.510   4.386   1.859 -0.0036  0.8580  0.1383
19131TIP3   OH278807   2.847   4.497  11.077  0.5353 -0.1142  0.0237
19131TIP3    H178808   2.857   4.490  10.982  1.7072 -0.8532  0.1881
19131TIP3    H278809   2.899   4.575  11.100  0.9382 -0.4199  0.1539
19132TIP3   OH278810   1.890   4.071  14.558  0.2291 -0.0767  0.0352
19132TIP3    H178811   1.902   3.976  14.562  1.7342  0.0792 -0.1556
19132TIP3    H278812   1.845   4.093  14.640  0.3289 -0.9034  0.3206
19133TIP3   OH278813   5.369   3.371   1.825 -0.0301 -0.0764  1.0680
19133TIP3    H178814   5.418   3.298   1.789  1.8254  1.0638  1.1492
19133TIP3    H278815   5.321   3.407   1.750 -0.9655 -1.3401  1.0341
19134TIP3   OH278816   5.533   1.861   2.258 -0.5550  0.4635 -0.5934
19134TIP3    H178817   5.567   1.785   2.305 -0.3916 -0.2082 -1.7370
19134TIP3    H278818   5.594   1.873   2.185  0.4955  2.8575  0.5469
19135TIP3   OH278819   0.672   5.125   1.508 -0.3701  0.1610  0.8863
19135TIP3    H178820   0.680   5.037   1.546  1.1326  0.5948  1.6385
19135TIP3    H278821   0.711   5.117   1.421  0.1740  0.1644  1.1224
19136TIP3   OH278822   4.875   2.321   2.109 -0.7681  0.7993  0.3844
19136TIP3    H178823   4.956   2.362   2.140  0.2792  0.4913 -1.7350
19136TIP3    H278824   4.817   2.320   2.185  1.3980  0.5653  2.1090
19137TIP3   OH278825   6.570   2.026   1.554  0.2735  0.2387 -0.1444
19137TIP3    H178826   6.555   2.067   1.468 -0.6685 -0.0157 -0.1094
19137TIP3    H278827   6.495   2.053   1.607 -0.0650 -1.0241  0.0651
19138TIP3   OH278828   1.750   3.622  13.877  0.1990  0.6095 -0.3743
19138TIP3    H178829   1.726   3.546  13.824 -2.9120  1.6434 -0.6162
19138TIP3    H278830   1.729   3.596  13.967  2.3231  0.0593  0.0201
19139TIP3   OH278831   5.233   5.634   5.628  0.6624 -0.2245  0.6756
19139TIP3    H178832   5.150   5.634   5.581 -0.1999  0.4846  2.1283
19139TIP3    H278833   5.298   5.611   5.562 -0.7311 -1.2576 -0.4016
19140TIP3   OH278834   2.488   3.822  13.279  0.2783  0.0248 -0.3172
19140TIP3    H178835   2.483   3.909  13.318  0.4999 -0.9068  1.8866
19140TIP3    H278836   2.438   3.830  13.198 -3.0669  1.2325  1.6942
19141TIP3   OH278837   5.572   4.352  13.852  0.3275 -0.2594  0.1627
19141TIP3    H178838   5.621   4.417  13.802  0.1197 -1.0294 -1.1075
19141TIP3    H278839   5.628   4.275  13.853 -1.5403 -1.9362 -3.2360
19142TIP3   OH278840   5.609   5.094   1.614 -0.0999 -0.0549 -0.7969
19142TIP3    H178841   5.542   5.054   1.670  0.5582 -0.7340 -0.4819
19142TIP3    H278842   5.573   5.088   1.526  0.1262 -1.6720 -0.8048
19143TIP3   OH278843   4.561   4.316  16.194 -0.6583  0.0193 -0.2417
19143TIP3    H178844   4.625   4.383  16.171 -0.9127  0.2006 -0.4289
19143TIP3    H278845   4.609   4.234  16.187 -0.8038  0.0355 -1.7992
19144TIP3   OH278846   4.436   3.512   3.725  0.2759  0.1382 -0.0972
19144TIP3    H178847   4.364   3.531   3.785  1.4164  0.4717  1.2431
19144TIP3    H278848   4.490   3.591   3.727  0.7633 -0.1656 -0.9271
19145TIP3   OH278849   2.981   0.652  13.521  0.9335  0.1267  0.5171
19145TIP3    H178850   3.031   0.718  13.568  0.1407  1.2371 -0.1386
19145TIP3    H278851   2.914   0.623  13.583  0.3053  1.1039  0.3276
19146TIP3   OH278852   3.059   3.115  11.933 -0.2021  0.0070  0.0273
19146TIP3    H178853   3.065   3.042  11.994 -0.1405  1.6639  2.1094
19146TIP3    H278854   3.138   3.108  11.879  1.8240  0.6278  2.7175
19147TIP3   OH278855   2.505   5.449  14.106 -0.5112 -0.0808  0.2538
19147TIP3    H178856   2.447   5.518  14.139 -0.0353 -0.7297  2.6726
19147TIP3    H278857   2.479   5.370  14.154  2.1965 -0.4329  1.3654
19148TIP3   OH278858   2.105   0.937   4.814  0.0740  0.1458  0.7198
19148TIP3    H178859   2.023   0.985   4.802  0.5782  1.6557  2.8091
19148TIP3    H278860   2.169   0.984   4.760 -0.1464 -0.3390  0.0103
19149TIP3   OH278861   4.441   3.703  11.468  0.7717 -0.6620  0.3088
19149TIP3    H178862   4.357   3.659  11.483  0.6670 -0.2491  0.9601
19149TIP3    H278863   4.442   3.720  11.373 -0.9271  1.3499  0.5722
19150TIP3   OH278864   1.064   4.379  16.238 -0.4093  0.1408 -0.2919
19150TIP3    H178865   0.975   4.404  16.213 -0.3354  0.3802 -0.3227
19150TIP3    H278866   1.119   4.413  16.167 -0.2185  0.6412  0.0844
19151TIP3   OH278867   5.882   4.708   0.637 -0.7605  0.2041 -0.8209
19151TIP3    H178868   5.863   4.647   0.708  1.1423 -0.4107 -0.7824
19151TIP3    H278869   5.898   4.791   0.680 -1.2884  0.2473 -0.6963
19152TIP3   OH278870   6.744   3.147   2.979 -0.1672 -0.0893  0.1754
19152TIP3    H178871   6.681   3.088   2.938 -0.3012 -0.0566  0.3334
19152TIP3    H278872   6.754   3.219   2.916 -1.2607  0.5506  0.7099
19153TIP3   OH278873   1.438   4.145  14.884 -0.0694  0.2357 -0.0771
19153TIP3    H178874   1.477   4.090  14.816 -0.7236 -0.1166 -0.1719
19153TIP3    H278875   1.367   4.191  14.841  1.0635  1.9050 -0.2324
19154TIP3   OH278876   6.240   0.852   4.411  0.6748  0.3473 -0.1012
19154TIP3    H178877   6.148   0.862   4.434  0.6728 -0.9484  0.5264
19154TIP3    H278878   6.249   0.760   4.387  1.2853  0.9750 -2.6170
19155TIP3   OH278879   4.613   0.224   1.497  0.8390 -0.2404  0.7412
19155TIP3    H178880   4.611   0.179   1.413  0.7742 -0.2872  0.7683
19155TIP3    H278881   4.557   0.172   1.554  1.7847 -0.8491  1.1343
19156TIP3   OH278882   3.084   6.412  11.778 -0.5076  0.3499 -0.2106
19156TIP3    H178883   3.132   6.495  11.779 -0.4327  0.3096  1.4322
19156TIP3    H278884   2.999   6.434  11.738 -0.6388  1.3093  0.5646
19157TIP3   OH278885   2.125   2.478  17.004  0.1598 -0.7041  0.0224
19157TIP3    H178886   2.217   2.464  16.980  0.2331 -0.7299  0.3185
19157TIP3    H278887   2.116   2.434  17.088 -0.5823 -2.3188 -0.8503
19158TIP3   OH278888   1.122   3.184  14.874  0.5459  0.1075  0.6927
19158TIP3    H178889   1.072   3.176  14.956 -1.2335  2.0422 -0.1035
19158TIP3    H278890   1.097   3.107  14.823 -1.1051  0.6588  0.6199
19159TIP3   OH278891   3.955   3.992  10.884  0.1758  0.7480  0.1756
19159TIP3    H178892   3.902   3.959  10.812 -0.2088  0.3065  0.6477
19159TIP3    H278893   4.021   4.047  10.843  0.8319 -0.6152 -0.6495
19160TIP3   OH278894   4.027   5.311  15.966  0.0374 -0.2095  0.1835
19160TIP3    H178895   4.028   5.334  15.873 -0.5246  0.0893  0.2440
19160TIP3    H278896   3.934   5.316  15.990  0.0954 -1.0041  0.5871
19161TIP3   OH278897   0.157   5.659  12.210  0.5067  0.3856 -0.5698
19161TIP3    H178898   0.098   5.688  12.280  0.8293 -0.7243  0.1837
19161TIP3    H278899   0.121   5.575  12.182  1.4813 -0.1018 -0.3897
19162TIP3   OH278900   3.602   4.286  11.723  0.3577  0.5270  0.3384
19162TIP3    H178901   3.673   4.334  11.679 -0.0929  2.5892  1.7123
19162TIP3    H278902   3.541   4.265  11.652  1.9994 -0.7844 -0.7754
19163TIP3   OH278903   4.932   5.356  16.687  0.0187 -0.1279  0.5733
19163TIP3    H178904   4.888   5.271  16.688  0.2582 -0.2497  0.7596
19163TIP3    H278905   4.949   5.376  16.779 -1.6330  0.9629  0.6789
19164TIP3   OH278906   3.762   3.765   6.293  0.1274  0.4597  0.0119
19164TIP3    H178907   3.685   3.719   6.326  0.2454  0.8118  0.8042
19164TIP3    H278908   3.780   3.833   6.358 -0.1451  1.7548 -1.2065
19165TIP3   OH278909   0.519   0.046   4.375 -0.1446  0.2798 -0.2807
19165TIP3    H178910   0.426   0.065   4.373 -0.2768  0.2832  2.2695
19165TIP3    H278911   0.525  -0.048   4.360 -0.4356  0.4405 -1.5165
19166TIP3   OH278912   0.506   0.053  14.789 -0.2624  0.2242 -0.0676
19166TIP3    H178913   0.488  -0.017  14.727 -0.8143 -0.3641  0.7405
19166TIP3    H278914   0.460   0.129  14.754 -1.1239 -0.2744 -0.0366
19167TIP3   OH278915   5.296   1.653  13.874  0.0459  0.1384 -0.1012
19167TIP3    H178916   5.372   1.625  13.924  1.2666  0.7049 -1.5865
19167TIP3    H278917   5.327   1.727  13.822 -2.2655  2.3519  1.4080
19168TIP3   OH278918   2.538   6.196   1.988  0.8105 -0.1565  0.6748
19168TIP3    H178919   2.477   6.188   1.915  2.1461  1.3103 -0.6712
19168TIP3    H278920   2.571   6.107   2.001 -0.2296 -0.6291  0.2071
19169TIP3   OH278921   3.640   2.150   0.407 -0.2334 -0.2126 -0.1826
19169TIP3    H178922   3.714   2.091   0.393 -1.9485 -2.2071 -1.3090
19169TIP3    H278923   3.638   2.165   0.501  2.2192  0.7978 -0.2132
19170TIP3   OH278924   3.303   3.479  11.661  0.6327  0.0171  0.4150
19170TIP3    H178925   3.274   3.399  11.618  0.4594  0.5063 -0.3944
19170TIP3    H278926   3.332   3.536  11.590 -1.5502  1.6334  0.7068
19171TIP3   OH278927   0.785   1.799  11.456  0.1421 -0.2484 -0.8655
19171TIP3    H178928   0.794   1.860  11.383  1.2436 -0.5613 -1.0120
19171TIP3    H278929   0.827   1.844  11.530 -1.7531  0.4507 -0.1572
19172TIP3   OH278930   1.938   0.284  16.910  0.0207  0.3705  0.1198
19172TIP3    H178931   1.849   0.295  16.875 -0.0372  1.5043  0.6007
19172TIP3    H278932   1.989   0.252  16.835 -0.6163  0.4591 -0.3643
19173TIP3   OH278933   2.925   3.272  14.657  0.8487  0.3050 -0.1096
19173TIP3    H178934   2.968   3.205  14.604  0.8205  0.2999 -0.1256
19173TIP3    H278935   2.996   3.330  14.685  1.1454 -0.7158  1.3710
19174TIP3   OH278936   4.541   3.282  12.544  0.4023 -0.1512  0.0861
19174TIP3    H178937   4.612   3.317  12.489 -1.0978 -0.2379 -2.0516
19174TIP3    H278938   4.461   3.318  12.505 -0.8494 -1.4523  1.3181
19175TIP3   OH278939   6.237   4.301  12.104 -0.5481  0.0887 -0.3292
19175TIP3    H178940   6.153   4.315  12.148 -1.1823 -0.3030 -1.3581
19175TIP3    H278941   6.254   4.207  12.116  1.0053  0.5700  1.9667
19176TIP3   OH278942   6.466   4.926   1.359 -0.2434 -1.0289  0.3129
19176TIP3    H178943   6.422   4.953   1.440 -0.6473  1.1004 -0.5430
19176TIP3    H278944   6.510   5.005   1.328  0.2506 -1.8963 -1.3302
19177TIP3   OH278945   2.471   5.986  16.608 -0.0769  0.1525  0.4271
19177TIP3    H178946   2.523   5.933  16.669 -0.4632  0.1045  0.7178
19177TIP3    H278947   2.486   6.076  16.635 -2.1119  0.0589  2.1527
19178TIP3   OH278948   4.232   1.144  13.612 -0.5650  0.3436 -0.2009
19178TIP3    H178949   4.282   1.217  13.575 -1.6977  0.8794 -0.7300
19178TIP3    H278950   4.175   1.115  13.541 -1.9357  0.6154  0.7477
19179TIP3   OH278951   3.291   5.049  14.527  0.2461  0.2909 -0.0978
19179TIP3    H178952   3.327   5.134  14.553  0.6867 -0.0202  0.3116
19179TIP3    H278953   3.201   5.050  14.560  0.3903  0.4215  0.2989
19180TIP3   OH278954   0.030   1.387  13.383 -0.4181  0.3852  0.1413
19180TIP3    H178955   0.028   1.342  13.299  0.1107  1.8729 -0.7046
19180TIP3    H278956   0.084   1.331  13.439  4.4102  2.0801 -2.2603
19181TIP3   OH278957   6.107   5.346   1.256 -0.5804  0.5159 -0.3252
19181TIP3    H178958   6.130   5.360   1.164 -2.6677  2.0701 -0.6761
19181TIP3    H278959   6.074   5.256   1.259 -2.8227  1.2244 -1.6791
19182TIP3   OH278960   3.384   5.381  10.515  0.5916  0.5862 -0.4856
19182TIP3    H178961   3.470   5.353  10.547 -0.3642 -1.7013  0.3013
19182TIP3    H278962   3.392   5.476  10.503  2.8790  0.5890  0.6159
19183TIP3   OH278963   3.470   2.125   3.476 -0.1064 -0.5779  0.1436
19183TIP3    H178964   3.521   2.103   3.398  0.8477 -3.4225  1.4572
19183TIP3    H278965   3.535   2.139   3.545 -0.8773  2.7298  0.3846
19184TIP3   OH278966   0.950   5.809   2.299 -0.0905 -0.0519 -0.2666
19184TIP3    H178967   1.028   5.791   2.247  0.6395 -2.2348  1.4409
19184TIP3    H278968   0.925   5.725   2.336 -0.7285  1.2945  2.6372
19185TIP3   OH278969   3.090   0.858  14.570 -0.2826  0.5474  0.4056
19185TIP3    H178970   3.047   0.775  14.553 -1.5536  1.0705  0.8918
19185TIP3    H278971   3.061   0.915  14.499 -0.5714  0.9573  0.8412
19186TIP3   OH278972   0.476   0.052  11.061  0.1230 -0.1857  0.0010
19186TIP3    H178973   0.509  -0.031  11.096  0.8711  0.3306  0.5590
19186TIP3    H278974   0.424   0.027  10.985 -2.3857 -1.4238  2.0038
19187TIP3   OH278975   1.764   0.858  14.463 -0.0999 -0.6272  0.1759
19187TIP3    H178976   1.847   0.897  14.435 -1.0261  1.1740 -0.2124
19187TIP3    H278977   1.756   0.882  14.555 -0.8890  0.5466 -0.1820
19188TIP3   OH278978   4.128   2.380  16.156 -0.3260 -0.4523  0.0905
19188TIP3    H178979   4.037   2.409  16.154 -0.1896  0.0346  0.8717
19188TIP3    H278980   4.179   2.460  16.148  0.0440 -0.5404  1.3580
19189TIP3   OH278981   5.467   0.471  15.427 -0.1754 -0.5919 -0.1445
19189TIP3    H178982   5.377   0.452  15.456 -0.4311 -1.3268 -1.3654
19189TIP3    H278983   5.522   0.443  15.500 -0.8950 -0.7540  0.3540
19190TIP3   OH278984   3.519   1.621  17.169  0.1133 -0.5267 -0.6926
19190TIP3    H178985   3.570   1.656  17.097 -1.0267  1.6181 -0.5457
19190TIP3    H278986   3.438   1.589  17.129 -0.1909 -0.0457 -0.4771
19191TIP3   OH278987   4.307   0.277  12.244  0.1970 -0.6678  0.3714
19191TIP3    H178988   4.224   0.318  12.272  0.9085  0.0215  1.5529
19191TIP3    H278989   4.281   0.190  12.213 -1.1777  0.1105 -0.8558
19192TIP3   OH278990   3.908   4.889  11.565 -0.1978  0.4170 -0.3692
19192TIP3    H178991   3.974   4.870  11.631  0.5931  1.6376 -0.7733
19192TIP3    H278992   3.959   4.906  11.485 -1.0453  0.6134 -0.8769
19193TIP3   OH278993   0.579   0.221   3.631 -0.3009  0.2939 -0.1937
19193TIP3    H178994   0.576   0.140   3.681  2.1863  0.6728  0.7609
19193TIP3    H278995   0.489   0.238   3.606 -1.1370 -1.7986  1.1322
19194TIP3   OH278996   0.109   5.244   0.804  0.0059 -0.1327 -0.6729
19194TIP3    H178997   0.019   5.254   0.773 -0.2477 -0.1123  0.0576
19194TIP3    H278998   0.101   5.228   0.897  0.8103  0.8413 -0.4157
19195TIP3   OH278999   6.386   2.913   2.330 -0.1508  0.1392  0.6369
19195TIP3    H179000   6.387   2.835   2.386 -0.8983 -0.4964 -0.1893
19195TIP3    H279001   6.379   2.878   2.241  1.0111  1.1223  0.1276
19196TIP3   OH279002   3.168   2.680   0.783  0.1627 -0.2658 -0.4856
19196TIP3    H179003   3.249   2.641   0.814  0.7711  2.1043  1.1167
19196TIP3    H279004   3.110   2.679   0.859  0.5031  2.6056 -0.0952
19197TIP3   OH279005   5.803   1.548   2.960  0.1205 -0.3360  0.6369
19197TIP3    H179006   5.880   1.558   2.904  0.0214  0.9503  0.7075
19197TIP3    H279007   5.773   1.458   2.943  0.6773 -0.3124 -0.6056
19198TIP3   OH279008   4.879   0.697   0.698 -0.8813 -0.1447 -0.4876
19198TIP3    H179009   4.808   0.743   0.653  0.9802  2.2406 -1.2535
19198TIP3    H279010   4.914   0.761   0.760 -0.6101 -1.9179  1.2942
19199TIP3   OH279011   5.939   6.238   5.186 -0.4509 -0.4721  0.1704
19199TIP3    H179012   5.917   6.246   5.279  0.0909 -2.3813  0.5074
19199TIP3    H279013   5.870   6.181   5.150 -0.1483 -0.4804 -0.4008
19200TIP3   OH279014   1.071   4.353   3.070  0.6383  0.3521  0.0070
19200TIP3    H179015   1.112   4.407   3.138 -0.1296  0.4787  0.3791
19200TIP3    H279016   1.046   4.273   3.116 -1.7772  1.2548  0.4086
19201TIP3   OH279017   6.726   4.261   2.237 -0.6463  0.2597 -0.0680
19201TIP3    H179018   6.679   4.185   2.271  0.0965  0.1003  0.6255
19201TIP3    H279019   6.664   4.303   2.177 -1.3900 -0.3732  0.2479
19202TIP3   OH279020   2.476   2.396  15.950 -0.3365  0.4472 -0.3426
19202TIP3    H179021   2.467   2.370  15.858 -2.2105 -0.2442  0.0100
19202TIP3    H279022   2.408   2.462  15.963  0.1727  0.8275  0.4576
19203TIP3   OH279023   6.538   4.782  12.569 -0.0455 -0.3331  0.2833
19203TIP3    H179024   6.505   4.707  12.520  3.4984 -1.5514 -0.5989
19203TIP3    H279025   6.493   4.778  12.653  0.2595 -3.7546  0.4184
19204TIP3   OH279026   2.886   1.691  12.135 -0.3214 -0.1420  0.0718
19204TIP3    H179027   2.822   1.699  12.064 -0.2508 -2.7826 -0.3818
19204TIP3    H279028   2.836   1.708  12.215 -1.2317 -0.5300 -0.3998
19205TIP3   OH279029   1.919   3.235   5.212 -0.0737  0.1778 -0.4350
19205TIP3    H179030   1.963   3.221   5.129 -1.6258 -0.1004 -1.2614
19205TIP3    H279031   1.848   3.171   5.213  0.2039 -0.1724  1.3498
19206TIP3   OH279032   4.102   4.104   6.247 -0.3697  0.5981  0.0577
19206TIP3    H179033   4.025   4.086   6.193 -0.0400  0.7525 -0.4702
19206TIP3    H279034   4.121   4.021   6.290 -0.9083  0.5943  0.2915
19207TIP3   OH279035   2.575   4.158   0.906  0.1225 -0.6053  0.7535
19207TIP3    H179036   2.587   4.217   0.831  0.3952  0.8622  1.8989
19207TIP3    H279037   2.654   4.104   0.907  0.1877 -0.5290  0.0745
19208TIP3   OH279038   0.803   6.262  11.353  0.1033  0.1793 -0.1418
19208TIP3    H179039   0.831   6.341  11.399  2.8128  0.3313 -1.8418
19208TIP3    H279040   0.730   6.290  11.299 -0.1730  1.0429  0.6499
19209TIP3   OH279041   0.706   2.876   4.492  0.1143 -0.2555  0.1596
19209TIP3    H179042   0.684   2.901   4.581  0.1569 -0.7555  0.3169
19209TIP3    H279043   0.627   2.896   4.441  0.1060  0.0685  0.2987
19210TIP3   OH279044   6.649   0.235  13.001  0.0805 -0.5992 -0.0818
19210TIP3    H179045   6.554   0.222  12.998  0.4284 -4.3722 -2.5258
19210TIP3    H279046   6.674   0.208  13.089 -1.1684  2.4300  1.3226
19211TIP3   OH279047   0.458   2.575   4.808 -0.7471  0.4712 -0.8280
19211TIP3    H179048   0.542   2.602   4.772 -0.0507 -0.9090 -0.3277
19211TIP3    H279049   0.412   2.535   4.734 -1.5873  2.5022 -1.4512
19212TIP3   OH279050   3.555   1.386   3.913 -0.3243 -0.2273 -0.1832
19212TIP3    H179051   3.497   1.311   3.925  0.2142 -0.7075 -0.5438
19212TIP3    H279052   3.496   1.459   3.894 -0.9554 -0.2289  1.5662
19213TIP3   OH279053   4.643   5.524   3.337 -0.0743 -0.1503 -0.1002
19213TIP3    H179054   4.725   5.535   3.385  0.4069  1.2862 -1.1931
19213TIP3    H279055   4.638   5.430   3.321  1.3769 -0.2716 -0.0357
19214TIP3   OH279056   1.520   2.224  15.320 -0.3047 -0.7369  0.4387
19214TIP3    H179057   1.583   2.262  15.381  0.6922  0.1186 -1.0586
19214TIP3    H279058   1.566   2.148  15.282 -0.4254 -0.5177 -0.1586
19215TIP3   OH279059   0.592   6.502   1.231  0.1737  0.1985  0.2380
19215TIP3    H179060   0.569   6.491   1.323  0.5996  0.1625  0.3419
19215TIP3    H279061   0.546   6.430   1.187 -0.6317  0.6581  0.3169
19216TIP3   OH279062   3.119   0.523  13.329 -0.1083 -0.4361  0.1553
19216TIP3    H179063   3.068   0.583  13.384 -0.6176 -0.8731  0.1680
19216TIP3    H279064   3.188   0.491  13.387  0.7161  0.8214 -0.1088
19217TIP3   OH279065   2.461   2.636  15.070  0.3005 -0.2038 -0.1082
19217TIP3    H179066   2.507   2.720  15.057 -0.2927  0.1671  0.1499
19217TIP3    H279067   2.508   2.575  15.014 -0.6977  0.8257 -2.1778
19218TIP3   OH279068   5.411   5.580   1.272 -0.4395 -0.0696  0.2257
19218TIP3    H179069   5.353   5.548   1.203 -0.5005  0.0212  0.2348
19218TIP3    H279070   5.499   5.558   1.242 -0.3601  1.2637 -0.5683
19219TIP3   OH279071   0.294   0.320   5.544 -0.1152 -0.3919 -0.3172
19219TIP3    H179072   0.371   0.301   5.597 -0.6556 -0.6615  0.3908
19219TIP3    H279073   0.269   0.236   5.506  0.3505 -0.1774 -1.1364
19220TIP3   OH279074   4.494   3.215  14.030 -0.3276  0.1011 -0.6318
19220TIP3    H179075   4.412   3.261  14.013 -0.1877  0.0468 -1.4948
19220TIP3    H279076   4.497   3.205  14.125 -0.9088  0.8566 -0.5295
19221TIP3   OH279077   4.673   1.515  13.865 -0.0318 -0.2309  0.1759
19221TIP3    H179078   4.697   1.439  13.917  0.0507 -3.4975 -4.0863
19221TIP3    H279079   4.614   1.481  13.798 -2.4701  4.1594 -0.3246
19222TIP3   OH279080   4.514   1.337   4.092 -0.0429 -0.2837 -0.4780
19222TIP3    H179081   4.473   1.336   4.006 -1.4827  1.9800  0.0957
19222TIP3    H279082   4.503   1.427   4.123  3.3330 -0.1351  0.7345
19223TIP3   OH279083   5.226   5.971   5.130  0.4654  0.3935  0.0297
19223TIP3    H179084   5.203   5.940   5.042 -1.1130 -1.1287  0.9085
19223TIP3    H279085   5.203   6.064   5.129  1.3973  0.6385 -1.4412
19224TIP3   OH279086   1.260   4.310  12.336  0.2764  0.1081  0.0053
19224TIP3    H179087   1.347   4.348  12.328 -0.0351  1.1660  1.1990
19224TIP3    H279088   1.201   4.375  12.298 -0.2852  1.0520  2.2745
19225TIP3   OH279089   1.543   6.187   0.825  0.3188 -0.1800  0.1182
19225TIP3    H179090   1.567   6.112   0.879  1.0928 -0.0312 -0.0066
19225TIP3    H279091   1.622   6.241   0.823  0.7798 -0.8432 -2.2602
19226TIP3   OH279092   4.339   6.015   3.007  0.0910 -0.9116  0.1514
19226TIP3    H179093   4.246   5.996   2.992  0.1072  0.1667 -1.4525
19226TIP3    H279094   4.340   6.067   3.087 -0.7904 -0.1542 -0.3195
19227TIP3   OH279095   0.499   2.925   4.985  0.1402  0.2115  0.0721
19227TIP3    H179096   0.453   2.917   5.069  0.0367 -0.6431 -0.0535
19227TIP3    H279097   0.544   2.841   4.975 -2.1003 -0.8934 -2.0393
19228TIP3   OH279098   0.059   1.494   4.842 -0.1445 -0.2628 -0.1625
19228TIP3    H179099   0.068   1.450   4.927  0.9565 -0.9020 -0.5992
19228TIP3    H279100   0.058   1.587   4.863 -3.0750 -0.4086  0.8429
19229TIP3   OH279101   4.682   2.563   2.654  0.4182 -0.2044  1.0595
19229TIP3    H179102   4.641   2.507   2.720 -2.9170  0.0193 -0.5639
19229TIP3    H279103   4.769   2.526   2.641  0.2345 -1.8015  3.6738
19230TIP3   OH279104   1.445   5.713   3.340  0.7284  0.3828  0.1133
19230TIP3    H179105   1.440   5.622   3.311 -0.0248  0.2440  0.6322
19230TIP3    H279106   1.355   5.737   3.360  1.0040  1.0222  0.6489
19231TIP3   OH279107   5.439   4.794   1.982 -0.2440 -0.3078  0.5760
19231TIP3    H179108   5.351   4.830   1.972  0.8560  2.0591 -1.9422
19231TIP3    H279109   5.473   4.788   1.892  2.6555  0.2459  1.5140
19232TIP3   OH279110   5.750   2.546  12.211  0.7820  0.0176 -0.0089
19232TIP3    H179111   5.712   2.484  12.273  0.5093  1.0651  0.9043
19232TIP3    H279112   5.739   2.506  12.126  0.2411 -0.9956  0.5305
19233TIP3   OH279113   5.771   5.169   5.157 -0.8346 -0.9745 -0.3364
19233TIP3    H179114   5.825   5.198   5.083 -1.5634 -0.9123 -0.8568
19233TIP3    H279115   5.779   5.074   5.156  1.3143 -0.8874  1.1861
19234TIP3   OH279116   0.165   4.209   2.869 -0.1072  0.6596  0.2692
19234TIP3    H179117   0.095   4.224   2.933 -0.2103  1.3916 -0.0035
19234TIP3    H279118   0.224   4.148   2.912 -1.3701 -0.7036  0.1623
19235TIP3   OH279119   2.827   5.758  14.512  0.0734  0.4317  0.4436
19235TIP3    H179120   2.823   5.767  14.417  0.6425 -1.7071  0.1737
19235TIP3    H279121   2.780   5.835  14.545 -0.2073  1.1811 -1.5399
19236TIP3   OH279122   0.424   5.936   0.574 -0.0282 -0.0805 -0.2150
19236TIP3    H179123   0.333   5.910   0.555 -0.2066  1.8796 -2.6186
19236TIP3    H279124   0.417   6.027   0.603  1.1960  0.4896 -1.5804
19237TIP3   OH279125   6.047   0.192   5.156 -0.4011 -0.7833 -0.4634
19237TIP3    H179126   5.978   0.221   5.097  1.7079 -2.0150 -3.8098
19237TIP3    H279127   6.059   0.099   5.135 -0.2751 -1.6401  2.8153
19238TIP3   OH279128   5.403   6.231  14.773 -0.0426 -0.6460  0.1271
19238TIP3    H179129   5.440   6.216  14.686 -0.4687 -0.0877 -0.1609
19238TIP3    H279130   5.319   6.274  14.756  0.3314  0.4113  0.8483
19239TIP3   OH279131   5.452   5.525  17.163 -0.0542 -0.3444 -0.2376
19239TIP3    H179132   5.410   5.611  17.174  0.1647 -0.1544 -0.8328
19239TIP3    H279133   5.546   5.544  17.161 -0.0048 -0.5931 -0.3913
19240TIP3   OH279134   0.154   5.329  13.141 -0.4656 -0.1661 -0.2124
19240TIP3    H179135   0.063   5.340  13.168 -0.0672  1.2092  0.6462
19240TIP3    H279136   0.197   5.411  13.166  0.8227 -0.4375 -1.4064
19241TIP3   OH279137   4.024   2.458   5.571  0.6598  0.3623  0.1675
19241TIP3    H179138   3.947   2.493   5.526  1.1789 -0.1914 -1.2200
19241TIP3    H279139   4.096   2.511   5.538  0.8737  0.9517  1.5440
19242TIP3   OH279140   4.939   0.903   2.335  0.1787 -0.1059 -0.6298
19242TIP3    H179141   4.924   0.893   2.241  1.2978 -0.8849 -0.7479
19242TIP3    H279142   4.862   0.950   2.366 -0.4530 -0.2680 -1.8524
19243TIP3   OH279143   0.605   3.511  15.029 -0.2483  0.1423  0.5429
19243TIP3    H179144   0.536   3.450  15.003 -1.7106  1.2521  1.6916
19243TIP3    H279145   0.575   3.548  15.112  0.1623  3.0611 -0.5188
19244TIP3   OH279146   3.805   3.916  11.122  0.0645  0.3555 -0.2894
19244TIP3    H179147   3.855   3.953  11.195 -0.4569  1.1689 -0.3367
19244TIP3    H279148   3.848   3.950  11.044 -0.7377  1.3168 -0.3285
19245TIP3   OH279149   3.557   0.813  12.970 -0.1319  0.0463 -0.1617
19245TIP3    H179150   3.559   0.909  12.973  0.2945  0.0800 -1.2527
19245TIP3    H279151   3.648   0.788  12.955 -0.5570 -0.4100 -2.3085
19246TIP3   OH279152   4.550   2.866  16.481  0.1407  0.0488  0.4034
19246TIP3    H179153   4.522   2.933  16.419  1.1214  1.6326  1.5792
19246TIP3    H279154   4.501   2.788  16.456 -2.3611  1.6254  0.0001
19247TIP3   OH279155   6.255   2.634   4.615 -0.0485  0.0358  0.6554
19247TIP3    H179156   6.275   2.558   4.670 -2.3588 -0.8971  0.3082
19247TIP3    H279157   6.238   2.596   4.529  0.8688  1.2110 -0.0682
19248TIP3   OH279158   5.310   1.240   0.357  0.4761 -0.1691  0.2361
19248TIP3    H179159   5.386   1.298   0.353 -0.3685  1.2035  2.3755
19248TIP3    H279160   5.254   1.270   0.286  0.5265  0.9631  0.6530
19249TIP3   OH279161   6.740   1.153  13.747  0.1726 -0.0341 -0.1084
19249TIP3    H179162   6.716   1.130  13.657  1.7205  0.5995 -0.7223
19249TIP3    H279163   6.723   1.073  13.797 -0.0106 -0.6372 -1.1069
19250TIP3   OH279164   4.999   3.065  11.412  0.5458  0.1495 -0.9635
19250TIP3    H179165   4.968   2.981  11.379  1.3847  0.6266 -3.1739
19250TIP3    H279166   4.935   3.089  11.479 -1.9463 -0.4956 -2.9220
19251TIP3   OH279167   1.695   3.571  15.601 -0.2220 -0.4152 -0.4613
19251TIP3    H179168   1.674   3.665  15.599 -0.8436 -0.5487 -0.1400
19251TIP3    H279169   1.646   3.534  15.528 -1.7118 -0.8417  0.7102
19252TIP3   OH279170   1.934   1.223  11.972  0.2422  0.5951 -0.1621
19252TIP3    H179171   1.861   1.162  11.965 -0.1180  0.8583  1.0671
19252TIP3    H279172   1.896   1.308  11.950 -0.6725  1.2730  3.4854
19253TIP3   OH279173   1.491   3.392   2.899  0.6303 -0.5682  0.1402
19253TIP3    H179174   1.513   3.329   2.968 -0.6395 -1.6312 -0.3940
19253TIP3    H279175   1.396   3.395   2.898  0.6516  0.7553 -0.4181
19254TIP3   OH279176   1.182   0.386   4.309  0.6077 -0.3365  0.1202
19254TIP3    H179177   1.093   0.417   4.326  0.6720  1.0800 -1.7550
19254TIP3    H279178   1.211   0.438   4.234  2.2004 -2.3218 -0.7392
19255TIP3   OH279179   4.738   3.915  13.908 -0.2887  0.2839  0.2168
19255TIP3    H179180   4.676   3.845  13.927 -0.5270  0.9200  1.9452
19255TIP3    H279181   4.802   3.910  13.979 -0.0675  1.5295  0.1292
19256TIP3   OH279182   1.259   4.215   4.422 -0.0641  0.1155 -0.0160
19256TIP3    H179183   1.330   4.218   4.357  0.0780  0.1219  0.1403
19256TIP3    H279184   1.200   4.285   4.395  0.0317  0.1660 -0.0990
19257TIP3   OH279185   3.291   1.616  16.131 -0.4672  0.6369 -0.4887
19257TIP3    H179186   3.342   1.626  16.051 -1.5828  2.6101 -1.0363
19257TIP3    H279187   3.215   1.564  16.105  0.1699 -0.4489 -0.2032
19258TIP3   OH279188   1.227   6.584  16.185 -0.0291 -0.6632 -0.2715
19258TIP3    H179189   1.175   6.630  16.118 -1.7386  0.9284  2.0049
19258TIP3    H279190   1.177   6.505  16.205  0.5705 -1.2279 -0.9298
19259TIP3   OH279191   2.401   3.031   2.201  0.2433  0.1572 -0.1267
19259TIP3    H179192   2.390   3.088   2.277 -0.1258 -0.9724  0.6896
19259TIP3    H279193   2.492   3.001   2.206 -0.3497 -1.6608  1.1880
19260TIP3   OH279194   2.506   0.942  13.188 -0.1200 -0.0485  0.2162
19260TIP3    H179195   2.501   0.872  13.123  1.1289  0.6154 -0.6188
19260TIP3    H279196   2.597   0.972  13.185 -0.5700  1.4697  0.7101
19261TIP3   OH279197   1.007   2.088  13.159  0.2538 -0.6352 -0.0147
19261TIP3    H179198   1.040   2.082  13.249 -0.8484 -0.1633  0.4478
19261TIP3    H279199   0.998   1.996  13.131  1.2992 -0.7725  0.0794
19262TIP3   OH279200   3.515   5.215  15.491  0.4203  0.3676 -0.2634
19262TIP3    H179201   3.573   5.271  15.542  0.6659 -2.8116  3.4015
19262TIP3    H279202   3.566   5.136  15.475 -1.5807 -0.9676 -0.4612
19263TIP3   OH279203   1.716   0.812   1.731 -0.2811  0.3212 -0.0649
19263TIP3    H179204   1.761   0.893   1.756  0.3819 -0.2297  0.5976
19263TIP3    H279205   1.633   0.841   1.692  0.5978  1.3603 -1.2365
19264TIP3   OH279206   2.345   2.771  11.354  0.4041  0.3870  0.8377
19264TIP3    H179207   2.290   2.694  11.368 -1.0852  1.3454  0.5113
19264TIP3    H279208   2.350   2.780  11.259  0.2080  0.9201  0.8726
19265TIP3   OH279209   6.655   6.198   2.293 -0.2047  0.2208 -0.2600
19265TIP3    H179210   6.591   6.238   2.353 -1.5424 -1.0056 -0.8018
19265TIP3    H279211   6.682   6.118   2.336 -0.2057 -0.0325 -0.7218
19266TIP3   OH279212   2.772   0.572  11.441 -0.4683  0.0892 -0.7769
19266TIP3    H179213   2.688   0.561  11.397  0.1514 -0.3158 -1.8915
19266TIP3    H279214   2.835   0.587  11.371  0.1839  1.8629  0.1358
19267TIP3   OH279215   0.628   1.255   4.686  0.1322 -0.2328  0.1660
19267TIP3    H179216   0.702   1.260   4.624 -1.1786 -0.0036 -1.4570
19267TIP3    H279217   0.603   1.346   4.700 -0.7802 -0.3659 -0.5064
19268TIP3   OH279218   1.702   5.406   0.172 -0.0347  0.0185  0.2070
19268TIP3    H179219   1.783   5.439   0.212 -0.4174 -0.8795  1.7812
19268TIP3    H279220   1.693   5.458   0.092  2.0913  0.1534 -0.0139
19269TIP3   OH279221   2.888   4.177   2.105 -0.1727  0.4359  0.0709
19269TIP3    H179222   2.930   4.112   2.162 -0.2251 -0.0671 -0.4524
19269TIP3    H279223   2.805   4.196   2.148 -0.7189 -0.7852 -0.3871
19270TIP3   OH279224   1.980   3.486   5.296  0.2573 -0.3304  0.2871
19270TIP3    H179225   2.010   3.396   5.285 -0.6682 -0.4705 -1.4990
19270TIP3    H279226   1.898   3.490   5.246 -0.9522  0.8943  2.2397
19271TIP3   OH279227   3.276   3.354   0.853 -0.3317  0.2516 -0.3805
19271TIP3    H179228   3.267   3.284   0.787  0.1186  0.7224 -0.9573
19271TIP3    H279229   3.362   3.392   0.835 -0.5509  0.9166 -0.0413
19272TIP3   OH279230   0.199   0.715  10.715  0.3590 -0.3107  0.5440
19272TIP3    H179231   0.260   0.726  10.642  1.0393 -1.0785  0.9748
19272TIP3    H279232   0.119   0.758  10.686  0.7343 -0.2785 -0.4990
19273TIP3   OH279233   4.493   3.214   4.014 -0.0451  0.4827 -0.0677
19273TIP3    H179234   4.409   3.218   3.970 -1.4581 -0.3552  2.3743
19273TIP3    H279235   4.516   3.121   4.013  1.4762  0.8195 -1.6920
19274TIP3   OH279236   1.728   4.912   6.084  0.6159  0.7058  0.0507
19274TIP3    H179237   1.686   4.988   6.126 -0.9156  0.7724 -1.4939
19274TIP3    H279238   1.671   4.838   6.106  1.7528  0.0851  1.0101
19275TIP3   OH279239   6.321   5.838   3.531  0.0322 -0.4768 -0.4302
19275TIP3    H179240   6.347   5.835   3.439  0.2011 -2.3664 -0.3660
19275TIP3    H279241   6.402   5.825   3.579 -0.1775 -0.3499 -0.0405
19276TIP3   OH279242   6.160   4.989  11.141 -0.3433  0.0056 -0.1510
19276TIP3    H179243   6.075   5.032  11.147 -0.6164 -0.1973 -1.9562
19276TIP3    H279244   6.142   4.897  11.162 -0.2770  0.2232  0.9154
19277TIP3   OH279245   1.050   1.856  11.289  0.3325  0.3018 -0.1733
19277TIP3    H179246   1.090   1.862  11.376 -0.7896  0.7761  0.3320
19277TIP3    H279247   1.121   1.876  11.229  0.9156  0.8936  0.6800
19278TIP3   OH279248   2.410   6.547  15.171  0.3384  0.4805 -0.0699
19278TIP3    H179249   2.440   6.520  15.084 -1.0668  1.2086 -0.8150
19278TIP3    H279250   2.481   6.602  15.205  1.4151 -0.7703 -0.2387
19279TIP3   OH279251   6.153   6.334  12.918 -0.1793  0.0057  0.2702
19279TIP3    H179252   6.229   6.334  12.977 -0.3844  0.6454  0.5368
19279TIP3    H279253   6.191   6.342  12.831  0.1452 -1.2704  0.2750
19280TIP3   OH279254   4.035   6.618  17.000  0.0052  0.1251 -0.4356
19280TIP3    H179255   4.093   6.589  16.929 -1.2551  0.3092 -1.5792
19280TIP3    H279256   4.027   6.541  17.057 -0.4945 -0.6532 -1.5385
19281TIP3   OH279257   4.390   5.343   4.307 -0.1314 -0.3494  0.0664
19281TIP3    H179258   4.451   5.417   4.315 -0.6726  0.0580  0.4980
19281TIP3    H279259   4.346   5.339   4.392 -0.4395 -0.8742 -0.1147
19282TIP3   OH279260   4.500   4.097  11.860  0.4556  0.2342 -0.1867
19282TIP3    H179261   4.550   4.024  11.823  0.0077  0.0146 -0.3638
19282TIP3    H279262   4.549   4.175  11.834 -1.1129  0.3193 -3.4411
19283TIP3   OH279263   3.484   4.788  13.208  0.3180  0.3856 -0.0975
19283TIP3    H179264   3.540   4.845  13.155  0.3445  0.6162  0.1727
19283TIP3    H279265   3.404   4.839  13.221 -0.3212 -0.3036 -1.2381
19284TIP3   OH279266   6.300   4.114   6.403  0.3232 -0.4959  0.3704
19284TIP3    H179267   6.289   4.088   6.494  1.3754  0.2009  0.7151
19284TIP3    H279268   6.214   4.098   6.363 -0.2710 -0.4338  1.5771
19285TIP3   OH279269   2.371   0.608  15.468  0.3989  0.4121 -0.1777
19285TIP3    H179270   2.360   0.515  15.485  0.4455  0.2575 -0.9424
19285TIP3    H279271   2.465   0.619  15.452  0.0713  0.0616 -2.8644
19286TIP3   OH279272   6.388   3.158   4.377 -0.2876  0.5176 -0.2563
19286TIP3    H179273   6.460   3.218   4.358 -1.8676  2.6723  0.1676
19286TIP3    H279274   6.425   3.094   4.438  1.5197  0.9272 -0.8868
19287TIP3   OH279275   3.729   0.027   2.878 -0.3406  0.9367 -0.1685
19287TIP3    H179276   3.677   0.099   2.841 -2.3174  0.5890  1.7218
19287TIP3    H279277   3.812   0.068   2.902 -0.3255  1.9161 -1.7519
19288TIP3   OH279278   3.619   1.865   5.188  0.0378  0.6044 -0.0091
19288TIP3    H179279   3.633   1.773   5.164  0.0982 -0.0761  2.3505
19288TIP3    H279280   3.534   1.888   5.151 -0.1409 -0.5218 -0.3177
19289TIP3   OH279281   6.282   3.500  15.109 -0.7110  0.4496  0.3157
19289TIP3    H179282   6.271   3.406  15.118 -2.3156  0.6880  1.2349
19289TIP3    H279283   6.373   3.511  15.081  0.1616 -1.2630  2.1867
19290TIP3   OH279284   0.572   3.878  12.855  0.3149 -0.1409 -0.5482
19290TIP3    H179285   0.534   3.912  12.936 -2.0236  0.9619 -2.0309
19290TIP3    H279286   0.502   3.828  12.814  0.8940  0.6734 -2.6638
19291TIP3   OH279287   0.310   2.854  11.224  0.1884 -0.0381  0.8699
19291TIP3    H179288   0.353   2.929  11.182  1.4898 -0.2270  1.7684
19291TIP3    H279289   0.306   2.788  11.156  0.2714  0.3915  0.4378
19292TIP3   OH279290   5.709   0.905   4.850  0.0374 -0.2504  0.3550
19292TIP3    H179291   5.625   0.940   4.879 -0.3535 -1.6044  0.9436
19292TIP3    H279292   5.772   0.972   4.872 -0.5243 -0.3366  2.4766
19293TIP3   OH279293   0.762   0.404  11.322  0.3700  0.3017 -0.2100
19293TIP3    H179294   0.748   0.326  11.268  0.2560  0.4710 -0.4266
19293TIP3    H279295   0.682   0.410  11.375 -0.4690  1.3441 -1.5419
19294TIP3   OH279296   0.840   5.732   5.657 -0.3606  0.2907  0.3242
19294TIP3    H179297   0.880   5.733   5.744  0.3569  0.0044  0.0062
19294TIP3    H279298   0.895   5.790   5.605  0.3503 -0.9906 -0.4107
19295TIP3   OH279299   2.216   0.625   1.911  0.4562 -0.3020 -0.3170
19295TIP3    H179300   2.212   0.599   1.819 -2.4189 -0.1453 -0.3335
19295TIP3    H279301   2.205   0.543   1.959 -0.1212 -0.1484 -0.1794
19296TIP3   OH279302   0.179   4.264   6.386  0.0420  0.4157  0.0974
19296TIP3    H179303   0.221   4.321   6.322  0.5193 -1.1798 -1.0816
19296TIP3    H279304   0.246   4.199   6.409 -1.2332 -1.2642 -0.6721
19297TIP3   OH279305   4.630   6.733  14.661 -0.1608 -0.3097  0.6188
19297TIP3    H179306   4.647   6.827  14.671 -0.2406 -0.1544 -0.6152
19297TIP3    H279307   4.542   6.721  14.695  0.3813 -0.2096  2.1415
19298TIP3   OH279308   1.543   0.010  15.667 -0.5608 -0.0570  0.0359
19298TIP3    H179309   1.502  -0.026  15.588 -0.2948 -0.6168  0.1495
19298TIP3    H279310   1.524   0.104  15.663 -0.1812 -0.0154 -0.9095
19299TIP3   OH279311   3.312   4.814   6.124 -0.2467  0.5645  0.3082
19299TIP3    H179312   3.331   4.857   6.040  0.3102 -1.0365 -0.4334
19299TIP3    H279313   3.397   4.780   6.153 -0.7481 -0.4723  0.5987
19300TIP3   OH279314   2.116   1.572   2.274 -1.0431  0.0952 -0.0325
19300TIP3    H179315   2.100   1.518   2.197 -0.3828 -1.7094  1.0500
19300TIP3    H279316   2.064   1.651   2.258 -1.3886 -0.4738 -2.0359
19301TIP3   OH279317   2.881   0.753   5.028  0.2031  0.3690 -0.2528
19301TIP3    H179318   2.960   0.803   5.049  0.9724 -0.7383 -0.4573
19301TIP3    H279319   2.857   0.783   4.941  0.9488  0.0420 -0.5814
19302TIP3   OH279320   5.161   4.753  12.131 -0.4744 -0.3862  0.4663
19302TIP3    H179321   5.197   4.840  12.116 -1.9730 -0.0490 -1.6563
19302TIP3    H279322   5.236   4.700  12.157  0.7258  1.2262  0.3986
19303TIP3   OH279323   2.705   1.774  13.161  0.3660 -0.3018 -0.0659
19303TIP3    H179324   2.660   1.693  13.137  0.1532 -0.1816 -0.0713
19303TIP3    H279325   2.712   1.824  13.080  0.1504 -0.1441  0.0121
19304TIP3   OH279326   6.583   4.040   2.270 -1.3192  0.1167 -0.1191
19304TIP3    H179327   6.643   3.987   2.219 -0.9484 -0.6541  1.0818
19304TIP3    H279328   6.540   3.978   2.329 -0.5513  1.1742  1.6241
19305TIP3   OH279329   2.752   2.396   6.629  0.3989  0.5709 -0.4009
19305TIP3    H179330   2.817   2.466   6.633 -0.2965  1.1545  1.9301
19305TIP3    H279331   2.796   2.320   6.667  0.2351  0.5015 -0.3532
19306TIP3   OH279332   4.135   1.233   5.483 -0.0658 -0.3349 -0.0515
19306TIP3    H179333   4.112   1.229   5.576 -0.2990 -0.0095 -0.0964
19306TIP3    H279334   4.051   1.230   5.437 -0.0122  0.5784 -0.2240
19307TIP3   OH279335   0.557   6.547   1.741 -0.0843  0.2968  0.1231
19307TIP3    H179336   0.617   6.589   1.679  0.0432 -1.2119 -0.8376
19307TIP3    H279337   0.614   6.496   1.799 -0.3604 -1.4871 -1.0566
19308TIP3   OH279338   2.236   0.622   3.251  0.9386 -0.3655 -0.4057
19308TIP3    H179339   2.196   0.632   3.165 -1.3629 -1.2182  0.4853
19308TIP3    H279340   2.247   0.528   3.262  2.4676 -0.1919 -0.2714
19309TIP3   OH279341   5.517   0.008  14.520 -0.4377  0.0006  0.2142
19309TIP3    H179342   5.442   0.062  14.543 -0.7853 -1.1281  1.9317
19309TIP3    H279343   5.478  -0.073  14.486  0.0459  0.1785 -0.7918
19310TIP3   OH279344   1.397   2.107  14.313 -0.1045 -0.1942 -0.1252
19310TIP3    H179345   1.342   2.069  14.244 -1.1005 -1.0842  1.0948
19310TIP3    H279346   1.338   2.164  14.362  0.7944  1.0676 -0.4805
19311TIP3   OH279347   0.602   0.593   0.069 -0.0894  0.1966  0.2778
19311TIP3    H179348   0.641   0.510   0.095  2.5924  0.6533 -1.7844
19311TIP3    H279349   0.594   0.643   0.150  2.3356 -0.5103  1.0125
19312TIP3   OH279350   1.670   5.657  10.787 -0.4990  0.1370  0.1648
19312TIP3    H179351   1.637   5.691  10.704  0.0437 -0.7195 -0.4163
19312TIP3    H279352   1.762   5.682  10.789 -0.9145  1.6956  1.3457
19313TIP3   OH279353   5.061   6.336   4.570  0.1679 -0.0541  0.1737
19313TIP3    H179354   5.007   6.412   4.550 -0.1703 -0.6072 -1.0653
19313TIP3    H279355   5.132   6.371   4.625 -0.1371  1.0988 -0.1437
19314TIP3   OH279356   0.509   2.982  13.796 -0.0645  0.5575  0.3230
19314TIP3    H179357   0.426   2.982  13.747 -0.4513 -1.2611  0.8991
19314TIP3    H279358   0.557   3.057  13.761 -1.3705  0.8273 -1.0281
19315TIP3   OH279359   4.098   5.256   4.507  0.3335  0.0838  0.6044
19315TIP3    H179360   4.055   5.299   4.433  0.1645  0.5443  0.9658
19315TIP3    H279361   4.173   5.313   4.526 -0.6134  0.9309  1.9091
19316TIP3   OH279362   4.506   1.384   3.144 -0.3077  0.2342 -0.4346
19316TIP3    H179363   4.505   1.472   3.183  0.9969 -0.0389  0.2585
19316TIP3    H279364   4.496   1.325   3.219 -0.0974 -0.2509 -0.7838
19317TIP3   OH279365   6.474   2.478  13.871 -0.2577 -0.4745  0.4288
19317TIP3    H179366   6.475   2.397  13.923 -1.9172  1.4064  3.7195
19317TIP3    H279367   6.383   2.485  13.842 -0.1440  0.2301  0.2404
19318TIP3   OH279368   1.143   4.755   2.662  0.1963 -0.2830 -0.2842
19318TIP3    H179369   1.226   4.785   2.699 -0.6821  1.5454  0.3475
19318TIP3    H279370   1.103   4.703   2.732 -0.8217  1.9866  0.9235
19319TIP3   OH279371   3.842   5.680  13.258 -0.0118  0.1149 -0.4074
19319TIP3    H179372   3.851   5.746  13.188 -1.0042 -0.8766 -1.5212
19319TIP3    H279373   3.801   5.605  13.215  2.7906 -2.0220  0.3507
19320TIP3   OH279374   4.160   1.289  16.071  0.6756  0.0680 -0.4373
19320TIP3    H179375   4.130   1.200  16.089  0.0199  0.5653  1.0926
19320TIP3    H279376   4.230   1.304  16.135 -0.5077  1.2799  0.6414
19321TIP3   OH279377   1.798   6.093  13.575  0.0007  0.1743 -0.5698
19321TIP3    H179378   1.826   6.030  13.508 -0.1534 -0.6258  0.1037
19321TIP3    H279379   1.723   6.137  13.536 -0.4224 -0.6641 -0.7254
19322TIP3   OH279380   2.165   6.328  11.943  0.1719  0.2942 -0.0860
19322TIP3    H179381   2.231   6.332  11.874  0.5501  0.5240  0.2938
19322TIP3    H279382   2.103   6.398  11.920 -0.0946 -0.0948 -0.5903
19323TIP3   OH279383   4.856   1.409  16.746 -0.2267 -0.2959  0.0729
19323TIP3    H179384   4.869   1.390  16.653 -0.2273  2.1708 -0.4965
19323TIP3    H279385   4.762   1.422  16.755 -0.2348 -0.5904  0.4599
19324TIP3   OH279386   3.319   1.122   1.899 -0.2333  0.0651 -0.4273
19324TIP3    H179387   3.354   1.067   1.969  0.5278 -2.0039 -2.3291
19324TIP3    H279388   3.314   1.210   1.938  1.3484 -0.7433  1.8064
19325TIP3   OH279389   6.576   1.358  12.650  0.3352 -0.0643 -0.1938
19325TIP3    H179390   6.639   1.342  12.579 -0.0843 -1.3901 -0.2899
19325TIP3    H279391   6.630   1.367  12.728  0.8235  1.6922 -0.7007
19326TIP3   OH279392   2.252   6.219   5.281  0.2193  0.5749 -0.6465
19326TIP3    H179393   2.237   6.263   5.365 -2.4198 -0.6724 -0.3786
19326TIP3    H279394   2.322   6.156   5.300  0.7121  1.3347  0.1752
19327TIP3   OH279395   4.557   3.029  12.454  0.1097 -0.3413 -0.1392
19327TIP3    H179396   4.554   3.115  12.496 -1.8355 -0.3712 -0.1230
19327TIP3    H279397   4.583   2.969  12.523  0.6424  0.1232  0.0635
19328TIP3   OH279398   5.037   5.072   5.871  0.0424  0.1347 -0.0334
19328TIP3    H179399   5.047   5.164   5.897  0.0268 -0.0674  0.6940
19328TIP3    H279400   5.008   5.027   5.950 -1.4741 -0.2416 -0.7501
19329TIP3   OH279401   5.202   2.589   4.008  0.3161 -0.0475  0.1523
19329TIP3    H179402   5.204   2.495   4.024 -0.4681 -0.1272 -0.1682
19329TIP3    H279403   5.293   2.613   3.990  0.0665 -1.6094 -4.5114
19330TIP3   OH279404   3.143   5.406  14.538  0.2400  0.4756  0.0257
19330TIP3    H179405   3.058   5.363  14.529  0.1659  0.7694 -0.7223
19330TIP3    H279406   3.122   5.497  14.559  0.3503  0.6499 -0.5851
19331TIP3   OH279407   3.679   2.801  14.579 -0.0130 -0.0238  0.1384
19331TIP3    H179408   3.625   2.723  14.592 -0.0209  0.2710  2.2697
19331TIP3    H279409   3.729   2.783  14.500  0.8706 -2.7585  1.1965
19332TIP3   OH279410   5.207   5.517   3.473 -0.6263 -0.3783 -0.0173
19332TIP3    H179411   5.238   5.453   3.537 -1.7489 -1.3824 -0.4383
19332TIP3    H279412   5.193   5.466   3.393  0.5431  0.8151 -1.0244
19333TIP3   OH279413   1.610   1.927   2.224 -0.0335  0.0458  0.0537
19333TIP3    H179414   1.555   1.890   2.155 -0.3321 -1.3396  0.9995
19333TIP3    H279415   1.648   1.851   2.269  1.8469  0.9410  0.0926
19334TIP3   OH279416   0.847   3.034   6.433  0.8016 -0.3870  0.2790
19334TIP3    H179417   0.765   3.083   6.423 -0.6739 -2.8029 -0.1773
19334TIP3    H279418   0.884   3.033   6.344  1.5588  0.9696  0.5419
19335TIP3   OH279419   6.466   1.990   5.998 -0.1466 -0.5977 -0.3620
19335TIP3    H179420   6.425   1.916   5.952 -0.0159 -0.5208 -0.6009
19335TIP3    H279421   6.558   1.985   5.974 -0.0727 -0.5668 -0.0938
19336TIP3   OH279422   5.142   1.758  11.804 -0.5572  0.4249  0.3511
19336TIP3    H179423   5.119   1.731  11.715 -1.5419  1.9947  0.0779
19336TIP3    H279424   5.209   1.696  11.831 -1.7406 -1.4196 -0.6659
19337TIP3   OH279425   2.378   1.070  12.908 -0.4404 -0.3327 -0.4722
19337TIP3    H179426   2.360   0.994  12.852  0.6061 -0.4327 -0.6839
19337TIP3    H279427   2.473   1.076  12.911 -0.4203  2.5319 -2.6140
19338TIP3   OH279428   5.533   2.160   2.237 -0.4232 -0.3372  0.4818
19338TIP3    H179429   5.452   2.185   2.194  0.1482 -0.6296 -0.7867
19338TIP3    H279430   5.549   2.070   2.210 -0.5952 -0.9187  2.1746
19339TIP3   OH279431   4.795   5.562  14.020  0.0311 -0.1618  0.0707
19339TIP3    H179432   4.709   5.522  14.005 -0.2799  0.4095  0.2949
19339TIP3    H279433   4.849   5.534  13.946 -0.5255 -0.0315 -0.3858
19340TIP3   OH279434   4.360   3.189   2.138  0.2349  0.6972 -0.2879
19340TIP3    H179435   4.403   3.111   2.171 -0.6746  0.3262  0.0536
19340TIP3    H279436   4.384   3.193   2.046 -0.5142 -0.5426 -0.5505
19341TIP3   OH279437   4.187   1.537  12.071 -0.9735 -0.5199 -0.4253
19341TIP3    H179438   4.175   1.442  12.077  1.5053 -1.0653 -2.4214
19341TIP3    H279439   4.203   1.553  11.978 -0.9155  1.8083 -0.0628
19342TIP3   OH279440   0.241   2.341   1.621  0.0285 -0.2304 -0.2948
19342TIP3    H179441   0.168   2.359   1.681 -1.6691  1.1989 -2.6227
19342TIP3    H279442   0.210   2.268   1.567  0.4824  0.1312 -1.0555
19343TIP3   OH279443   3.491   6.008   0.942  0.1763 -0.1726 -0.4606
19343TIP3    H179444   3.525   6.097   0.936  0.8700 -0.4864 -1.6482
19343TIP3    H279445   3.549   5.964   1.004  0.9232 -0.2412 -1.1842
19344TIP3   OH279446   3.088   4.559  13.582 -0.2847  0.1148 -0.6898
19344TIP3    H179447   3.046   4.642  13.559  2.6174  1.3098 -2.2499
19344TIP3    H279448   3.118   4.572  13.672 -2.9920 -0.7223  0.4075
19345TIP3   OH279449   4.497   0.494  13.785 -0.1083  0.5040  0.3950
19345TIP3    H179450   4.417   0.528  13.746 -0.7913 -0.1998  1.1267
19345TIP3    H279451   4.470   0.464  13.872  0.6451 -0.9650  0.1671
19346TIP3   OH279452   0.757   1.008   4.957  0.0056  0.8741 -0.4126
19346TIP3    H179453   0.823   0.948   4.992 -1.0180  0.7370  1.3988
19346TIP3    H279454   0.710   0.956   4.891  1.6088  0.9517 -1.6717
19347TIP3   OH279455   0.455   2.966   1.961  0.2556  0.2730 -0.1702
19347TIP3    H179456   0.402   2.915   1.899  1.8920 -0.2928 -1.1814
19347TIP3    H279457   0.404   3.045   1.976 -1.7029 -1.0034  0.3350
19348TIP3   OH279458   0.844   2.478   4.023 -0.1706 -0.0496 -0.2721
19348TIP3    H179459   0.807   2.510   4.105  3.0542 -0.6804  1.6060
19348TIP3    H279460   0.843   2.383   4.031  1.3111 -0.0986 -0.3233
19349TIP3   OH279461   5.880   5.839  12.337  0.2933 -0.1999  0.2791
19349TIP3    H179462   5.961   5.826  12.288  0.0707  0.1462 -0.1898
19349TIP3    H279463   5.905   5.893  12.412  0.2525  1.1663 -0.6454
19350TIP3   OH279464   2.635   4.372   6.501 -0.0091 -0.0506  0.1284
19350TIP3    H179465   2.612   4.461   6.528  4.5447  1.4985 -0.2180
19350TIP3    H279466   2.662   4.382   6.409 -0.6410 -2.1382 -0.3272
19351TIP3   OH279467   6.444   2.488  16.062 -0.1784  0.4472 -0.3436
19351TIP3    H179468   6.448   2.400  16.098  1.1599  0.7762  0.3677
19351TIP3    H279469   6.519   2.493  16.002  1.6176  2.0352  1.8872
19352TIP3   OH279470   4.347   1.137   3.402 -0.6813 -0.0136 -0.2216
19352TIP3    H179471   4.276   1.110   3.344  1.2720 -1.3320 -2.1171
19352TIP3    H279472   4.419   1.158   3.344  0.9086  0.1136  1.6894
19353TIP3   OH279473   1.389   0.793   4.092  0.7565  0.2448  0.2604
19353TIP3    H179474   1.456   0.775   4.027  1.2556 -0.1914  0.8893
19353TIP3    H279475   1.311   0.815   4.040  0.6902 -1.6376 -0.5156
19354TIP3   OH279476   5.044   3.637  17.217 -0.6532 -0.2549 -0.1987
19354TIP3    H179477   5.002   3.669  17.137 -1.6050  0.6979  0.6477
19354TIP3    H279478   4.972   3.598  17.268 -0.2574  0.0603  0.6299
19355TIP3   OH279479   1.036   3.498  11.636  0.2413  0.1361 -0.2659
19355TIP3    H179480   1.041   3.463  11.725  0.2102 -0.2024 -0.3957
19355TIP3    H279481   0.948   3.534  11.629  0.9705  2.2314  0.6010
19356TIP3   OH279482   3.353   0.137  15.263  1.0598 -0.7497  0.1703
19356TIP3    H179483   3.409   0.059  15.259  1.8612 -0.1509 -0.7467
19356TIP3    H279484   3.373   0.176  15.348  0.8679 -1.3828  0.5128
19357TIP3   OH279485   2.521   5.771  16.426 -0.0201  0.2427  0.3006
19357TIP3    H179486   2.507   5.865  16.423  2.8041  0.7400 -0.9543
19357TIP3    H279487   2.497   5.740  16.339  0.7650  0.1398  0.1107
19358TIP3   OH279488   6.065   3.680   2.077 -0.0131  0.3743  0.2555
19358TIP3    H179489   6.098   3.610   2.021 -1.2597  0.4042 -0.5624
19358TIP3    H279490   5.974   3.692   2.049  0.1857  2.3868  0.2969
19359TIP3   OH279491   5.673   1.939   0.488 -0.0538 -0.0953  0.0906
19359TIP3    H179492   5.608   1.988   0.438  0.4740 -1.9552 -2.6671
19359TIP3    H279493   5.757   1.973   0.459  0.2625 -0.4932  0.5124
19360TIP3   OH279494   4.580   4.311  16.580 -0.1691  0.2934  0.4914
19360TIP3    H179495   4.613   4.374  16.516 -0.5844 -0.3441 -0.3929
19360TIP3    H279496   4.618   4.227  16.552 -0.3472  0.0084  1.0948
19361TIP3   OH279497   1.940   5.080  10.568  0.3900 -0.2484 -0.0159
19361TIP3    H179498   1.862   5.101  10.517  1.0589  1.7968 -0.2728
19361TIP3    H279499   1.982   5.164  10.583  2.6071 -1.3089  0.0304
19362TIP3   OH279500   2.397   1.142   2.153 -0.3927  0.0937 -0.3123
19362TIP3    H179501   2.478   1.131   2.103 -0.0537  0.8366  0.0576
19362TIP3    H279502   2.391   1.236   2.169 -0.5159 -0.1111  0.9962
19363TIP3   OH279503   3.964   1.113   6.069  0.3825  0.6924  0.4110
19363TIP3    H179504   4.047   1.112   6.117  0.4140  0.1086  0.3464
19363TIP3    H279505   3.989   1.125   5.977  0.2848  2.6310  0.5954
19364TIP3   OH279506   5.215   5.892  13.140  0.2015  0.6453 -0.0240
19364TIP3    H179507   5.269   5.969  13.155  0.2126  0.8530 -1.0303
19364TIP3    H279508   5.215   5.881  13.045  2.4728 -2.2384  0.1798
19365TIP3   OH279509   4.885   5.477   4.410  0.0583  0.2088  0.7814
19365TIP3    H179510   4.869   5.550   4.351  1.9098  0.3697  0.3942
19365TIP3    H279511   4.894   5.517   4.496  1.2766  0.5082  0.5390
19366TIP3   OH279512   5.995   6.244   2.204  0.0001 -0.0980  0.2010
19366TIP3    H179513   5.983   6.151   2.224 -2.4852  0.4604  1.7914
19366TIP3    H279514   5.952   6.256   2.119 -0.4604 -0.2482  0.4095
19367TIP3   OH279515   3.674   5.467  15.179  0.3333 -0.6829 -0.4568
19367TIP3    H179516   3.621   5.388  15.186  1.4175 -1.4433 -0.5097
19367TIP3    H279517   3.720   5.458  15.095  0.9185 -0.2997 -0.1890
19368TIP3   OH279518   1.688   2.048  16.960 -0.0008 -0.0751  0.5331
19368TIP3    H179519   1.784   2.053  16.963  0.0143  0.8275 -0.8100
19368TIP3    H279520   1.667   2.036  16.868 -1.1405 -2.2605  1.0192
19369TIP3   OH279521   3.263   3.862  16.998 -0.9576  0.4170  0.5241
19369TIP3    H179522   3.343   3.814  16.975 -1.8454 -0.4589 -0.8635
19369TIP3    H279523   3.283   3.953  16.976 -0.0505  0.3497  1.0137
19370TIP3   OH279524   3.425   4.886  15.427  0.6038  0.3363  0.5745
19370TIP3    H179525   3.515   4.909  15.402 -0.3401  0.5206 -3.4265
19370TIP3    H279526   3.426   4.791  15.434  0.6311  0.0251 -2.4526
19371TIP3   OH279527   1.411   0.040   3.799 -0.6819 -0.1391  0.3243
19371TIP3    H179528   1.318   0.060   3.806 -0.2570  1.4138  2.3401
19371TIP3    H279529   1.421  -0.044   3.843 -1.5467 -2.0141 -2.7847
19372TIP3   OH279530   1.827   6.088  16.732 -0.3976  0.1142  0.2412
19372TIP3    H179531   1.908   6.038  16.730 -0.8386 -0.5929 -0.1273
19372TIP3    H279532   1.853   6.173  16.770  0.2814 -0.4939  1.1954
19373TIP3   OH279533   3.771   3.230  12.851 -0.4570 -0.3850  0.1353
19373TIP3    H179534   3.708   3.298  12.875 -0.0073 -0.0022  0.2296
19373TIP3    H279535   3.716   3.157  12.821 -0.9965 -0.4457  1.1970
19374TIP3   OH279536   3.205   3.469   3.155  0.2467  0.4617  0.4717
19374TIP3    H179537   3.241   3.519   3.081 -0.7188  0.6008  0.0792
19374TIP3    H279538   3.135   3.416   3.116  2.9342 -3.3901  0.3045
19375TIP3   OH279539   6.248   0.674  14.005 -0.1801 -0.0470 -0.2336
19375TIP3    H179540   6.189   0.599  14.012 -0.8154  0.4566 -0.0303
19375TIP3    H279541   6.230   0.710  13.918  0.8677 -0.7288 -0.7426
19376TIP3   OH279542   1.488   5.117   5.499  0.0103  0.5008  0.7644
19376TIP3    H179543   1.503   5.132   5.592 -0.6599  2.0518  0.6514
19376TIP3    H279544   1.527   5.193   5.456 -4.6591  3.0105  0.2377
19377TIP3   OH279545   0.714   0.521  14.383  0.1003 -0.0861  0.3940
19377TIP3    H179546   0.641   0.530  14.322  1.9179 -1.4004 -2.1627
19377TIP3    H279547   0.674   0.492  14.464 -2.2989  0.2500 -0.5808
19378TIP3   OH279548   2.395   1.914   2.497  0.2479 -0.0921 -0.0338
19378TIP3    H179549   2.314   1.876   2.531 -0.2406  1.9088  1.2385
19378TIP3    H279550   2.443   1.839   2.461 -0.3755 -2.0372  2.7914
19379TIP3   OH279551   0.312   5.812  13.339 -0.3279 -0.5647  0.3257
19379TIP3    H179552   0.374   5.804  13.412  0.7373  0.4016 -0.4277
19379TIP3    H279553   0.241   5.866  13.374  0.8373  1.0737  0.2857
19380TIP3   OH279554   3.027   3.425  13.802 -0.2834  0.3361  0.3675
19380TIP3    H179555   2.944   3.473  13.796 -0.8608 -0.6795 -0.0030
19380TIP3    H279556   3.022   3.378  13.885 -0.8539 -1.0572 -0.4053
19381TIP3   OH279557   1.523   5.144   5.793  0.4767  0.0590  0.1324
19381TIP3    H179558   1.482   5.166   5.876  2.0352 -1.2013  1.2968
19381TIP3    H279559   1.521   5.048   5.790 -0.3471  0.0933 -1.7282
19382TIP3   OH279560   3.291   3.921   0.639  0.6273 -0.2407 -0.1424
19382TIP3    H179561   3.244   3.994   0.680  0.7744 -1.0702  1.5445
19382TIP3    H279562   3.364   3.963   0.594  0.9572  0.6429  1.1644
19383TIP3   OH279563   4.826   6.497   0.605 -0.0922 -0.2721  0.2607
19383TIP3    H179564   4.878   6.431   0.559 -0.0631 -0.2797  0.3043
19383TIP3    H279565   4.891   6.555   0.645 -0.1176 -0.0259 -0.0494
19384TIP3   OH279566   2.632   4.224  10.318  0.2320 -0.5108 -0.2387
19384TIP3    H179567   2.650   4.185  10.404  1.1910  1.6443  0.6375
19384TIP3    H279568   2.688   4.176  10.257  0.2305 -1.4756  0.5016
19385TIP3   OH279569   1.794   4.039  15.681 -0.4760  0.1382  0.2289
19385TIP3    H179570   1.717   4.057  15.735 -0.3748  1.2368  0.0353
19385TIP3    H279571   1.867   4.072  15.733 -0.1931 -0.3896  0.1684
19386TIP3   OH279572   3.518   0.318  16.521 -0.2638  0.1429  0.4281
19386TIP3    H179573   3.558   0.405  16.519  0.5289 -0.0959  2.6810
19386TIP3    H279574   3.528   0.289  16.612 -1.9514 -1.6466  0.1153
19387TIP3   OH279575   4.447   3.531  17.026 -0.4056  0.0593  0.1237
19387TIP3    H179576   4.502   3.575  16.962  0.9327  1.0392  1.8371
19387TIP3    H279577   4.454   3.584  17.105 -2.2944 -0.8727  1.0021
19388TIP3   OH279578   6.146   2.583  12.681  0.5323  0.1557  0.1313
19388TIP3    H179579   6.098   2.579  12.598  2.1958 -1.3088 -0.8208
19388TIP3    H279580   6.079   2.565  12.748 -0.6500  0.3654 -0.9460
19389TIP3   OH279581   1.508   6.580   2.425  0.3617 -0.3684 -0.3389
19389TIP3    H179582   1.416   6.589   2.451  0.1805 -1.9511 -0.3905
19389TIP3    H279583   1.554   6.646   2.478 -0.7832  0.4184 -0.2938
19390TIP3   OH279584   0.597   3.409   3.889  0.2398 -0.1066  0.3248
19390TIP3    H179585   0.658   3.406   3.963 -0.3652  1.5771  0.9453
19390TIP3    H279586   0.636   3.351   3.823  2.1095  0.3252  0.9963
19391TIP3   OH279587   3.319   0.614  17.086 -0.3779 -0.1560  0.7371
19391TIP3    H179588   3.329   0.552  17.014 -0.7667  1.8825 -1.1860
19391TIP3    H279589   3.345   0.565  17.164 -0.3368 -2.5892 -0.7018
19392TIP3   OH279590   5.897   1.832   4.570  0.2241 -0.1397 -0.5070
19392TIP3    H179591   5.986   1.844   4.537  0.7018 -0.5802  0.5754
19392TIP3    H279592   5.909   1.802   4.660 -1.0273  0.1663 -0.2245
19393TIP3   OH279593   4.094   5.753   1.197 -0.4930  0.0201 -0.0082
19393TIP3    H179594   4.016   5.705   1.225  0.0688 -1.0677 -0.2498
19393TIP3    H279595   4.145   5.765   1.277  0.0726 -1.1332 -0.1848
19394TIP3   OH279596   2.459   4.017  16.563  1.0599  0.3253 -0.3341
19394TIP3    H179597   2.420   4.099  16.594 -0.1918 -0.5833  0.6095
19394TIP3    H279598   2.403   3.990  16.490 -0.3773 -1.1344  1.2108
19395TIP3   OH279599   4.814   1.129   5.888  0.1765 -0.1992 -0.0568
19395TIP3    H179600   4.753   1.088   5.950  0.0924 -0.9808 -0.6385
19395TIP3    H279601   4.776   1.112   5.802 -0.8993  2.7985 -0.2854
19396TIP3   OH279602   1.248   2.859   5.330  0.1305 -0.9327 -0.2756
19396TIP3    H179603   1.280   2.903   5.251  1.5794 -1.2098  0.1347
19396TIP3    H279604   1.182   2.919   5.365  1.3203  0.4661 -0.3005
19397TIP3   OH279605   0.678   2.393   6.444 -0.4228  0.5398 -0.1240
19397TIP3    H179606   0.766   2.430   6.449 -0.1949  0.2008 -1.4119
19397TIP3    H279607   0.622   2.460   6.484  0.1351  1.7418 -1.2902
19398TIP3   OH279608   6.576   4.890   1.643  0.3744 -0.3599 -0.2423
19398TIP3    H179609   6.500   4.894   1.701  1.2753  0.3038  0.9635
19398TIP3    H279610   6.616   4.805   1.661  0.1010 -0.5715 -0.6330
19399TIP3   OH279611   4.416   1.825   3.405  0.2097 -0.2190 -0.1290
19399TIP3    H179612   4.331   1.862   3.427 -0.1852 -0.5550 -1.0563
19399TIP3    H279613   4.406   1.792   3.316  0.4776 -2.7681  0.7123
19400TIP3   OH279614   3.067   1.479   2.217 -0.0500 -0.8493 -0.4531
19400TIP3    H179615   3.071   1.438   2.131  3.9596 -0.1449 -0.7992
19400TIP3    H279616   3.051   1.572   2.199 -1.2592 -0.9914 -0.2234
19401TIP3   OH279617   0.747   2.016  12.118 -0.2722 -0.4474  0.3971
19401TIP3    H179618   0.824   1.986  12.168  0.0166 -0.7173 -0.1965
19401TIP3    H279619   0.782   2.034  12.031 -0.8267 -0.2476  0.2184
19402TIP3   OH279620   3.214   0.678   6.033  0.2959 -0.0148  0.2370
19402TIP3    H179621   3.119   0.673   6.031  0.1922  0.4283  2.1672
19402TIP3    H279622   3.239   0.636   6.115  1.8210 -0.5857 -0.4757
19403TIP3   OH279623   6.187   2.179  14.479  0.4138 -0.6327  0.4654
19403TIP3    H179624   6.205   2.254  14.424  1.6710 -0.1884  1.4142
19403TIP3    H279625   6.099   2.194  14.514  0.5200  0.2207  0.3781
19404TIP3   OH279626   5.355   1.729  15.925 -0.4415 -0.5713 -0.2434
19404TIP3    H179627   5.429   1.722  15.985 -1.4548  0.0103  1.1048
19404TIP3    H279628   5.279   1.739  15.981 -1.5219 -0.7783 -1.6142
19405TIP3   OH279629   3.682   2.976   1.537 -0.4276  0.8716  0.4262
19405TIP3    H179630   3.627   2.940   1.468  0.2302  0.6436  0.0193
19405TIP3    H279631   3.695   3.068   1.512 -1.7302  1.3190  1.2316
19406TIP3   OH279632   4.669   6.617   3.541 -0.3678 -0.2076 -0.2481
19406TIP3    H179633   4.724   6.550   3.502  1.5078  1.3316 -0.3885
19406TIP3    H279634   4.702   6.700   3.505 -2.5271  0.8368 -0.0209
19407TIP3   OH279635   2.636   1.794   3.930 -0.5366 -0.5412 -0.3165
19407TIP3    H179636   2.616   1.714   3.977  1.2414 -1.5835 -1.2487
19407TIP3    H279637   2.652   1.766   3.840 -0.8489  1.0026 -0.8902
19408TIP3   OH279638   1.852   3.333   4.933  0.1221  0.3048 -0.0943
19408TIP3    H179639   1.791   3.267   4.965 -0.5949  0.3209 -1.3656
19408TIP3    H279640   1.803   3.415   4.939  0.6583  0.5894  0.5407
19409TIP3   OH279641   1.775   4.594   4.274  0.0836 -0.1940  0.5012
19409TIP3    H179642   1.705   4.581   4.338  0.4633  0.2269  1.0152
19409TIP3    H279643   1.821   4.511   4.272 -1.5765 -1.1592 -1.2968
19410TIP3   OH279644   0.011   2.534  15.593  0.3127  0.2802  0.6238
19410TIP3    H179645  -0.027   2.477  15.526  0.6103  0.5995  0.1726
19410TIP3    H279646  -0.054   2.536  15.663  0.2179 -0.4565  0.5588
19411TIP3   OH279647   4.826   2.278  11.959  0.1802  0.2396  0.0448
19411TIP3    H179648   4.775   2.316  11.887  0.2232  1.9447  0.8724
19411TIP3    H279649   4.905   2.245  11.916 -0.7848 -0.8510 -0.9965
19412TIP3   OH279650   3.031   6.561  13.072  0.0198 -0.0034 -0.0161
19412TIP3    H179651   2.992   6.559  12.985  1.0112 -0.1406 -0.4594
19412TIP3    H279652   3.041   6.654  13.092  0.3105  0.0182 -0.2751
19413TIP3   OH279653   4.284   0.364   5.079 -0.0681 -0.0434 -0.0657
19413TIP3    H179654   4.356   0.414   5.041 -0.2027  0.6263  0.5448
19413TIP3    H279655   4.222   0.430   5.110 -0.5853 -0.6012  0.1117
19414TIP3   OH279656   6.617   4.933  14.744 -0.4060  0.2716  0.2368
19414TIP3    H179657   6.641   5.014  14.788 -0.5257 -0.4188  1.6070
19414TIP3    H279658   6.603   4.959  14.653  2.8116  1.2016 -0.1054
19415TIP3   OH279659   3.347   1.716  14.024 -0.4330 -0.4729  0.1971
19415TIP3    H179660   3.341   1.804  14.061 -1.6282 -0.5946  0.3335
19415TIP3    H279661   3.399   1.666  14.088 -2.0509 -0.5542  1.5169
19416TIP3   OH279662   5.391   6.111  15.285 -0.1318 -0.2639 -0.0648
19416TIP3    H179663   5.418   6.148  15.201  1.7389  0.8501  0.9549
19416TIP3    H279664   5.308   6.154  15.304  0.2170  0.6967 -0.6190
19417TIP3   OH279665   2.272   4.714   3.441 -0.1751  0.4641 -0.0674
19417TIP3    H179666   2.235   4.629   3.415 -0.1384  0.4396 -0.0403
19417TIP3    H279667   2.269   4.767   3.362 -1.8693  1.0350  0.3314
19418TIP3   OH279668   4.983   4.267   4.315 -0.4388  0.4032  0.1564
19418TIP3    H179669   4.892   4.281   4.342  0.0189  1.6049  1.2003
19418TIP3    H279670   4.978   4.254   4.220 -1.6374  1.1868  0.0874
19419TIP3   OH279671   4.069   0.760  15.043  0.3742  0.1552 -0.3068
19419TIP3    H179672   4.123   0.744  14.966 -0.8795  0.6832 -1.3212
19419TIP3    H279673   3.982   0.777  15.009  0.1495  2.1681  1.1090
19420TIP3   OH279674   4.355   0.992  12.279 -0.1925 -0.4194  0.4061
19420TIP3    H179675   4.344   1.071  12.226 -0.3705 -0.9600 -0.3783
19420TIP3    H279676   4.428   0.945  12.237 -1.8268 -2.0027 -0.8410
19421TIP3   OH279677   0.697   3.994  10.362 -0.1424  0.3430 -0.7237
19421TIP3    H179678   0.609   3.990  10.325 -0.5467 -0.2513  0.2890
19421TIP3    H279679   0.722   3.902  10.376 -0.2708  0.5687  1.1095
19422TIP3   OH279680   1.698   6.390  16.697  0.1142  0.0208 -0.0958
19422TIP3    H179681   1.781   6.380  16.743  0.4935 -0.9456 -0.9636
19422TIP3    H279682   1.640   6.326  16.738 -0.5073  1.2720  1.0938
19423TIP3   OH279683   4.359   2.806   2.264  0.0801  0.4117  0.7929
19423TIP3    H179684   4.438   2.753   2.283 -0.2192  0.0350  1.0083
19423TIP3    H279685   4.332   2.777   2.177  0.6073  1.0824  0.3974
19424TIP3   OH279686   5.635   6.144  15.025  0.0800  0.1188 -0.4388
19424TIP3    H179687   5.543   6.116  15.034  0.4002 -1.4043 -1.4037
19424TIP3    H279688   5.664   6.103  14.943  1.3642  1.3516 -0.6396
19425TIP3   OH279689   0.312   3.629   4.104 -0.2466 -0.4435 -1.0704
19425TIP3    H179690   0.274   3.651   4.189 -0.7152 -1.6888 -0.9316
19425TIP3    H279691   0.242   3.644   4.041 -0.6344 -1.6717 -0.9504
19426TIP3   OH279692   0.289   1.783  15.070 -0.1176 -0.6123  0.0953
19426TIP3    H179693   0.207   1.832  15.071  0.2168  0.0130  2.2608
19426TIP3    H279694   0.302   1.756  15.161  2.3456 -0.1971 -0.0526
19427TIP3   OH279695   2.201   4.372   5.401 -0.2626  0.1719  0.2397
19427TIP3    H179696   2.262   4.301   5.422 -0.8152  0.0105  1.3759
19427TIP3    H279697   2.149   4.338   5.328  1.1837  0.4375 -0.9807
19428TIP3   OH279698   6.173   5.365   4.856  0.2143  0.2174 -0.3312
19428TIP3    H179699   6.263   5.359   4.887  0.2347 -0.8500 -0.5740
19428TIP3    H279700   6.168   5.301   4.785 -0.5863  0.6591 -0.6846
19429TIP3   OH279701   0.620   3.363  15.931 -0.1537  0.2424 -0.0082
19429TIP3    H179702   0.602   3.417  16.008  0.3929 -1.7332  1.5943
19429TIP3    H279703   0.541   3.309  15.920  0.9742 -1.8046  1.2779
19430TIP3   OH279704   3.162   4.774  15.803  0.2900  0.5524 -0.5247
19430TIP3    H179705   3.110   4.822  15.868 -1.2308 -0.0125 -1.2897
19430TIP3    H279706   3.196   4.842  15.745 -0.1907  0.8787 -0.4324
19431TIP3   OH279707   2.568   5.807   5.373  0.3779 -0.0331  0.8470
19431TIP3    H179708   2.554   5.793   5.467  0.8893 -0.9021  0.8058
19431TIP3    H279709   2.657   5.776   5.357  0.0431 -0.5927 -0.0468
19432TIP3   OH279710   5.152   5.537  13.182 -0.1309  0.0397 -0.1055
19432TIP3    H179711   5.073   5.587  13.165 -0.9827 -0.4069  2.1493
19432TIP3    H279712   5.121   5.454  13.218  1.3021  0.7661  3.1824
19433TIP3   OH279713   4.049   1.092  17.066  0.4041 -0.1461  0.4236
19433TIP3    H179714   4.095   1.012  17.040 -0.0980 -0.6221  0.9770
19433TIP3    H279715   4.045   1.087  17.162 -0.9102 -0.1881  0.3807
19434TIP3   OH279716   0.543   0.006   0.517 -0.1140 -0.0569 -0.4117
19434TIP3    H179717   0.594   0.028   0.439  1.7022  0.0394  0.7353
19434TIP3    H279718   0.506   0.090   0.546  1.7294  0.4859  0.5027
19435TIP3   OH279719   1.904   6.018   2.107 -0.1434  0.1217  0.2553
19435TIP3    H179720   1.822   5.971   2.120  0.0081 -0.0595  0.5662
19435TIP3    H279721   1.888   6.075   2.032 -0.1429 -0.8699 -0.5205
19436TIP3   OH279722   3.738   2.917   4.608  0.4909  0.0181  0.3195
19436TIP3    H179723   3.825   2.878   4.617  0.5759  0.1009 -0.1063
19436TIP3    H279724   3.678   2.845   4.626  0.6220  0.3692  2.4021
19437TIP3   OH279725   1.468   0.157  15.093  0.5241 -0.3581  0.0573
19437TIP3    H179726   1.496   0.152  15.001  0.8078 -2.2001  0.2100
19437TIP3    H279727   1.517   0.231  15.129 -0.8058  1.4745 -1.6346
19438TIP3   OH279728   5.932   0.140   1.129  0.3594  0.2922  0.2338
19438TIP3    H179729   5.957   0.197   1.202  0.7685 -1.1955  1.2988
19438TIP3    H279730   5.998   0.156   1.062  0.9249  0.4966  0.8271
19439TIP3   OH279731   6.523   4.014   1.319  0.0447  0.1814  0.4217
19439TIP3    H179732   6.469   3.964   1.257 -1.0652  2.4261 -0.5544
19439TIP3    H279733   6.461   4.048   1.383  0.4804  1.5410  0.1661
19440TIP3   OH279734   5.795   5.005   5.683  0.2677 -0.0329 -0.2327
19440TIP3    H179735   5.813   4.992   5.590 -0.7027 -0.4442 -0.3744
19440TIP3    H279736   5.769   4.918   5.715  1.5678 -0.1304  0.6648
19441TIP3   OH279737   2.910   2.935  12.479  0.0120 -0.2505  0.0163
19441TIP3    H179738   2.820   2.965  12.494  0.5075  0.8717  0.9001
19441TIP3    H279739   2.917   2.854  12.530 -0.2376  0.1545  0.7151
19442TIP3   OH279740   3.117   0.100   1.910  0.7730  0.2016 -0.7195
19442TIP3    H179741   3.086   0.077   1.822 -1.8534 -0.4194  0.2886
19442TIP3    H279742   3.048   0.069   1.969  3.4859 -1.6068  1.8178
19443TIP3   OH279743   3.902   4.536  16.124 -0.1787  0.2280 -0.4311
19443TIP3    H179744   3.954   4.525  16.203 -1.1482  1.4447  0.4313
19443TIP3    H279745   3.822   4.579  16.155 -2.0104 -2.1436 -1.5752
19444TIP3   OH279746   0.747   6.147  15.542 -0.0215 -0.5068  0.1775
19444TIP3    H179747   0.709   6.130  15.628 -0.3975 -0.0317  0.1086
19444TIP3    H279748   0.839   6.122  15.551  1.0665  3.3903  1.9858
19445TIP3   OH279749   6.431   3.708  16.971 -0.1999 -0.0178  0.6006
19445TIP3    H179750   6.340   3.680  16.981  0.4064 -2.6044 -0.3120
19445TIP3    H279751   6.473   3.685  17.054 -0.2179  0.5957  0.7866
19446TIP3   OH279752   6.329   5.039  10.932 -0.0410  0.1729  0.4621
19446TIP3    H179753   6.274   4.997  10.998 -0.0608 -1.6439 -0.6419
19446TIP3    H279754   6.274   5.110  10.898 -1.2203 -0.7836  0.2977
19447TIP3   OH279755   3.708   2.367  11.509 -0.4756 -0.4348  0.4584
19447TIP3    H179756   3.668   2.431  11.450 -1.7505 -0.8607  0.8387
19447TIP3    H279757   3.701   2.407  11.596  3.1721  1.1073  0.2282
19448TIP3   OH279758   2.994   4.775  14.208 -0.1196  0.0369  0.0485
19448TIP3    H179759   2.988   4.686  14.242  3.3720 -0.2202  0.2704
19448TIP3    H279760   2.933   4.776  14.134  1.0743 -3.1734 -1.1641
19449TIP3   OH279761   4.924   6.359   5.896 -0.0348 -0.5076  0.2137
19449TIP3    H179762   4.880   6.355   5.981 -1.3369 -0.9626 -0.4506
19449TIP3    H279763   4.903   6.445   5.862 -0.8385 -0.8978 -0.3097
19450TIP3   OH279764   4.706   6.694   3.232  0.0966  0.0901  0.3188
19450TIP3    H179765   4.669   6.619   3.185 -0.0362 -0.3971  1.1750
19450TIP3    H279766   4.656   6.769   3.199 -0.7532 -0.3857  0.4763
19451TIP3   OH279767   6.736   2.895  12.482 -0.2117  0.1682  0.6617
19451TIP3    H179768   6.677   2.851  12.421  0.5853 -0.3350  0.2343
19451TIP3    H279769   6.681   2.921  12.556 -0.7408 -1.3115  0.8028
19452TIP3   OH279770   1.307   5.321   0.392 -0.7237 -0.0719  0.4094
19452TIP3    H179771   1.349   5.376   0.326  0.2043 -0.9619  0.2281
19452TIP3    H279772   1.269   5.383   0.454  1.1497  0.8007  0.7591
19453TIP3   OH279773   4.784   3.755   5.088  0.2477  0.1447  0.2092
19453TIP3    H179774   4.769   3.666   5.122 -0.5820  0.5805  1.0252
19453TIP3    H279775   4.765   3.748   4.995  3.4222 -1.2830 -0.4569
19454TIP3   OH279776   0.862   3.422   4.753  0.4688 -0.0164 -0.2629
19454TIP3    H179777   0.927   3.353   4.735 -1.5116 -1.5283 -2.1655
19454TIP3    H279778   0.830   3.402   4.841  3.3143  1.5148  1.2813
19455TIP3   OH279779   4.254   0.024  12.085 -0.0625 -0.6164  0.2180
19455TIP3    H179780   4.216   0.089  12.026  0.1994 -0.0702  0.6440
19455TIP3    H279781   4.262  -0.055  12.032 -1.7421 -0.7414  0.0883
19456TIP3   OH279782   5.189   0.426   1.419 -0.9751 -0.1479 -0.8404
19456TIP3    H179783   5.159   0.359   1.482 -3.2770 -0.8760 -2.5632
19456TIP3    H279784   5.199   0.378   1.337  1.0589  0.9646 -1.3011
19457TIP3   OH279785   2.053   4.159   2.076 -0.0954 -0.0142 -0.5395
19457TIP3    H179786   2.080   4.229   2.016 -1.3999  0.0846 -1.0436
19457TIP3    H279787   1.984   4.112   2.029  0.3083 -1.2473  0.0595
19458TIP3   OH279788   5.925   3.092   3.109  0.5409 -0.2078  0.1894
19458TIP3    H179789   6.007   3.138   3.124 -0.6177  1.7102  0.9348
19458TIP3    H279790   5.947   3.025   3.043  2.5770  0.5201  0.0593
19459TIP3   OH279791   4.924   4.371  11.537 -0.0902  0.4171  0.0803
19459TIP3    H179792   4.925   4.365  11.633 -0.3587  2.8703  0.3111
19459TIP3    H279793   4.846   4.322  11.511  0.8243 -1.5956  0.9457
19460TIP3   OH279794   1.775   4.153   3.142  0.4058  0.3159  0.5493
19460TIP3    H179795   1.723   4.225   3.108 -0.9115 -0.0900  1.6451
19460TIP3    H279796   1.784   4.093   3.068 -0.8889  0.2830  0.4052
19461TIP3   OH279797   4.768   5.537   2.597 -0.3214 -0.0981 -0.2969
19461TIP3    H179798   4.849   5.585   2.579 -0.1482 -0.4634 -0.5121
19461TIP3    H279799   4.725   5.586   2.666  0.4987 -0.3731  0.4166
19462TIP3   OH279800   3.875   3.327  17.172  0.2036  0.0505  0.0393
19462TIP3    H179801   3.950   3.354  17.225  0.4411  0.3513 -0.4445
19462TIP3    H279802   3.880   3.231  17.172 -0.8286 -0.0641  2.0247
19463TIP3   OH279803   5.083   5.534  15.558  0.3649  0.4707  0.1130
19463TIP3    H179804   5.049   5.444  15.550 -1.7576  1.2738 -0.4653
19463TIP3    H279805   5.162   5.525  15.612  0.5139 -1.8047 -0.3819
19464TIP3   OH279806   4.515   4.768   5.579  0.2458 -0.8662  0.2540
19464TIP3    H179807   4.444   4.831   5.571  0.2405 -0.4443  2.8357
19464TIP3    H279808   4.472   4.682   5.569 -0.6108 -0.6093  1.5286
19465TIP3   OH279809   4.032   2.212  13.762  0.4572 -0.2591 -0.2810
19465TIP3    H179810   3.939   2.230  13.744  0.4169  2.8366  2.1603
19465TIP3    H279811   4.079   2.268  13.701  0.7581 -1.4940 -1.2093
19466TIP3   OH279812   1.801   3.429  16.311  0.8139  0.5464  0.0375
19466TIP3    H179813   1.862   3.494  16.275 -0.3315  3.6728  3.1797
19466TIP3    H279814   1.715   3.457  16.281  0.0416  2.1084  3.2637
19467TIP3   OH279815   1.185   0.834   2.401  0.2502  0.5908 -0.0578
19467TIP3    H179816   1.136   0.762   2.360  0.5934  0.2087  0.2060
19467TIP3    H279817   1.118   0.885   2.447 -0.3028  1.5288 -1.7639
19468TIP3   OH279818   1.337   3.212  15.806  0.4645 -0.0826 -0.1405
19468TIP3    H179819   1.428   3.197  15.778  1.5676  0.6651  2.6993
19468TIP3    H279820   1.289   3.224  15.724  2.6525 -1.7637 -1.8191
19469TIP3   OH279821   0.066   0.337   4.987  0.1763  0.0639 -0.1630
19469TIP3    H179822   0.069   0.263   5.048  1.2402  0.3866  0.2044
19469TIP3    H279823   0.157   0.368   4.983 -0.1688  1.0407 -0.7000
19470TIP3   OH279824   1.605   0.604   5.287  0.1833 -0.3299 -0.0221
19470TIP3    H179825   1.692   0.645   5.278  0.4133 -1.0032 -1.0950
19470TIP3    H279826   1.543   0.676   5.273  0.5707  0.0745  0.3263
19471TIP3   OH279827   2.032   0.373  16.302  0.0825  0.0359 -0.4507
19471TIP3    H179828   1.997   0.452  16.260  1.7795  0.8638 -0.4030
19471TIP3    H279829   2.068   0.404  16.385  0.6976 -0.7954 -0.3897
19472TIP3   OH279830   1.754   2.564  12.306 -0.4746  0.8947  0.8515
19472TIP3    H179831   1.672   2.602  12.335 -0.3514  0.5971  1.6041
19472TIP3    H279832   1.817   2.585  12.375  0.0746  1.0798  0.3096
19473TIP3   OH279833   3.062   0.639  11.369 -0.0414 -0.4879 -0.4877
19473TIP3    H179834   3.139   0.595  11.403 -0.8289 -1.0104  0.6733
19473TIP3    H279835   3.081   0.652  11.276  0.9486 -1.6547 -0.4676
19474TIP3   OH279836   0.589   2.894  11.121  0.2162 -0.0988  0.0650
19474TIP3    H179837   0.533   2.954  11.071 -0.8432 -0.9680  0.1646
19474TIP3    H279838   0.578   2.921  11.212  0.1245 -0.1346  0.0649
19475TIP3   OH279839   5.824   0.338  11.072 -0.2488 -0.0858  0.7624
19475TIP3    H179840   5.823   0.277  11.146 -0.0496  0.7414  1.4662
19475TIP3    H279841   5.857   0.420  11.109 -1.3372  0.7073  0.0499
19476TIP3   OH279842   1.331   1.953   6.724 -0.2743  0.0642  0.2369
19476TIP3    H179843   1.335   1.910   6.809 -0.0203 -0.0953  0.1445
19476TIP3    H279844   1.368   1.889   6.663  2.0625  1.1935  0.3913
19477TIP3   OH279845   1.854   4.413  15.070 -0.0852 -0.0841 -0.0358
19477TIP3    H179846   1.833   4.346  15.135  1.1730  1.3754  2.0022
19477TIP3    H279847   1.775   4.467  15.064 -0.3344 -0.4424  0.0054
19478TIP3   OH279848   1.928   5.611   2.721 -0.2644  0.1264 -0.0070
19478TIP3    H179849   1.854   5.603   2.781 -0.3766 -0.3853 -0.2046
19478TIP3    H279850   1.900   5.677   2.658 -0.0982  0.7560  0.5671
19479TIP3   OH279851   0.591   3.896  14.574  1.0801  0.0252 -0.2571
19479TIP3    H179852   0.636   3.843  14.508  0.8411 -0.2042 -0.2354
19479TIP3    H279853   0.611   3.853  14.657  1.0020  0.0509 -0.2247
19480TIP3   OH279854   6.050   3.594  12.473  0.9246  0.0350  0.1148
19480TIP3    H179855   6.142   3.569  12.466  1.2731  1.0170  0.8691
19480TIP3    H279856   6.025   3.570  12.563 -0.0044 -1.5691 -0.5295
19481TIP3   OH279857   4.634   3.671  16.481  0.1222  0.0325  0.4955
19481TIP3    H179858   4.608   3.592  16.434 -2.0083  0.9576 -0.0181
19481TIP3    H279859   4.629   3.647  16.574 -1.4344 -0.2118  0.3760
19482TIP3   OH279860   4.869   0.231  14.161 -0.5532 -0.1298 -0.3341
19482TIP3    H179861   4.860   0.244  14.066  0.1959  0.8749 -0.2811
19482TIP3    H279862   4.934   0.162  14.170 -0.0460  0.3178 -0.5449
19483TIP3   OH279863   1.018   3.892  11.730  0.3981  0.2658  0.0846
19483TIP3    H179864   1.074   3.886  11.807 -0.7331 -0.1091  0.8860
19483TIP3    H279865   1.003   3.986  11.719 -1.0262  0.2478  1.5150
19484TIP3   OH279866   5.967   3.305  11.451  0.3669 -0.0372 -0.0531
19484TIP3    H179867   5.956   3.400  11.443 -1.1614 -0.2272 -0.5556
19484TIP3    H279868   5.879   3.270  11.436  1.3205 -1.6856 -2.2888
19485TIP3   OH279869   2.169   6.326   2.076  0.2748  0.1179  0.1155
19485TIP3    H179870   2.091   6.302   2.127  0.3021 -1.2271 -0.4400
19485TIP3    H279871   2.165   6.421   2.068 -1.0207  0.1087  0.5569
19486TIP3   OH279872   0.254   0.455  14.055  0.9461  0.4926  0.2500
19486TIP3    H179873   0.277   0.496  14.139 -0.2281 -1.2084  1.4486
19486TIP3    H279874   0.320   0.387  14.042  0.5841  0.1380  0.2575
19487TIP3   OH279875   4.931   2.016   2.969  0.0902  0.4526 -0.1050
19487TIP3    H179876   4.884   2.099   2.976 -0.2063  0.3552 -0.9047
19487TIP3    H279877   4.911   1.983   2.882  0.4406 -0.3240  0.0916
19488TIP3   OH279878   2.504   1.570   0.553  0.1754  0.1339  0.1219
19488TIP3    H179879   2.571   1.560   0.620  1.1085  0.0397 -0.7902
19488TIP3    H279880   2.501   1.664   0.536 -1.3010  0.3822  1.4789
19489TIP3   OH279881   3.708   2.568  15.632 -0.0228 -0.0528  0.1834
19489TIP3    H179882   3.637   2.511  15.664 -0.2610  0.1419  0.0068
19489TIP3    H279883   3.777   2.507  15.605 -1.6053 -0.5122 -3.2984
19490TIP3   OH279884   5.593   2.272   1.869  0.5168 -0.0789  0.2770
19490TIP3    H179885   5.499   2.293   1.875  0.6519  0.5691  0.1735
19490TIP3    H279886   5.632   2.348   1.826  0.9652 -0.7030 -0.4470
19491TIP3   OH279887   1.796   2.763   4.702 -0.0198 -0.1848 -0.0255
19491TIP3    H179888   1.875   2.739   4.749 -0.2642  0.5325  0.7822
19491TIP3    H279889   1.730   2.699   4.731  0.5723 -1.6729 -1.7676
19492TIP3   OH279890   4.690   6.739  15.044  0.3558  0.3998 -0.6652
19492TIP3    H179891   4.602   6.702  15.055  0.8428 -0.4862  0.4074
19492TIP3    H279892   4.675   6.833  15.033 -0.6308  0.6953  2.2710
19493TIP3   OH279893   2.935   0.376  11.806  0.3528  0.6535 -0.5826
19493TIP3    H179894   2.965   0.419  11.885  0.8564  0.9946 -0.9561
19493TIP3    H279895   2.841   0.363  11.819 -0.0165  2.7470 -0.8683
19494TIP3   OH279896   3.736   5.612  14.142 -0.4418 -0.4100  0.1850
19494TIP3    H179897   3.677   5.620  14.067  0.8934  0.3560 -0.8317
19494TIP3    H279898   3.811   5.562  14.108  0.0935 -0.2290  1.0674
19495TIP3   OH279899   4.730   6.094  11.921  0.7792  0.2632  0.2222
19495TIP3    H179900   4.650   6.140  11.894  1.0727  0.8563  0.3439
19495TIP3    H279901   4.724   6.090  12.016  0.4182 -0.5873  0.1748
19496TIP3   OH279902   2.359   1.793   0.327  0.1273 -0.3033 -0.1764
19496TIP3    H179903   2.347   1.881   0.293 -1.0082 -0.1727  0.5211
19496TIP3    H279904   2.401   1.745   0.255  0.0717  0.6058 -0.8314
19497TIP3   OH279905   6.123   0.533  16.061  0.1260  0.3533 -0.1576
19497TIP3    H179906   6.131   0.438  16.064 -0.4345  0.2154 -1.8969
19497TIP3    H279907   6.213   0.565  16.064  0.3317 -0.2361  0.1665
19498TIP3   OH279908   3.494   4.752   2.868  0.1587  0.3794  0.4478
19498TIP3    H179909   3.502   4.755   2.963 -0.4196 -1.7361  0.6246
19498TIP3    H279910   3.417   4.698   2.852  0.5972  0.1809 -1.2224
19499TIP3   OH279911   5.438   0.599  15.024 -0.1188  0.2601 -0.1226
19499TIP3    H179912   5.398   0.606  14.937  1.3858 -1.1312 -0.9701
19499TIP3    H279913   5.409   0.678  15.070 -1.0646  0.9501 -1.8281
19500TIP3   OH279914   5.361   4.600  12.254  0.1636 -0.4911 -0.2440
19500TIP3    H179915   5.442   4.615  12.303  0.7915 -1.9760 -0.7764
19500TIP3    H279916   5.328   4.516  12.288 -0.4218 -0.5783 -1.0007
19501TIP3   OH279917   0.190   0.323   1.854 -0.1027  0.3269  0.4658
19501TIP3    H179918   0.272   0.293   1.815 -1.9994 -0.1261 -3.6323
19501TIP3    H279919   0.198   0.419   1.857  0.6631  0.2687  0.4603
19502TIP3   OH279920   1.281   0.705  14.892  0.1196 -0.0404  0.5358
19502TIP3    H179921   1.208   0.767  14.891  1.2096  1.2827 -0.3945
19502TIP3    H279922   1.281   0.667  14.804  0.6008  0.0278  0.5032
19503TIP3   OH279923   1.812   5.185   3.719  0.8114  0.2334 -0.9700
19503TIP3    H179924   1.854   5.106   3.685 -1.6846 -0.9209 -1.6235
19503TIP3    H279925   1.836   5.254   3.658 -0.4903 -1.0016 -3.0233
19504TIP3   OH279926   5.855   6.478   0.178  0.4774 -0.3356  0.9054
19504TIP3    H179927   5.774   6.464   0.129 -0.4358  0.2654  2.2092
19504TIP3    H279928   5.924   6.477   0.110 -0.7063  0.1890 -0.3490
19505TIP3   OH279929   4.644   1.351   2.225 -0.3041 -0.6621  0.4577
19505TIP3    H179930   4.602   1.298   2.158 -0.3878  2.0902 -1.8760
19505TIP3    H279931   4.583   1.348   2.299 -1.6600 -1.5155 -0.6412
19506TIP3   OH279932   2.749   4.486   2.046  0.4515  0.0458  0.4758
19506TIP3    H179933   2.669   4.488   1.993  1.5707  0.7291 -1.2656
19506TIP3    H279934   2.731   4.419   2.113 -0.3716 -2.2801 -1.8913
19507TIP3   OH279935   4.305   0.556   0.607 -0.4232  0.6874 -0.4243
19507TIP3    H179936   4.237   0.595   0.661  0.2178  2.4348 -0.8252
19507TIP3    H279937   4.280   0.463   0.600 -1.3342  0.7462  1.5551
19508TIP3   OH279938   2.642   1.625   6.316  0.3493  0.1603 -0.1460
19508TIP3    H179939   2.693   1.682   6.373 -0.7295  0.6754  0.3235
19508TIP3    H279940   2.594   1.568   6.376  0.6418 -0.5710 -0.5905
19509TIP3   OH279941   5.396   1.976  14.644  0.1354  0.3120 -0.5838
19509TIP3    H179942   5.443   2.003  14.565  1.8979  2.0210  0.9389
19509TIP3    H279943   5.460   1.929  14.696 -1.1405 -1.2264 -0.3370
19510TIP3   OH279944   1.098   6.250   1.242  0.4708  0.5287  0.6522
19510TIP3    H179945   1.010   6.287   1.239  0.4249  0.3373 -1.0505
19510TIP3    H279946   1.155   6.323   1.220  0.5387  0.0919 -0.6652
19511TIP3   OH279947   4.111   6.042  11.885 -0.3047  0.1074 -0.2058
19511TIP3    H179948   4.140   6.117  11.833  0.7109 -0.7533 -0.9175
19511TIP3    H279949   4.192   5.999  11.912 -0.8425  0.0670  1.4186
19512TIP3   OH279950   3.165   6.234   4.834 -0.1603  0.0156 -0.8071
19512TIP3    H179951   3.243   6.237   4.779  0.7368 -1.3663  0.3074
19512TIP3    H279952   3.121   6.153   4.810 -1.1171  0.6447 -1.2269
19513TIP3   OH279953   0.063   4.116  14.647 -0.1253 -0.5661 -0.8350
19513TIP3    H179954   0.047   4.167  14.726  1.8673 -1.1061 -0.0174
19513TIP3    H279955   0.149   4.144  14.617 -0.4370 -1.0694 -2.2971
19514TIP3   OH279956   1.425   4.033  13.810 -0.0619  0.1307  0.0842
19514TIP3    H179957   1.394   4.119  13.782 -0.6988  0.4579  1.7162
19514TIP3    H279958   1.346   3.979  13.814  0.1674 -0.1982  0.2174
19515TIP3   OH279959   4.599   1.789  11.503 -0.4331 -0.4011  0.2068
19515TIP3    H179960   4.636   1.784  11.415 -1.1740 -1.7078 -0.0629
19515TIP3    H279961   4.665   1.835  11.555  0.1421  0.1224 -0.9605
19516TIP3   OH279962   1.524   4.348  14.034 -0.0351  0.6361  1.0942
19516TIP3    H179963   1.429   4.343  14.043  0.0137 -0.3321  1.2210
19516TIP3    H279964   1.555   4.264  14.069  0.7346  0.2025 -0.5194
19517TIP3   OH279965   5.914   2.555   4.989  0.3635  0.4713  0.3264
19517TIP3    H179966   5.934   2.547   4.895 -0.2320 -0.1090  0.2424
19517TIP3    H279967   5.844   2.491   5.004  2.1982 -1.3242  1.7016
19518TIP3   OH279968   5.232   5.897  15.935 -0.1045  0.2292  0.0090
19518TIP3    H179969   5.319   5.917  15.971  0.2541 -0.5400 -0.4068
19518TIP3    H279970   5.172   5.916  16.007  0.5715 -0.9662  0.9280
19519TIP3   OH279971   5.782   1.983  11.365  0.1376  0.0260 -0.2263
19519TIP3    H179972   5.874   2.007  11.369  0.4295 -0.7847 -1.5290
19519TIP3    H279973   5.776   1.921  11.293 -1.4306  0.0423 -0.1536
19520TIP3   OH279974   3.044   4.516  16.554 -0.4441  0.0796 -0.3484
19520TIP3    H179975   3.035   4.611  16.553  0.6430  0.2335 -2.9718
19520TIP3    H279976   2.982   4.485  16.488 -1.0826 -1.0897  0.7589
19521TIP3   OH279977   5.224   1.779  16.887  0.0952 -0.0202  0.1717
19521TIP3    H179978   5.207   1.690  16.858  0.7284  0.0852 -0.5328
19521TIP3    H279979   5.140   1.824  16.874  0.6547  0.3438 -2.7302
19522TIP3   OH279980   4.317   0.358   4.480 -0.1312 -0.5395 -0.8017
19522TIP3    H179981   4.244   0.307   4.446 -0.5909  0.9717 -2.2362
19522TIP3    H279982   4.366   0.384   4.402  0.6081  0.4008 -0.0477
19523TIP3   OH279983   5.758   0.718   3.696 -0.0099  0.0452 -0.8479
19523TIP3    H179984   5.736   0.625   3.691 -0.9594  0.2048 -0.0310
19523TIP3    H279985   5.772   0.745   3.605 -0.0079 -0.8289 -1.1130
19524TIP3   OH279986   1.845   4.247  15.335  0.0146  0.0269 -0.6028
19524TIP3    H179987   1.772   4.193  15.307 -0.9054 -0.3751  2.2635
19524TIP3    H279988   1.919   4.187  15.339 -0.4086 -0.4658  0.1047
19525TIP3   OH279989   3.056   2.905   4.529  0.1547  0.1178  0.1021
19525TIP3    H179990   2.999   2.916   4.453  0.5633 -0.2307 -0.2545
19525TIP3    H279991   3.138   2.947   4.504  0.0974  0.5261  0.5760
19526TIP3   OH279992   6.173   0.374  13.592 -0.2897 -0.4603 -0.2003
19526TIP3    H179993   6.082   0.391  13.566 -0.7036 -1.0211  0.8092
19526TIP3    H279994   6.214   0.461  13.593 -1.8292  0.3989  2.9202
19527TIP3   OH279995   4.223   5.751   2.742 -0.1021  0.2160  0.0360
19527TIP3    H179996   4.290   5.817   2.756  0.7058 -0.8625  1.4873
19527TIP3    H279997   4.140   5.797   2.755  0.4374  1.0242  0.6798
19528TIP3   OH279998   3.502   2.122   4.565 -0.0111 -0.7677  0.7578
19528TIP3    H179999   3.449   2.096   4.640  0.2835 -0.7265  0.9805
19528TIP3    H280000   3.503   2.218   4.567 -1.4299 -0.7023 -0.2942
19529TIP3   OH280001   2.770   6.505  13.166  0.2159  0.5104  0.2040
19529TIP3    H180002   2.857   6.531  13.133 -0.0429  1.3514  0.1645
19529TIP3    H280003   2.710   6.569  13.128 -0.4843 -0.3133 -0.1013
19530TIP3   OH280004   6.284   4.170   0.055 -0.8230  0.5547  0.5347
19530TIP3    H180005   6.216   4.208   0.111  0.5788 -0.5944  3.2441
19530TIP3    H280006   6.348   4.241   0.044 -1.7617  1.2267 -0.9159
19531TIP3   OH280007   4.332   2.881   1.244  0.2702 -0.2800  0.1957
19531TIP3    H180008   4.353   2.787   1.241  1.3333 -0.0532 -1.8698
19531TIP3    H280009   4.337   2.904   1.336 -2.4109 -2.7168  1.0806
19532TIP3   OH280010   3.019   1.562  15.016 -0.3792 -0.5515  0.0182
19532TIP3    H180011   3.024   1.626  14.945 -1.2867 -2.0384 -1.4524
19532TIP3    H280012   3.106   1.565  15.056 -0.2521  1.2421 -0.2992
19533TIP3   OH280013   5.397   5.850  16.270  0.3114 -0.7476  0.7120
19533TIP3    H180014   5.439   5.872  16.353  0.6397 -2.1705  0.9522
19533TIP3    H280015   5.468   5.851  16.206 -0.2842  2.4993 -0.0394
19534TIP3   OH280016   4.313   2.463  16.636  0.1206  0.0902 -0.3466
19534TIP3    H180017   4.243   2.517  16.673  0.2013 -0.5212  0.7305
19534TIP3    H280018   4.283   2.442  16.548 -2.0644 -1.8491  0.7508
19535TIP3   OH280019   1.531   1.772   0.490  0.4440  0.0237 -0.0002
19535TIP3    H180020   1.506   1.790   0.581 -1.1554 -0.1605 -0.3605
19535TIP3    H280021   1.462   1.814   0.438  1.7599  0.8033 -1.1657
19536TIP3   OH280022   2.270   4.395  11.518 -0.2347  0.2101 -0.1782
19536TIP3    H180023   2.299   4.367  11.605 -0.1624 -0.4920 -0.4206
19536TIP3    H280024   2.193   4.341  11.499 -0.2683  0.3784 -0.5413
19537TIP3   OH280025   2.201   3.815   2.501 -0.4390 -0.2983  0.4688
19537TIP3    H180026   2.175   3.759   2.428  1.6976 -1.7353  0.7234
19537TIP3    H280027   2.217   3.754   2.573  1.5240  0.6275  0.8932
19538TIP3   OH280028   0.561   0.849  17.217  0.1006 -0.3974 -0.2216
19538TIP3    H180029   0.576   0.756  17.201 -2.4747 -0.6428 -1.8396
19538TIP3    H280030   0.543   0.854  17.311 -1.3979 -1.8796 -0.3707
19539TIP3   OH280031   0.890   3.073  14.727 -0.8812 -0.5320 -0.2852
19539TIP3    H180032   0.849   2.997  14.768 -1.9345  0.5290  0.7278
19539TIP3    H280033   0.821   3.111  14.672 -1.2250  1.0375  1.1187
19540TIP3   OH280034   6.374   0.819  12.796  0.5074  0.2106  0.1281
19540TIP3    H180035   6.307   0.885  12.811  0.9964  1.0447 -1.2036
19540TIP3    H280036   6.450   0.849  12.846  0.4389  0.1734  0.2544
19541TIP3   OH280037   0.109   4.591   3.586 -0.1256 -0.2193 -0.0160
19541TIP3    H180038   0.149   4.535   3.653 -1.5602  0.5305  1.5374
19541TIP3    H280039   0.047   4.534   3.542  0.4891 -0.5955 -0.4089
19542TIP3   OH280040   2.525   2.959   5.431 -0.6543 -0.0090 -0.5500
19542TIP3    H180041   2.498   2.999   5.349  1.6303  0.6900 -1.0159
19542TIP3    H280042   2.480   3.010   5.498 -2.7194 -0.7254 -1.2923
19543TIP3   OH280043   5.783   3.174  14.602 -0.3537 -0.1504  0.0151
19543TIP3    H180044   5.719   3.146  14.668 -1.4099  1.5525 -0.2174
19543TIP3    H280045   5.730   3.192  14.524  0.8450 -1.9040 -1.2931
19544TIP3   OH280046   0.812   5.783  14.564  0.1345 -0.4801 -0.3387
19544TIP3    H180047   0.753   5.855  14.544 -1.0013 -0.0481  3.7410
19544TIP3    H280048   0.867   5.815  14.635  1.4105 -2.7738 -0.1743
19545TIP3   OH280049   2.709   5.312  13.221 -0.0934 -0.0529 -0.0995
19545TIP3    H180050   2.793   5.264  13.221 -0.4334 -0.7546  1.7715
19545TIP3    H280051   2.646   5.249  13.187  0.0514  0.3348 -1.1115
19546TIP3   OH280052   3.668   2.590  11.324  0.1993 -0.2533  0.4030
19546TIP3    H180053   3.637   2.507  11.288  0.0728  0.4936 -1.3562
19546TIP3    H280054   3.597   2.620  11.380 -0.2547 -0.7781  0.1262
19547TIP3   OH280055   4.967   1.126  14.720  0.9806 -0.1332 -0.1405
19547TIP3    H180056   4.891   1.161  14.673  0.2707 -0.0656  1.0295
19547TIP3    H280057   5.015   1.203  14.750  1.1813 -0.1777 -0.3424
19548TIP3   OH280058   2.624   1.769   2.380  0.7029 -0.2488  0.4609
19548TIP3    H180059   2.658   1.770   2.469  1.1983 -1.6080  0.3093
19548TIP3    H280060   2.581   1.684   2.372  0.9400 -0.2762 -0.6950
19549TIP3   OH280061   5.088   2.404   1.010 -0.0065  0.2820  0.5162
19549TIP3    H180062   5.074   2.341   1.080 -0.7453  1.5582  1.5664
19549TIP3    H280063   5.069   2.355   0.930 -2.0956 -0.4611  1.3789
19550TIP3   OH280064   3.426   4.776  12.809  0.7123 -0.1330 -0.0799
19550TIP3    H180065   3.366   4.784  12.882 -0.1640 -0.4548 -0.7443
19550TIP3    H280066   3.459   4.865  12.794  0.7416 -0.0333  0.5591
19551TIP3   OH280067   0.021   5.010   1.554 -0.5833  0.1441  0.8837
19551TIP3    H180068   0.096   4.960   1.586  1.1699  1.7434 -0.4631
19551TIP3    H280069  -0.054   4.974   1.601  0.8362 -2.3676  1.3778
19552TIP3   OH280070   2.787   2.502   0.415  0.3228  0.2718  0.0676
19552TIP3    H180071   2.718   2.473   0.474 -1.3505 -0.1199 -1.9597
19552TIP3    H280072   2.831   2.422   0.388  1.4572  0.4979  1.1558
19553TIP3   OH280073   5.769   6.174  13.130 -0.8937  0.0572  0.1969
19553TIP3    H180074   5.773   6.203  13.038  0.0566  2.4949  0.9175
19553TIP3    H280075   5.860   6.158  13.153 -0.7695  2.0801  1.3887
19554TIP3   OH280076   6.132   5.359   1.709 -0.4521 -0.1186 -0.2459
19554TIP3    H180077   6.149   5.396   1.622 -0.1903  0.7727  0.1762
19554TIP3    H280078   6.044   5.390   1.730  0.1213  1.0605  0.4988
19555TIP3   OH280079   6.546   5.218   3.917 -0.0872  0.0091  0.7836
19555TIP3    H180080   6.495   5.145   3.882  1.5633 -0.1816 -1.4508
19555TIP3    H280081   6.589   5.182   3.994  0.9982 -1.5766 -0.5014
19556TIP3   OH280082   2.783   3.217   3.678 -0.0081  0.4588 -0.5866
19556TIP3    H180083   2.841   3.199   3.604 -1.0326  2.3958 -1.9283
19556TIP3    H280084   2.822   3.293   3.721 -0.5877  0.6675 -0.4237
19557TIP3   OH280085   2.021   6.633   1.890  0.1756 -0.2062 -0.2021
19557TIP3    H180086   2.062   6.716   1.911 -0.5146  0.1198 -0.0944
19557TIP3    H280087   1.965   6.614   1.966 -1.7874  0.6292 -1.3600
19558TIP3   OH280088   4.250   5.112  13.606 -0.0940  0.3279  0.0084
19558TIP3    H180089   4.300   5.135  13.528 -1.3476  0.1184 -0.8820
19558TIP3    H280090   4.292   5.032  13.639  1.0993  1.0056  0.1838
19559TIP3   OH280091   1.124   2.288   3.317  0.3017  0.4757  0.4359
19559TIP3    H180092   1.048   2.334   3.351 -0.4473 -0.4122  0.0004
19559TIP3    H280093   1.121   2.303   3.222 -0.1770 -0.7481  0.2355
19560TIP3   OH280094   4.192   6.683  13.722  0.3358 -0.0081 -0.2334
19560TIP3    H180095   4.101   6.652  13.718 -0.7603  2.6644  1.3293
19560TIP3    H280096   4.222   6.681  13.631 -1.0705 -1.4680 -0.7166
19561TIP3   OH280097   1.639   4.901  11.653  0.4687 -0.1817  0.4170
19561TIP3    H180098   1.564   4.939  11.607  0.6201  1.0611  1.1378
19561TIP3    H280099   1.624   4.807  11.652 -0.5506 -0.0173 -0.3853
19562TIP3   OH280100   0.565   3.391   4.583 -0.3494  0.1484  0.2184
19562TIP3    H180101   0.648   3.381   4.537  0.1332 -0.2650  1.1426
19562TIP3    H280102   0.538   3.481   4.564 -0.0813  0.0470 -0.7062
19563TIP3   OH280103   3.706   0.784   5.496 -0.6222  0.9071 -0.6720
19563TIP3    H180104   3.675   0.722   5.562 -1.8780  1.1403 -0.9997
19563TIP3    H280105   3.795   0.757   5.477 -0.5351  0.3104  0.4897
19564TIP3   OH280106   4.004   0.586   3.067  0.3015  0.4101 -0.4168
19564TIP3    H180107   4.036   0.620   3.151  1.0004 -1.3590  0.0714
19564TIP3    H280108   4.041   0.645   3.002  2.1636  0.1511  0.3534
19565TIP3   OH280109   2.287   0.789   0.407  0.3224 -0.2165  0.4316
19565TIP3    H180110   2.375   0.826   0.400  0.1568  0.2237  0.6185
19565TIP3    H280111   2.229   0.858   0.376 -0.1563  0.5246  2.7432
19566TIP3   OH280112   4.901   4.911  15.803 -0.2118  0.5721  0.0964
19566TIP3    H180113   4.984   4.863  15.802  0.1543  1.1660  0.6530
19566TIP3    H280114   4.905   4.962  15.884 -0.0025  2.5400 -1.0890
19567TIP3   OH280115   2.132   6.233   0.766  0.1236 -0.0935  0.3682
19567TIP3    H180116   2.163   6.145   0.747  4.1660  1.0878  0.6500
19567TIP3    H280117   2.211   6.285   0.779 -1.9685  3.9120 -0.9547
19568TIP3   OH280118   1.911   3.792   2.528  0.6042 -0.5456  0.2921
19568TIP3    H180119   1.899   3.822   2.438 -2.1834  0.9773  1.0769
19568TIP3    H280120   1.996   3.828   2.553  0.7022  0.3894 -1.2176
19569TIP3   OH280121   3.735   0.328  11.859 -0.0848  0.2654  0.3293
19569TIP3    H180122   3.774   0.413  11.838 -1.8872  0.6376 -1.9419
19569TIP3    H280123   3.650   0.350  11.897 -1.4667 -0.3810 -2.1193
19570TIP3   OH280124   6.699   4.268   3.797 -0.0736 -0.5463  0.7710
19570TIP3    H180125   6.698   4.362   3.779  1.5460 -0.7208 -0.4975
19570TIP3    H280126   6.768   4.256   3.862  0.6618 -0.9770 -0.0640
19571TIP3   OH280127   4.718   2.486  15.566 -0.1438  0.2763 -0.0862
19571TIP3    H180128   4.670   2.485  15.483 -0.1997  1.1710 -0.0750
19571TIP3    H280129   4.785   2.553  15.554  0.8467 -0.6594  0.0535
19572TIP3   OH280130   5.879   3.927  16.318 -0.2294  0.0879  0.8029
19572TIP3    H180131   5.953   3.954  16.265  0.7251  1.7372  2.8094
19572TIP3    H280132   5.805   3.975  16.281 -0.1184 -0.7183 -0.5319
19573TIP3   OH280133   5.909   3.711   3.990 -0.1656  0.2253  0.2012
19573TIP3    H180134   5.899   3.645   3.921 -0.9768 -1.0730  1.4892
19573TIP3    H280135   5.920   3.793   3.943 -0.9125 -0.5739 -1.4773
19574TIP3   OH280136   6.507   3.311  12.520  0.5195 -0.1980 -0.0647
19574TIP3    H180137   6.479   3.228  12.481 -5.7279  1.6033 -0.4887
19574TIP3    H280138   6.499   3.296  12.615 -1.9147  0.1064 -0.1646
19575TIP3   OH280139   6.525   0.651   3.684 -0.0870  0.4443 -0.1157
19575TIP3    H180140   6.616   0.653   3.712  0.0307  0.5693 -0.4972
19575TIP3    H280141   6.521   0.579   3.620  0.1822  1.6376 -1.5410
19576TIP3   OH280142   3.612   5.932  14.163 -0.3535 -0.1908  0.1781
19576TIP3    H180143   3.627   5.928  14.069 -2.7471 -0.9944 -0.2354
19576TIP3    H280144   3.698   5.953  14.200  0.8071 -0.5994 -2.0988
19577TIP3   OH280145   6.723   5.608   0.538  0.5508  0.4654 -0.6498
19577TIP3    H180146   6.777   5.551   0.593  1.8533  1.3115 -1.0245
19577TIP3    H280147   6.637   5.607   0.580  1.1435 -0.0176  0.6015
19578TIP3   OH280148   1.838   1.943  14.200  0.3516 -0.0247 -0.0075
19578TIP3    H180149   1.804   1.908  14.117  0.6087 -0.0394 -0.1062
19578TIP3    H280150   1.929   1.916  14.202  1.0103  1.9142 -0.8306
19579TIP3   OH280151   0.320   1.373   5.755 -0.1150  0.5908 -0.0060
19579TIP3    H180152   0.231   1.408   5.747  0.1171  1.1230 -0.3886
19579TIP3    H280153   0.331   1.356   5.848 -0.7369  0.1963  0.0012
19580TIP3   OH280154   4.945   2.322   5.174 -0.3987 -0.1846  0.2658
19580TIP3    H180155   4.937   2.274   5.257  0.9121 -1.3219 -0.2076
19580TIP3    H280156   4.872   2.292   5.121 -0.6197 -0.2795  0.6229
19581TIP3   OH280157   0.191   4.043   1.082  0.0563  0.0745  0.1528
19581TIP3    H180158   0.268   4.033   1.027  0.6609  1.5383  0.6951
19581TIP3    H280159   0.189   4.136   1.105 -1.9995  0.1332 -0.0348
19582TIP3   OH280160   4.869   6.273   6.360  0.9022  0.0662  0.1499
19582TIP3    H180161   4.905   6.319   6.436  2.0966 -0.4187 -0.1039
19582TIP3    H280162   4.789   6.233   6.392 -0.3882  2.5757  0.3123
19583TIP3   OH280163   3.970   5.879   2.672  0.3253 -0.2552 -1.0643
19583TIP3    H180164   3.925   5.961   2.655 -1.2977 -0.7200  0.6263
19583TIP3    H280165   3.981   5.839   2.586 -0.5431  0.8887 -1.7351
19584TIP3   OH280166   3.501   0.303   2.852 -0.3281  0.3806  0.4957
19584TIP3    H180167   3.586   0.340   2.831 -0.6771  0.2221 -1.3917
19584TIP3    H280168   3.441   0.345   2.790 -1.1483 -1.4924 -0.0435
19585TIP3   OH280169   4.187   5.536   2.379 -0.0692 -0.2921 -0.5068
19585TIP3    H180170   4.158   5.480   2.451 -0.5093  0.0490 -0.4187
19585TIP3    H280171   4.107   5.567   2.338  0.1688  0.2815 -0.5490
19586TIP3   OH280172   1.535   6.524   1.867  0.1757  0.4535 -0.5390
19586TIP3    H180173   1.575   6.437   1.866  0.1127  0.4138  0.1059
19586TIP3    H280174   1.571   6.568   1.790  0.1612 -0.1626 -0.9032
19587TIP3   OH280175   5.695   4.062  16.935 -0.6498  0.3848 -0.6290
19587TIP3    H180176   5.635   4.137  16.937  1.3828  2.1002  2.2584
19587TIP3    H280177   5.661   4.001  17.000 -0.5116  0.2647 -0.6661
19588TIP3   OH280178   0.081   6.006  13.402  0.1865  0.4565 -0.0377
19588TIP3    H180179   0.113   6.096  13.407 -0.7419  0.8686 -1.1316
19588TIP3    H280180   0.089   5.983  13.310 -1.1256  0.0069 -0.0509
19589TIP3   OH280181   1.297   6.191   1.462 -0.3691 -0.0368  0.6508
19589TIP3    H180182   1.323   6.108   1.503  2.9266  0.8231  0.5385
19589TIP3    H280183   1.270   6.166   1.374  0.6471 -1.0284  0.5889
19590TIP3   OH280184   3.733   0.222  12.203  0.0929  0.6179 -0.2731
19590TIP3    H180185   3.679   0.181  12.136 -0.8533 -1.3760  1.5929
19590TIP3    H280186   3.692   0.308  12.218 -1.6858 -0.2340  0.0172
19591TIP3   OH280187   0.765   2.202  15.313  0.1310 -0.4260 -0.5086
19591TIP3    H180188   0.779   2.221  15.406 -0.3871 -0.1396 -0.4873
19591TIP3    H280189   0.819   2.124  15.296 -1.1625 -1.5810  0.4579
19592TIP3   OH280190   3.549   1.669   0.300 -0.2048 -0.2738 -0.0296
19592TIP3    H180191   3.548   1.758   0.267 -0.5171 -0.8603 -1.7099
19592TIP3    H280192   3.591   1.618   0.231  1.6616 -1.1714  1.6780
19593TIP3   OH280193   1.696   0.506   6.256 -0.0120 -0.2651 -0.5979
19593TIP3    H180194   1.685   0.511   6.161 -1.3959  0.2261 -0.4372
19593TIP3    H280195   1.619   0.459   6.287 -0.7851  1.5743  0.4754
19594TIP3   OH280196   2.832   3.730   2.527  1.1911 -0.3412 -0.5999
19594TIP3    H180197   2.885   3.662   2.569  0.5836 -0.1488  0.5166
19594TIP3    H280198   2.797   3.688   2.448 -0.4827 -1.9121  0.8685
19595TIP3   OH280199   2.881   6.733  13.672  0.2798  0.0110 -0.0945
19595TIP3    H180200   2.863   6.720  13.579 -0.0961  0.8321 -0.1522
19595TIP3    H280201   2.940   6.808  13.675  1.7069 -1.0841  0.2451
19596TIP3   OH280202   3.917   2.817  12.300 -0.1415  0.3924 -0.0542
19596TIP3    H180203   3.886   2.727  12.312 -0.5716  0.5418 -0.0096
19596TIP3    H280204   3.976   2.832  12.374 -2.2044  1.0590  1.5831
19597TIP3   OH280205   0.030   1.441   1.097 -0.5177 -0.2529 -0.1573
19597TIP3    H180206   0.106   1.496   1.115 -0.9473  0.1082  0.6189
19597TIP3    H280207  -0.013   1.431   1.182 -1.2240 -0.6189 -0.5487
19598TIP3   OH280208   0.559   2.333   5.090  0.2196  0.0362 -0.0200
19598TIP3    H180209   0.468   2.356   5.109  0.5740  2.7960 -1.1554
19598TIP3    H280210   0.576   2.254   5.142 -3.1066 -1.2351 -0.6001
19599TIP3   OH280211   0.137   1.372   2.384 -0.3671 -0.0713 -0.0744
19599TIP3    H180212   0.094   1.360   2.299 -0.4066 -1.5697  0.1427
19599TIP3    H280213   0.097   1.452   2.419  0.8442  1.5630 -2.1650
19600TIP3   OH280214   5.458   4.508   1.211  0.5753  0.3961  0.2666
19600TIP3    H180215   5.463   4.588   1.158  0.1735 -0.2701 -0.8064
19600TIP3    H280216   5.405   4.448   1.159  0.5016 -0.4257  1.2597
19601TIP3   OH280217   5.207   4.888  15.035 -0.3708 -0.1026 -0.7147
19601TIP3    H180218   5.183   4.806  14.992  0.0089 -0.9494  0.6276
19601TIP3    H280219   5.138   4.903  15.099  0.1055  0.0710 -0.2348
19602TIP3   OH280220   0.090   6.479   0.676  0.4039 -0.5032 -0.0850
19602TIP3    H180221   0.157   6.540   0.645  1.5751 -1.6678  0.1195
19602TIP3    H280222   0.120   6.452   0.762 -0.7164 -0.4879  0.3273
19603TIP3   OH280223   5.827   1.305   5.087  0.2865  0.5324  0.2274
19603TIP3    H180224   5.920   1.295   5.065  0.5890 -0.1059  1.6976
19603TIP3    H280225   5.816   1.398   5.104  0.1948  0.9438 -1.7562
19604TIP3   OH280226   4.788   2.606  14.678  0.0457  0.1907 -0.0595
19604TIP3    H180227   4.721   2.591  14.746  1.0306 -1.5543  0.6077
19604TIP3    H280228   4.750   2.569  14.599 -0.2107  0.2134  0.0498
19605TIP3   OH280229   6.642   6.732   3.486 -0.1374 -0.0937  0.2665
19605TIP3    H180230   6.621   6.660   3.546 -0.6230 -0.4539 -0.3331
19605TIP3    H280231   6.662   6.806   3.544  0.5581 -0.7499  0.8961
19606TIP3   OH280232   3.013   1.615  15.798 -0.1981  0.0092 -0.2297
19606TIP3    H180233   2.997   1.706  15.823  0.7406  1.0372 -3.0747
19606TIP3    H280234   2.945   1.595  15.734 -0.3106 -1.2718  0.2588
19607TIP3   OH280235   4.747   3.020  14.718 -0.6882 -0.5056 -0.0134
19607TIP3    H180236   4.803   2.978  14.784  0.7364  1.8845  0.4031
19607TIP3    H280237   4.771   2.977  14.636  0.2393 -0.9541  0.4738
19608TIP3   OH280238   5.198   1.243  16.376  0.2955  0.4302 -0.9139
19608TIP3    H180239   5.170   1.235  16.467  0.4802  0.9021 -0.8126
19608TIP3    H280240   5.119   1.224  16.325  0.1644  0.2697 -0.6572
19609TIP3   OH280241   5.420   1.353   2.491 -0.5904 -0.9020  0.1779
19609TIP3    H180242   5.494   1.412   2.478 -1.3667 -0.0908 -0.7131
19609TIP3    H280243   5.419   1.336   2.586  0.1569 -0.1596  0.3285
19610TIP3   OH280244   4.722   3.284   3.292 -0.0597  0.6725 -0.2584
19610TIP3    H180245   4.691   3.313   3.378 -0.1628  2.0175 -0.7212
19610TIP3    H280246   4.813   3.257   3.308 -0.0360  1.0229  0.2641
19611TIP3   OH280247   3.401   4.327   3.554  0.1411  0.3328  0.6617
19611TIP3    H180248   3.378   4.234   3.554  1.8160 -0.2362 -2.8721
19611TIP3    H280249   3.347   4.365   3.485  3.8680  0.4560 -2.5333
19612TIP3   OH280250   1.495   4.940  12.484  0.4791  0.4780  0.0633
19612TIP3    H180251   1.403   4.914  12.478  0.5861  0.4326 -2.2045
19612TIP3    H280252   1.521   4.956  12.394  2.5618  1.0481  0.7141
19613TIP3   OH280253   0.925   0.699   3.213  0.2414  0.3197 -0.1122
19613TIP3    H180254   0.966   0.689   3.127 -0.3761  1.2252 -0.5225
19613TIP3    H280255   0.835   0.725   3.195  0.8542  3.4377  0.7764
19614TIP3   OH280256   5.367   1.624  11.841  0.4595 -0.7619  0.2187
19614TIP3    H180257   5.425   1.554  11.870  0.5697  0.2909  2.8084
19614TIP3    H280258   5.415   1.705  11.859 -0.6215  0.0646 -0.4533
19615TIP3   OH280259   5.646   4.219   4.636  0.7944  0.1251 -0.5114
19615TIP3    H180260   5.674   4.131   4.658  0.0744  0.0842  0.2710
19615TIP3    H280261   5.633   4.263   4.720 -0.0661  0.5840 -0.8720
19616TIP3   OH280262   2.529   4.382   0.700  0.3756 -0.0245  0.5709
19616TIP3    H180263   2.467   4.454   0.712  1.2579  1.2249 -1.6319
19616TIP3    H280264   2.610   4.426   0.672  1.4400 -1.7873  0.7648
19617TIP3   OH280265   5.420   0.158   3.270 -0.4221 -0.2554  0.2630
19617TIP3    H180266   5.493   0.179   3.328 -0.3449 -2.4309  1.0313
19617TIP3    H280267   5.460   0.148   3.184 -0.1821  0.7697  0.2448
19618TIP3   OH280268   4.858   6.498  15.875 -0.2090  0.4005  0.2118
19618TIP3    H180269   4.900   6.504  15.790  2.6820  4.5352  1.5735
19618TIP3    H280270   4.925   6.463  15.933 -0.2962  2.3009  1.5693
19619TIP3   OH280271   2.577   5.254   4.691 -0.4043 -0.6467  0.5261
19619TIP3    H180272   2.483   5.238   4.688 -0.5244 -0.2794  1.7045
19619TIP3    H280273   2.616   5.167   4.699 -0.4460 -1.0449 -2.4081
19620TIP3   OH280274   1.743   4.296  14.765 -0.2022 -0.1236 -0.2573
19620TIP3    H180275   1.767   4.361  14.831  0.6719  0.6489 -1.3065
19620TIP3    H280276   1.657   4.263  14.793  0.1071  0.2585  1.1897
19621TIP3   OH280277   4.548   3.176   5.319 -0.4444 -0.2310 -0.2276
19621TIP3    H180278   4.554   3.125   5.238  0.0553  0.3360 -0.5572
19621TIP3    H280279   4.632   3.161   5.363  1.2388  2.9638 -1.9708
19622TIP3   OH280280   3.301   4.210   2.881  0.3402 -0.6297  0.4011
19622TIP3    H180281   3.226   4.168   2.840  0.4899  0.9286 -1.6140
19622TIP3    H280282   3.377   4.177   2.833  0.6265  0.3212  0.1640
19623TIP3   OH280283   4.787   5.165  16.158  0.3512  0.0363  0.0801
19623TIP3    H180284   4.817   5.074  16.160 -1.9667 -0.9055 -1.8815
19623TIP3    H280285   4.822   5.200  16.076  1.0835  0.8787  0.7411
19624TIP3   OH280286   0.995   4.561   5.091 -0.7090  0.1726 -0.3245
19624TIP3    H180287   0.969   4.497   5.025 -0.4827 -0.7154  0.4245
19624TIP3    H280288   1.006   4.643   5.042  0.2697 -0.6429 -1.5286
19625TIP3   OH280289   2.144   6.309   1.661  0.2380 -0.5990 -0.0898
19625TIP3    H180290   2.184   6.241   1.717  0.4479  0.6077  1.2963
19625TIP3    H280291   2.050   6.298   1.674  0.0533 -2.7837 -2.5598
19626TIP3   OH280292   5.400   5.377  11.998  0.2809 -0.0893 -0.3103
19626TIP3    H180293   5.354   5.433  12.060 -0.3650 -1.1045  0.1586
19626TIP3    H280294   5.337   5.360  11.929  0.8166  0.5850 -0.9854
19627TIP3   OH280295   2.255   6.250  13.723 -0.2048 -0.2889  0.1685
19627TIP3    H180296   2.164   6.233  13.746 -1.0825  3.0121 -0.2996
19627TIP3    H280297   2.256   6.252  13.627  0.3123 -0.1559  0.1696
19628TIP3   OH280298   5.681   3.125  13.651  0.5150  0.3043  0.5364
19628TIP3    H180299   5.729   3.168  13.580  0.9967 -0.7198  0.2092
19628TIP3    H280300   5.716   3.036  13.652 -0.7158 -0.1943  0.9258
19629TIP3   OH280301   3.186   3.000   2.989 -0.0839  0.2830  0.5899
19629TIP3    H180302   3.092   3.013   2.976  0.1768  2.5106  0.6423
19629TIP3    H280303   3.209   3.058   3.062  1.5112  0.5695 -0.0881
19630TIP3   OH280304   5.743   0.467  16.830  0.5490  0.2591  0.1212
19630TIP3    H180305   5.787   0.458  16.914  1.1257  1.4899 -0.0266
19630TIP3    H280306   5.742   0.561  16.813 -1.1205  0.1631 -0.4391
19631TIP3   OH280307   0.470   5.047   4.061  0.0318  0.0813  0.5836
19631TIP3    H180308   0.551   5.028   4.110  0.2930  0.4193  0.2903
19631TIP3    H280309   0.427   4.962   4.052 -0.8511  0.2071  2.8216
19632TIP3   OH280310   1.454   3.228   5.161 -0.5628  0.1531 -0.0582
19632TIP3    H180311   1.431   3.138   5.183 -0.7591  0.1257 -0.3677
19632TIP3    H280312   1.431   3.279   5.239 -1.8939  0.1624 -0.4266
19633TIP3   OH280313   0.776   3.257   4.443  0.0580  0.2411  0.0541
19633TIP3    H180314   0.803   3.201   4.515 -0.9079 -0.9244 -0.4550
19633TIP3    H280315   0.820   3.221   4.366  0.3924  0.9314 -0.0820
19634TIP3   OH280316   3.311   1.101  17.101  0.4207 -0.3309  0.1133
19634TIP3    H180317   3.406   1.109  17.109  0.5399 -1.0031 -0.5318
19634TIP3    H280318   3.298   1.047  17.023 -0.4463 -2.0750  1.4032
19635TIP3   OH280319   0.246   5.231   5.926  0.3023 -0.4474  0.1961
19635TIP3    H180320   0.306   5.169   5.968 -1.2379 -1.7664  0.5528
19635TIP3    H280321   0.165   5.222   5.975 -0.5351  0.4513 -0.9749
19636TIP3   OH280322   1.360   0.652  14.604 -0.7182  0.0182  0.6281
19636TIP3    H180323   1.378   0.708  14.529 -1.7580  1.3968  1.3639
19636TIP3    H280324   1.447   0.627  14.636 -0.2236  1.0852  0.1760
19637TIP3   OH280325   6.450   6.690  11.472 -0.3797  0.0383  0.9546
19637TIP3    H180326   6.508   6.674  11.547 -0.1445  1.3343  1.0765
19637TIP3    H280327   6.413   6.604  11.452  2.3537 -1.0862  0.2189
19638TIP3   OH280328   4.428   1.207  16.874 -0.4219  0.0311  0.3287
19638TIP3    H180329   4.342   1.230  16.910 -0.1104  0.4353  0.8285
19638TIP3    H280330   4.490   1.257  16.927  0.0627  0.5042 -0.6424
19639TIP3   OH280331   1.161   4.107   5.152 -0.0494  0.2524 -0.1201
19639TIP3    H180332   1.182   4.168   5.223  0.8189 -2.2389  1.9576
19639TIP3    H280333   1.066   4.098   5.155 -0.1749  1.3595 -0.3792
19640TIP3   OH280334   2.984   4.941   2.487  0.3838  0.2499  0.1650
19640TIP3    H180335   3.045   4.956   2.559  1.0834  0.0662 -0.3832
19640TIP3    H280336   3.027   4.875   2.433 -0.0115  0.5915 -0.5729
19641TIP3   OH280337   3.388   0.761   2.020  0.0165 -0.2846 -0.3601
19641TIP3    H180338   3.454   0.745   1.952 -0.8338 -1.6301 -0.8894
19641TIP3    H280339   3.307   0.725   1.985 -0.8858  0.7562  0.5622
19642TIP3   OH280340   2.319   0.780  15.261 -0.0139  0.4009  0.6010
19642TIP3    H180341   2.348   0.721  15.331  2.3064 -0.1588 -0.7034
19642TIP3    H280342   2.396   0.791  15.206 -0.2780  4.7940  0.7588
19643TIP3   OH280343   5.950   5.928   1.506  0.9105 -0.1491  0.8274
19643TIP3    H180344   5.866   5.883   1.515  1.3213 -1.8471 -2.3551
19643TIP3    H280345   5.961   5.974   1.589 -2.0304 -1.7427  2.2839
19644TIP3   OH280346   0.260   4.962   4.414 -0.2321 -0.3637 -0.2498
19644TIP3    H180347   0.218   5.009   4.342 -1.3094 -1.6570 -0.4938
19644TIP3    H280348   0.230   4.872   4.405  1.4077 -1.0236  0.4925
19645TIP3   OH280349   2.611   5.485   2.498  0.5551 -0.6440  0.0445
19645TIP3    H180350   2.598   5.395   2.468  0.8554 -0.9595  0.8233
19645TIP3    H280351   2.705   5.492   2.513  0.4532 -0.4173  0.6261
19646TIP3   OH280352   1.328   3.878   1.725 -0.5414 -0.7896  0.3133
19646TIP3    H180353   1.267   3.952   1.719 -0.4132 -0.6026  1.1949
19646TIP3    H280354   1.322   3.835   1.640 -0.6816  0.1877 -0.1830
19647TIP3   OH280355   2.643   2.360  15.193  0.0350 -0.9813  0.0115
19647TIP3    H180356   2.561   2.370  15.240  0.2803 -1.2711  0.5211
19647TIP3    H280357   2.623   2.384  15.103  0.0817  1.8678  0.6705
19648TIP3   OH280358   0.694   0.512  13.984 -0.5021  0.3785 -0.1334
19648TIP3    H180359   0.699   0.549  13.895 -0.1124  1.5608  0.3628
19648TIP3    H280360   0.756   0.439  13.983  0.6146  1.2936 -0.4274
19649TIP3   OH280361   3.685   4.190   5.094  0.1930 -0.1133 -0.2004
19649TIP3    H180362   3.772   4.154   5.076 -0.0793 -0.2602 -1.2481
19649TIP3    H280363   3.699   4.285   5.098  0.4335 -0.1488 -0.1260
19650TIP3   OH280364   5.666   5.217   0.528  0.0455  0.0382 -0.1711
19650TIP3    H180365   5.598   5.284   0.536 -1.0102 -0.8913 -0.9673
19650TIP3    H280366   5.619   5.138   0.501  1.3455 -0.8550  0.0685
19651TIP3   OH280367   1.634   5.820   3.925 -0.2809 -0.2378  0.0796
19651TIP3    H180368   1.623   5.915   3.924 -1.3151 -0.3381 -0.6506
19651TIP3    H280369   1.563   5.789   3.981 -0.0180 -0.5809  0.2198
19652TIP3   OH280370   2.991   3.966  14.910  0.2343 -0.1414 -0.0652
19652TIP3    H180371   2.997   4.032  14.979 -2.1226 -0.0409  0.0974
19652TIP3    H280372   3.027   4.009  14.833 -0.0098  0.8539  0.3640
19653TIP3   OH280373   6.267   5.882  12.170 -0.3784  0.8595 -0.3355
19653TIP3    H180374   6.193   5.942  12.173 -0.7626  0.3938 -0.3678
19653TIP3    H280375   6.259   5.837  12.086 -1.5813 -1.0703  0.7265
19654TIP3   OH280376   5.435   0.659   2.411 -0.8591 -0.5577 -0.3705
19654TIP3    H180377   5.469   0.602   2.343  0.1856  1.7131 -1.8773
19654TIP3    H280378   5.509   0.677   2.468 -0.6488  0.8317 -1.0559
19655TIP3   OH280379   5.523   3.769  15.510  0.3489 -0.2186 -0.5817
19655TIP3    H180380   5.438   3.807  15.534 -0.5772 -2.3345 -0.1881
19655TIP3    H280381   5.537   3.797  15.419  0.1131  1.5801 -0.1003
19656TIP3   OH280382   6.468   4.546   2.262  0.0533 -0.3076 -0.1188
19656TIP3    H180383   6.526   4.533   2.337 -0.8569 -0.6304  0.5358
19656TIP3    H280384   6.414   4.622   2.285 -0.1677 -0.3487 -0.4840
19657TIP3   OH280385   3.149   1.096  14.731  0.8367 -0.8076 -0.5779
19657TIP3    H180386   3.116   1.019  14.684 -0.2622 -0.5090 -0.3398
19657TIP3    H280387   3.241   1.101  14.707  0.7418 -1.7425 -1.2188
19658TIP3   OH280388   6.765   2.505  14.317  0.0227  0.5441  0.6314
19658TIP3    H180389   6.685   2.556  14.305 -0.6853 -0.5749  0.4573
19658TIP3    H280390   6.737   2.414  14.307  1.7833  0.1814 -2.3039
19659TIP3   OH280391   4.687   5.455  15.579 -0.1004  0.3065 -0.3465
19659TIP3    H180392   4.715   5.539  15.541  0.8990  0.2544  0.2589
19659TIP3    H280393   4.642   5.411  15.507  2.1115  0.0357 -1.6555
19660TIP3   OH280394   2.786   1.933  14.841 -0.2619 -0.0887  0.3461
19660TIP3    H180395   2.860   1.979  14.879  0.1640  0.1214 -0.6904
19660TIP3    H280396   2.740   1.894  14.915  0.4055  0.4870  1.0702
19661TIP3   OH280397   6.502   1.063  15.514 -0.4103  0.3365 -0.2715
19661TIP3    H180398   6.475   1.154  15.504  0.8308  0.7724  0.2034
19661TIP3    H280399   6.453   1.016  15.447 -3.0918  0.9154  1.1368
19662TIP3   OH280400   0.962   5.563  13.453  0.4950 -0.3232 -0.2884
19662TIP3    H180401   1.033   5.626  13.437  0.7252  0.1735  2.2833
19662TIP3    H280402   0.934   5.537  13.366  1.0542  2.6209 -1.4824
19663TIP3   OH280403   3.122   2.818   1.986 -0.4377  0.3694 -0.2750
19663TIP3    H180404   3.144   2.725   1.991 -0.4591  0.3495 -0.5380
19663TIP3    H280405   3.028   2.820   1.967 -1.1263  0.4537  2.6124
19664TIP3   OH280406   5.252   1.474  14.873 -0.0316 -0.2122 -0.0380
19664TIP3    H180407   5.309   1.436  14.941  0.5141  3.6492  1.9306
19664TIP3    H280408   5.310   1.485  14.797  0.8894  0.3107  0.7157
19665TIP3   OH280409   1.532   2.110  11.804  0.3231 -1.0369 -0.6046
19665TIP3    H180410   1.526   2.020  11.837  1.6580 -1.3409 -1.1403
19665TIP3    H280411   1.468   2.114  11.733  0.5961 -1.7065 -0.8909
19666TIP3   OH280412   5.529   3.091  14.416 -0.1053 -0.2989  0.2868
19666TIP3    H180413   5.527   3.009  14.465  0.5159  0.1012  1.0005
19666TIP3    H280414   5.586   3.072  14.341 -2.6747 -1.5348 -1.5025
19667TIP3   OH280415   0.872   5.641   0.138 -0.5439  0.0023 -0.5019
19667TIP3    H180416   0.871   5.619   0.045 -1.9539 -0.1980 -0.4610
19667TIP3    H280417   0.861   5.736   0.140 -1.8857 -0.1351 -0.5313
19668TIP3   OH280418   3.835   5.894   3.255  0.3959  0.2279 -0.0739
19668TIP3    H180419   3.811   5.854   3.339  0.1734  2.0388  0.7616
19668TIP3    H280420   3.772   5.857   3.193  1.1764 -1.9062  0.3013
19669TIP3   OH280421   2.158   3.989  14.130 -0.0335 -0.7878 -0.4040
19669TIP3    H180422   2.077   3.939  14.146  0.7882 -2.1255 -0.2480
19669TIP3    H280423   2.132   4.080  14.140 -1.3995 -1.2138  0.2485
19670TIP3   OH280424   1.764   1.721   6.210  0.5733 -0.1631  0.1838
19670TIP3    H180425   1.762   1.790   6.277  0.3708  1.6346 -1.5903
19670TIP3    H280426   1.847   1.734   6.164  0.4904 -1.0633 -0.2497
19671TIP3   OH280427   5.518   6.163   5.108 -0.2224  0.5172  0.2715
19671TIP3    H180428   5.431   6.150   5.070 -0.2502  1.8538 -0.1730
19671TIP3    H280429   5.502   6.210   5.190 -0.2696 -3.3398  2.7218
19672TIP3   OH280430   3.036   3.806   2.712 -0.0735  0.1011 -0.1291
19672TIP3    H180431   3.125   3.782   2.686 -0.2281 -0.5202 -0.0953
19672TIP3    H280432   2.989   3.816   2.629  0.4220  2.0802 -0.2325
19673TIP3   OH280433   6.019   5.999   2.590 -0.0226  0.3397 -0.4911
19673TIP3    H180434   6.010   5.939   2.516 -1.3025 -0.0874 -0.0204
19673TIP3    H280435   5.953   6.066   2.574 -0.7892 -0.1264  0.5898
19674TIP3   OH280436   4.355   5.392   0.813 -0.1341 -0.1716 -0.5199
19674TIP3    H180437   4.325   5.332   0.745  1.1790 -0.4138 -0.9129
19674TIP3    H280438   4.397   5.464   0.766  0.7232 -0.3056  0.0148
19675TIP3   OH280439   6.037   1.955   5.442 -0.1484 -0.3666 -0.1024
19675TIP3    H180440   5.993   1.871   5.434  1.7651 -1.4194 -0.0297
19675TIP3    H280441   6.078   1.969   5.357 -2.2951  1.6419 -0.9082
19676TIP3   OH280442   4.260   2.387  12.779  0.4825  0.2708 -0.3254
19676TIP3    H180443   4.308   2.467  12.758  2.1822 -0.7303 -0.4651
19676TIP3    H280444   4.264   2.380  12.875  0.0290  0.5302 -0.2864
19677TIP3   OH280445   0.062   6.157   0.576 -0.4272  1.2573  0.5258
19677TIP3    H180446   0.145   6.173   0.623 -1.2396 -0.2328  2.6316
19677TIP3    H280447   0.001   6.132   0.645 -1.1234 -3.6373 -1.5099
19678TIP3   OH280448   4.073   0.444   4.893 -0.2417  0.7192 -0.5481
19678TIP3    H180449   4.012   0.373   4.876  0.4057  0.5718 -2.5031
19678TIP3    H280450   4.145   0.403   4.941 -1.3516  0.7899  1.2977
19679TIP3   OH280451   5.201   2.938  14.170 -0.1959  0.1599  0.2844
19679TIP3    H180452   5.227   3.001  14.103 -1.3129 -0.2894 -0.6224
19679TIP3    H280453   5.224   2.979  14.253 -0.7688  1.6957 -0.2840
19680TIP3   OH280454   0.275   4.978   0.287 -0.6338  0.6415  0.0092
19680TIP3    H180455   0.261   5.058   0.237 -1.3299 -0.0620 -0.9846
19680TIP3    H280456   0.249   4.908   0.227 -2.6424 -0.2034  1.7399
19681TIP3   OH280457   4.506   5.647  12.263  0.2173  0.0947  0.3775
19681TIP3    H180458   4.459   5.600  12.194  1.4222 -2.1803  0.9842
19681TIP3    H280459   4.463   5.620  12.344  1.7847 -1.1890  0.8548
19682TIP3   OH280460   0.588   3.192   2.487 -0.0104  0.0466  0.4406
19682TIP3    H180461   0.630   3.274   2.511  0.3314  0.3471 -1.0802
19682TIP3    H280462   0.648   3.124   2.519 -0.5548  0.3352  2.1766
19683TIP3   OH280463   4.280   0.178  14.970  0.3512  0.1881  0.0377
19683TIP3    H180464   4.273   0.273  14.966  0.5267  0.1819 -0.5118
19683TIP3    H280465   4.190   0.147  14.967  0.2001  0.3649  1.5808
19684TIP3   OH280466   1.334   0.517   2.942  0.2682 -0.0593 -0.1859
19684TIP3    H180467   1.291   0.550   2.863 -1.6995 -0.4183  0.6691
19684TIP3    H280468   1.413   0.569   2.950  0.4545  0.0759 -2.3090
19685TIP3   OH280469   6.760   3.725   0.770  0.0588  0.0024 -0.1272
19685TIP3    H180470   6.702   3.649   0.781  0.6486 -0.3818  0.4605
19685TIP3    H280471   6.778   3.753   0.860 -0.4583  1.0861 -0.3521
19686TIP3   OH280472   5.956   5.886  13.536  0.1182 -0.3057 -0.7523
19686TIP3    H180473   5.987   5.909  13.624  1.0613 -1.6582 -0.6955
19686TIP3    H280474   5.977   5.962  13.483 -2.2096  1.3578  0.5148
19687TIP3   OH280475   0.212   1.202   1.013  0.4081  0.0881 -0.2649
19687TIP3    H180476   0.158   1.196   1.092  0.5625  0.5777 -0.1193
19687TIP3    H280477   0.173   1.275   0.964  0.9386  0.4514 -0.1543
19688TIP3   OH280478   3.885   6.051  11.704 -0.1991 -0.2359  0.1419
19688TIP3    H180479   3.879   5.979  11.642 -0.8815 -0.6119  0.6297
19688TIP3    H280480   3.966   6.035  11.753 -0.9679 -1.3576  1.0795
19689TIP3   OH280481   2.713   5.675   4.517  0.9662 -0.1646  0.1745
19689TIP3    H180482   2.793   5.635   4.484  1.0321  0.4515 -0.4112
19689TIP3    H280483   2.696   5.629   4.600  1.1659 -1.2458 -0.3704
19690TIP3   OH280484   3.444   2.893  15.610 -0.3149  0.4677 -0.8512
19690TIP3    H180485   3.417   2.806  15.638 -0.1374 -0.0556 -2.2570
19690TIP3    H280486   3.367   2.948  15.625 -0.4371  0.0755  0.0158
19691TIP3   OH280487   1.957   6.515   2.111 -0.7877  0.4017  0.2927
19691TIP3    H180488   1.878   6.553   2.149 -3.0035 -0.3550 -3.1061
19691TIP3    H280489   1.928   6.430   2.076  1.4984  0.1383 -1.1445
19692TIP3   OH280490   2.513   6.039  12.527 -0.5631 -0.0816  0.2055
19692TIP3    H180491   2.469   6.105  12.474 -2.0359  1.7932  3.4797
19692TIP3    H280492   2.448   6.014  12.593  1.1414 -2.2365  1.1846
19693TIP3   OH280493   0.674   2.712  12.261 -0.2285  0.2533  0.1097
19693TIP3    H180494   0.586   2.736  12.289  0.0569  1.6586 -0.1355
19693TIP3    H280495   0.700   2.781  12.200  1.2541  0.1751  0.6045
19694TIP3   OH280496   4.529   6.483   3.149  0.5717 -0.5860 -0.0096
19694TIP3    H180497   4.495   6.432   3.076 -1.4100 -0.8452  1.0263
19694TIP3    H280498   4.509   6.430   3.227 -0.8033  1.3355  1.0243
19695TIP3   OH280499   6.530   1.322  11.959  0.5068  0.4456 -0.1115
19695TIP3    H180500   6.455   1.321  11.899  0.5515 -0.8699 -0.1871
19695TIP3    H280501   6.513   1.396  12.017  0.5629  1.8816 -1.8485
19696TIP3   OH280502   5.385   1.916  16.161  0.4799  0.2824  0.8517
19696TIP3    H180503   5.368   1.988  16.101  1.6253  0.3894  0.6353
19696TIP3    H280504   5.326   1.932  16.235 -0.1189  0.7802  0.2813
19697TIP3   OH280505   6.575   0.682   5.184  0.2136 -0.2284 -0.3978
19697TIP3    H180506   6.521   0.627   5.127 -1.6844  1.2272 -0.0987
19697TIP3    H280507   6.665   0.668   5.152 -0.6243 -0.4728 -2.8928
19698TIP3   OH280508   4.762   2.834  11.456 -0.2186 -0.2442 -0.1233
19698TIP3    H180509   4.823   2.760  11.456  1.1160  0.8249 -0.4800
19698TIP3    H280510   4.676   2.793  11.453  0.4643 -1.7979  0.4590
19699TIP3   OH280511   6.262   5.822   4.663 -0.3840  0.1965 -0.2635
19699TIP3    H180512   6.188   5.806   4.605 -0.0579 -1.4847 -0.2925
19699TIP3    H280513   6.256   5.752   4.729  1.6328 -0.5207 -0.7704
19700TIP3   OH280514   0.967   4.861   3.875 -0.4438  0.2822 -0.4669
19700TIP3    H180515   1.021   4.928   3.916 -1.2404  0.5329  0.2021
19700TIP3    H280516   0.896   4.909   3.832 -2.3034 -0.1452  1.8844
19701TIP3   OH280517   5.910   0.613  14.727 -0.2685 -0.3945  0.4617
19701TIP3    H180518   5.954   0.650  14.803 -0.3451  1.2726 -0.2597
19701TIP3    H280519   5.954   0.529  14.712 -2.5372 -2.6034  4.4055
19702TIP3   OH280520   2.154   4.272   2.336 -0.4706  0.6631  0.1738
19702TIP3    H180521   2.121   4.362   2.337  0.0382  0.8546  0.0197
19702TIP3    H280522   2.119   4.234   2.256 -1.0405  0.5887  0.4564
19703TIP3   OH280523   5.099   1.835  12.246 -0.4867  0.3353  0.5615
19703TIP3    H180524   5.148   1.759  12.216 -3.5237 -0.8602 -1.9029
19703TIP3    H280525   5.095   1.893  12.170  1.4543  2.9555  2.2770
19704TIP3   OH280526   6.317   5.731  10.342 -0.0229  0.2580 -0.4897
19704TIP3    H180527   6.349   5.684  10.266  1.5779  2.3693 -1.2305
19704TIP3    H280528   6.389   5.726  10.405 -0.6439  0.0046  0.2132
19705TIP3   OH280529   0.009   4.254   3.095 -0.8197 -0.0281  0.3803
19705TIP3    H180530   0.069   4.319   3.130 -0.8187  1.1629 -1.6368
19705TIP3    H280531  -0.059   4.246   3.161 -0.0949  1.0086  1.2878
19706TIP3   OH280532   0.929   3.740  12.181  0.5643  1.0560 -0.0513
19706TIP3    H180533   1.024   3.755  12.179  0.4898  1.4625 -0.7972
19706TIP3    H280534   0.896   3.803  12.245  0.8865  0.3332  0.8549
19707TIP3   OH280535   0.615   5.313  14.542 -0.2316 -0.0631  0.3029
19707TIP3    H180536   0.541   5.334  14.599 -0.0406  0.5673  0.3313
19707TIP3    H280537   0.689   5.359  14.581  0.1299 -0.4979  0.1426
19708TIP3   OH280538   1.442   0.910  17.217  0.3484 -0.4485 -0.0975
19708TIP3    H180539   1.480   0.946  17.297 -1.1454  1.1388 -0.0445
19708TIP3    H280540   1.444   0.983  17.154 -0.5254 -0.9985 -0.7914
19709TIP3   OH280541   5.515   0.387  14.150 -0.2683 -0.2769 -0.0099
19709TIP3    H180542   5.480   0.437  14.224  0.0881  0.4790 -0.3406
19709TIP3    H280543   5.609   0.382  14.167 -0.0274  0.8417 -0.9512
19710TIP3   OH280544   2.700   0.708   0.423 -0.4768 -0.1692 -0.0219
19710TIP3    H180545   2.764   0.645   0.455  0.2030  1.5392  2.2629
19710TIP3    H280546   2.634   0.655   0.378  1.7872 -2.1052 -1.2344
19711TIP3   OH280547   1.610   6.377  17.007  0.2394 -0.1339  0.1456
19711TIP3    H180548   1.667   6.444  16.970 -1.5760  1.5912  0.2557
19711TIP3    H280549   1.662   6.336  17.076  2.2059 -0.5035 -1.4791
19712TIP3   OH280550   4.453   6.481   4.802  0.1494 -0.6964 -0.4785
19712TIP3    H180551   4.503   6.546   4.754  1.6139 -1.3947  0.0260
19712TIP3    H280552   4.362   6.495   4.775  0.0919  2.8223  1.0805
19713TIP3   OH280553   3.528   0.716  14.460 -0.3996 -0.0781  0.4947
19713TIP3    H180554   3.497   0.780  14.396  0.5464 -0.4300 -0.3445
19713TIP3    H280555   3.475   0.732  14.538 -2.6315 -0.5848 -0.8137
19714TIP3   OH280556   4.993   1.236   1.977  0.8092 -0.0980 -0.1236
19714TIP3    H180557   5.027   1.183   2.048  0.7372  2.2277  1.7697
19714TIP3    H280558   5.047   1.315   1.978 -0.0298  0.5513 -1.8380
19715TIP3   OH280559   3.800   4.919   3.106 -0.2802  0.1928 -0.1423
19715TIP3    H180560   3.852   4.860   3.160 -0.3914  0.5717  0.3937
19715TIP3    H280561   3.710   4.888   3.116 -0.3653  0.5724  0.3088
19716TIP3   OH280562   2.146   3.836  16.612  0.1187  0.5592 -0.4675
19716TIP3    H180563   2.051   3.831  16.619  0.0648 -0.1111 -1.4680
19716TIP3    H280564   2.176   3.844  16.702 -0.8889  0.8349 -0.1446
19717TIP3   OH280565   0.917   4.887  14.755  0.5225 -0.3571  0.4540
19717TIP3    H180566   0.975   4.821  14.717  2.1434  1.1604  0.1176
19717TIP3    H280567   0.906   4.952  14.686 -0.9302 -0.1932  0.8100
19718TIP3   OH280568   6.683   0.504   5.386 -0.5668  0.0731  0.1680
19718TIP3    H180569   6.643   0.585   5.354  0.5359  0.3924 -0.4528
19718TIP3    H280570   6.740   0.533   5.458 -0.5127 -0.2110  0.2404
19719TIP3   OH280571   0.885   4.048  14.483  0.2290  0.0935 -0.4347
19719TIP3    H180572   0.841   4.097  14.413  1.4488 -0.4261 -1.6189
19719TIP3    H280573   0.969   4.092  14.494  0.9406 -1.1076 -0.8413
19720TIP3   OH280574   1.707   3.604  12.819  0.2398 -0.5214  0.7350
19720TIP3    H180575   1.745   3.668  12.880 -0.0035 -0.8583  1.2490
19720TIP3    H280576   1.695   3.652  12.737  1.7998 -0.4121  0.5426
19721TIP3   OH280577   1.660   6.341   0.309  0.0502 -0.3169 -0.1833
19721TIP3    H180578   1.754   6.342   0.289  0.0466  2.0181 -0.3831
19721TIP3    H280579   1.653   6.286   0.387  1.3577 -1.7868 -1.0403
19722TIP3   OH280580   2.942   4.071  13.489 -0.1505  0.4453 -0.2236
19722TIP3    H180581   2.961   4.146  13.433 -1.8840  0.5060 -0.8055
19722TIP3    H280582   3.016   4.066  13.549  1.5284  0.6698 -2.1960
19723TIP3   OH280583   5.020   1.406   3.689  0.7628  0.2311 -0.1779
19723TIP3    H180584   4.955   1.383   3.623  0.7047  0.0756 -0.0682
19723TIP3    H280585   5.092   1.445   3.640  1.5201 -1.5532 -0.5727
19724TIP3   OH280586   2.770   5.424  16.429 -0.4542 -0.0865  0.6769
19724TIP3    H180587   2.695   5.390  16.477  0.1703 -0.6820  1.2472
19724TIP3    H280588   2.791   5.507  16.472 -1.1144  0.3733  0.1567
19725TIP3   OH280589   0.453   6.641   2.980 -0.3683  0.2644  0.3021
19725TIP3    H180590   0.530   6.680   3.021  0.3337  0.1239 -0.8606
19725TIP3    H280591   0.385   6.709   2.988  0.7610  1.7061 -1.4742
19726TIP3   OH280592   5.078   4.543   0.302 -0.3634  0.0592 -0.1059
19726TIP3    H180593   5.100   4.629   0.266  0.3189  0.8361  2.0056
19726TIP3    H280594   5.159   4.492   0.293 -0.0358  0.4164  0.7424
19727TIP3   OH280595   5.721   4.737  14.952 -0.0883  0.5832  0.0898
19727TIP3    H180596   5.747   4.823  14.921 -0.0280  1.2053  1.7649
19727TIP3    H280597   5.758   4.676  14.888  0.9159  1.7235 -0.4486
19728TIP3   OH280598   5.435   0.816   4.695 -0.2056 -0.3184 -0.2001
19728TIP3    H180599   5.401   0.807   4.784  0.5699 -0.8528  0.0525
19728TIP3    H280600   5.358   0.812   4.639 -0.6660 -0.3488  0.4261
19729TIP3   OH280601   6.612   4.171   6.352  0.4986  0.5054  0.2063
19729TIP3    H180602   6.667   4.231   6.301  0.7419  1.4087  1.4924
19729TIP3    H280603   6.665   4.149   6.429 -0.4234  0.3545  0.8119
19730TIP3   OH280604   1.591   3.548   1.749  0.1418 -0.4137  0.6520
19730TIP3    H180605   1.554   3.471   1.705  0.2955  0.0361 -0.2783
19730TIP3    H280606   1.684   3.529   1.758  0.5201  0.3797 -1.1832
19731TIP3   OH280607   3.994   4.201  16.438  0.1570 -0.2839  0.3417
19731TIP3    H180608   3.990   4.135  16.368  0.2321  0.0465  0.0213
19731TIP3    H280609   3.998   4.285  16.391 -1.6074  0.0596  0.7201
19732TIP3   OH280610   3.991   1.422   0.227 -0.0536  0.0452 -0.1402
19732TIP3    H180611   3.979   1.392   0.137  1.3673 -0.7452 -0.0870
19732TIP3    H280612   4.085   1.430   0.237 -0.1798 -0.1463  1.3615
19733TIP3   OH280613   1.133   5.398   3.362 -0.1401 -0.2172  0.0401
19733TIP3    H180614   1.191   5.364   3.430  1.0621  1.9353  0.1679
19733TIP3    H280615   1.051   5.416   3.408 -0.0775 -0.8992  0.4238
19734TIP3   OH280616   4.715   4.551   3.196  0.2831  0.1313 -0.1612
19734TIP3    H180617   4.807   4.526   3.203 -0.4760 -2.8760  0.6176
19734TIP3    H280618   4.683   4.504   3.119 -0.8486  0.1764  0.2662
19735TIP3   OH280619   4.777   1.931  15.465  0.1519  0.1173 -0.0424
19735TIP3    H180620   4.749   1.956  15.377  0.5331 -1.2189 -0.5707
19735TIP3    H280621   4.857   1.880  15.451 -0.6296 -1.4539  0.9364
19736TIP3   OH280622   5.427   0.722  16.955  0.2052 -0.1245 -0.5924
19736TIP3    H180623   5.339   0.685  16.949  0.6458 -1.4142  0.5180
19736TIP3    H280624   5.438   0.769  16.873 -2.2435  1.7589  0.0351
19737TIP3   OH280625   3.453   1.177  11.959 -0.2922  0.6016 -0.3395
19737TIP3    H180626   3.502   1.246  12.004  0.0933 -0.4413  0.9169
19737TIP3    H280627   3.390   1.224  11.905 -0.3779  1.9392  0.8545
19738TIP3   OH280628   1.603   0.986   2.461  0.2950 -0.2631  0.0676
19738TIP3    H180629   1.544   0.916   2.432 -1.0351 -0.2087  2.4053
19738TIP3    H280630   1.679   0.939   2.497  0.7326 -0.3949 -1.0024
19739TIP3   OH280631   5.933   1.942   0.232  0.5076 -0.4505  0.1401
19739TIP3    H180632   5.965   1.983   0.151 -0.0958 -0.4178 -0.0875
19739TIP3    H280633   5.837   1.946   0.224  0.4230  0.3990  1.2691
19740TIP3   OH280634   2.975   1.265  11.951  0.4296  0.3013  0.6528
19740TIP3    H180635   3.002   1.173  11.950  0.1773  0.2259  0.3135
19740TIP3    H280636   2.889   1.264  11.993  0.4999  0.4030  0.7981
19741TIP3   OH280637   3.320   0.078   2.787  0.3378  0.1080  0.0013
19741TIP3    H180638   3.383   0.149   2.803  2.3856 -1.4277 -0.8568
19741TIP3    H280639   3.290   0.053   2.875 -0.1959  1.7864  0.3368
19742TIP3   OH280640   5.858   2.748   2.598  0.4418 -0.1324 -0.2015
19742TIP3    H180641   5.853   2.669   2.545 -1.7280 -0.2450  0.0840
19742TIP3    H280642   5.947   2.781   2.583  1.4372 -2.6159 -0.2785
19743TIP3   OH280643   6.514   4.467  11.178 -0.0768  0.0077  0.1354
19743TIP3    H180644   6.446   4.470  11.246 -1.3599 -0.2356 -1.0973
19743TIP3    H280645   6.526   4.558  11.153 -1.0909 -0.0776 -0.7184
19744TIP3   OH280646   5.725   4.461   2.437 -0.5319 -0.0041 -0.3615
19744TIP3    H180647   5.810   4.425   2.413 -1.5527 -1.4536 -1.9944
19744TIP3    H280648   5.662   4.413   2.384 -2.4651  0.5526  1.2802
19745TIP3   OH280649   6.358   3.604   1.277 -0.8404 -0.2319  0.3858
19745TIP3    H180650   6.320   3.539   1.335 -2.6406 -0.8750 -1.4248
19745TIP3    H280651   6.448   3.615   1.309 -1.7364 -0.5068  3.2562
19746TIP3   OH280652   2.922   5.449  11.796  0.0602 -0.6902 -0.1261
19746TIP3    H180653   2.977   5.410  11.727  0.6242 -1.2464  0.6105
19746TIP3    H280654   2.939   5.394  11.872  0.6273  0.8163  0.8714
19747TIP3   OH280655   4.407   6.063   1.344 -0.0813 -0.0340 -0.2488
19747TIP3    H180656   4.479   6.114   1.381 -0.9750  1.2980 -0.3007
19747TIP3    H280657   4.346   6.128   1.308 -1.0427 -1.1479 -0.7256
19748TIP3   OH280658   3.028   0.336   1.592  0.2550 -0.4391  0.1887
19748TIP3    H180659   2.937   0.361   1.607  0.2346 -0.9713  1.0042
19748TIP3    H280660   3.027   0.240   1.597  0.8133 -0.4613 -0.0841
19749TIP3   OH280661   4.631   0.298   0.742 -0.7057 -0.3811  0.3510
19749TIP3    H180662   4.689   0.350   0.798 -2.3757  0.6039  1.2600
19749TIP3    H280663   4.546   0.302   0.786 -1.5908 -1.3515 -1.1898
19750TIP3   OH280664   0.682   2.092  14.395 -0.3711  0.2170  0.0728
19750TIP3    H180665   0.633   2.124  14.320  0.7585  1.2394 -0.2509
19750TIP3    H280666   0.644   2.006  14.413  0.0314 -0.5564 -2.3513
19751TIP3   OH280667   5.796   6.221   5.447 -0.3567  0.0039 -0.1957
19751TIP3    H180668   5.806   6.315   5.461  2.0062  0.0237 -1.3835
19751TIP3    H280669   5.803   6.182   5.534  2.4655  0.7563  0.0120
19752TIP3   OH280670   3.271   5.659  14.173 -0.0703 -0.0977 -0.2965
19752TIP3    H180671   3.362   5.649  14.200 -0.4837  0.1681  1.2984
19752TIP3    H280672   3.273   5.730  14.108  0.6823  1.0203  0.8937
19753TIP3   OH280673   3.423   1.059   0.150  0.6458 -0.2578 -0.5330
19753TIP3    H180674   3.373   0.981   0.131  1.0460 -0.7768  0.4591
19753TIP3    H280675   3.444   1.097   0.064 -0.0728 -0.8938 -0.9911
19754TIP3   OH280676   3.930   1.388  13.821 -0.6519 -0.2597  0.0375
19754TIP3    H180677   3.951   1.464  13.767 -1.2855  0.6371  1.0137
19754TIP3    H280678   3.943   1.313  13.763  1.6990  0.4461 -0.4456
19755TIP3   OH280679   4.748   2.492  12.315  0.5350 -0.4566 -0.1076
19755TIP3    H180680   4.836   2.459  12.329  0.5235 -0.4431 -0.0015
19755TIP3    H280681   4.742   2.571  12.369  0.2501 -0.8101  0.3872
19756TIP3   OH280682   3.360   0.974  13.186 -0.1810  0.2955 -0.0300
19756TIP3    H180683   3.293   0.971  13.118  0.1596 -1.3884 -0.3211
19756TIP3    H280684   3.440   0.999  13.139 -0.0931 -0.1714 -0.1336
19757TIP3   OH280685   1.894   5.027   2.697  0.1602 -0.4624  0.0247
19757TIP3    H180686   1.869   5.118   2.685  2.3437  0.0293 -1.3423
19757TIP3    H280687   1.817   4.977   2.667 -0.6564  0.9054 -0.2225
19758TIP3   OH280688   1.899   0.471  13.136  0.0638 -0.5618  0.2324
19758TIP3    H180689   1.890   0.495  13.228 -2.2174 -1.5007  0.2998
19758TIP3    H280690   1.835   0.525  13.090  1.2966  0.0191 -0.8676
19759TIP3   OH280691   3.587   5.746  17.037  0.2418  0.2307  0.0956
19759TIP3    H180692   3.647   5.804  16.990  1.1317 -0.1571  0.7186
19759TIP3    H280693   3.604   5.659  17.001  2.0122 -0.3330  2.0755
19760TIP3   OH280694   6.667   4.002  14.113  0.1804 -0.0174  0.3197
19760TIP3    H180695   6.756   3.972  14.132 -0.1336 -2.4979 -1.6182
19760TIP3    H280696   6.613   3.960  14.180  0.1668 -0.8011 -0.1750
19761TIP3   OH280697   3.665   5.911   2.470  0.0154 -0.0911  0.1132
19761TIP3    H180698   3.714   5.959   2.537 -1.1949 -0.1171  1.0412
19761TIP3    H280699   3.578   5.950   2.469 -1.1117 -2.3639  1.1008
19762TIP3   OH280700   4.197   6.534   5.418 -0.9916 -0.2562  0.1036
19762TIP3    H180701   4.194   6.569   5.507 -0.1243 -1.7323  0.7449
19762TIP3    H280702   4.288   6.543   5.391 -0.6539 -2.1988  0.4144
19763TIP3   OH280703   3.295   3.860  10.842  0.0863  0.2059 -0.4177
19763TIP3    H180704   3.275   3.768  10.825 -0.0733  0.3681 -1.1700
19763TIP3    H280705   3.363   3.881  10.778 -0.8114  0.9537 -1.1553
19764TIP3   OH280706   2.781   0.064   4.725 -0.4182 -0.6331  0.1422
19764TIP3    H180707   2.692   0.092   4.705 -0.2210 -0.5069 -0.5560
19764TIP3    H280708   2.770  -0.020   4.769 -0.9254 -0.2127  0.8537
19765TIP3   OH280709   4.209   0.107   5.054  0.3699  0.7027  0.7008
19765TIP3    H180710   4.270   0.050   5.101  1.5685  0.8346 -0.6045
19765TIP3    H280711   4.231   0.196   5.084  0.4930  0.7108  0.5875
19766TIP3   OH280712   1.730   0.550   1.801  1.0380  0.0620 -0.2363
19766TIP3    H180713   1.738   0.645   1.812  0.7638  0.0205  0.3912
19766TIP3    H280714   1.657   0.539   1.741  1.4217  0.2571 -0.7510
19767TIP3   OH280715   0.864   0.282   0.787  0.1466  0.2807  0.2521
19767TIP3    H180716   0.892   0.217   0.852  1.3695  0.0233 -0.4918
19767TIP3    H280717   0.771   0.296   0.805  0.0543 -1.0756  0.9482
19768TIP3   OH280718   0.778   2.511  13.886  0.3064  0.1639  0.3893
19768TIP3    H180719   0.753   2.534  13.976 -0.4031  0.7145  0.0630
19768TIP3    H280720   0.847   2.574  13.864  2.0316 -1.3343  1.2779
19769TIP3   OH280721   0.233   4.301  11.516 -0.1108 -1.2415  0.3345
19769TIP3    H180722   0.304   4.261  11.565  0.6461 -1.8348 -1.2002
19769TIP3    H280723   0.155   4.254  11.545  0.3990 -1.9876  0.5246
19770TIP3   OH280724   5.027   1.228  13.582 -0.0355 -0.2089 -0.7421
19770TIP3    H180725   4.932   1.213  13.574 -0.6275  3.2787 -1.8250
19770TIP3    H280726   5.037   1.274  13.665  0.6893 -0.2211 -0.8156
19771TIP3   OH280727   5.760   2.874   3.593 -0.1501  0.1816  0.8165
19771TIP3    H180728   5.780   2.956   3.548 -3.0987  1.3215  1.3666
19771TIP3    H280729   5.769   2.893   3.686 -0.0194 -0.3818  0.9274
19772TIP3   OH280730   2.057   2.389  14.177 -0.4315  0.6645 -0.2245
19772TIP3    H180731   2.134   2.439  14.151 -1.4225  1.9545 -0.7922
19772TIP3    H280732   1.986   2.424  14.123 -1.4687 -0.3201  0.4524
19773TIP3   OH280733   2.456   5.138  16.752 -0.4308 -0.1134 -0.1853
19773TIP3    H180734   2.397   5.194  16.803 -0.9908  0.5594 -1.5353
19773TIP3    H280735   2.403   5.061  16.731  0.0349 -0.7385  0.8442
19774TIP3   OH280736   0.552   3.066   3.605 -0.0312  0.1138 -0.1437
19774TIP3    H180737   0.605   3.128   3.655 -2.4630  2.2594 -0.0318
19774TIP3    H280738   0.513   3.119   3.535 -2.0904 -1.2967 -0.1492
19775TIP3   OH280739   0.559   0.470  10.947 -0.0510 -0.1299 -0.0284
19775TIP3    H180740   0.637   0.503  10.991 -0.6469 -0.6611  1.5008
19775TIP3    H280741   0.578   0.377  10.931 -0.5839 -0.4204  0.9301
19776TIP3   OH280742   0.281   2.892   6.225  0.0600  0.2579 -0.0384
19776TIP3    H180743   0.303   2.930   6.140  1.3146 -1.2789 -0.4342
19776TIP3    H280744   0.246   2.966   6.276 -0.0714  1.3440 -1.6413
19777TIP3   OH280745   6.508   5.913  16.230 -0.2071 -0.0166  0.0842
19777TIP3    H180746   6.579   5.977  16.227  1.2503 -1.5672 -3.0347
19777TIP3    H280747   6.551   5.828  16.217 -2.5418 -1.0032 -2.0730
19778TIP3   OH280748   3.788   0.811   1.570 -0.1948 -0.5462 -0.2168
19778TIP3    H180749   3.830   0.882   1.521 -0.6592  0.8252  1.2793
19778TIP3    H280750   3.858   0.774   1.624 -0.5657  0.9882  1.4254
19779TIP3   OH280751   6.291   3.538   2.923 -0.4018  0.5288 -0.1475
19779TIP3    H180752   6.223   3.589   2.879 -3.8325 -2.7969  0.7785
19779TIP3    H280753   6.268   3.542   3.016  1.1337 -0.0838  0.2907
19780TIP3   OH280754   1.249   2.167  13.895  0.2124 -0.0576  0.4487
19780TIP3    H180755   1.343   2.154  13.878  0.2478  0.5023  0.1672
19780TIP3    H280756   1.237   2.140  13.986  0.8770  0.9214  0.8458
19781TIP3   OH280757   3.569   4.442   0.493  0.0487 -0.3391  0.2417
19781TIP3    H180758   3.621   4.366   0.467  1.6265  0.9102 -0.4337
19781TIP3    H280759   3.621   4.518   0.464 -0.4343  1.0575  2.7621
19782TIP3   OH280760   6.578   2.430  16.877 -0.0875 -0.5688 -0.3888
19782TIP3    H180761   6.626   2.441  16.959 -1.7424 -1.4921  0.7711
19782TIP3    H280762   6.488   2.457  16.897 -0.3369  0.0814 -2.1730
19783TIP3   OH280763   6.622   2.614   0.861  0.3841  0.3698  0.2394
19783TIP3    H180764   6.667   2.698   0.854  0.6602  0.1766 -0.4201
19783TIP3    H280765   6.539   2.634   0.905  1.2317  0.6780  1.7659
19784TIP3   OH280766   3.061   5.753  16.511 -0.9317 -0.1385 -0.0606
19784TIP3    H180767   2.968   5.742  16.532 -1.3484  2.5730 -0.1903
19784TIP3    H280768   3.064   5.832  16.458  1.5451  0.2461  0.5695
19785TIP3   OH280769   6.448   3.371  15.888  0.0703  0.2507  0.3080
19785TIP3    H180770   6.497   3.342  15.965 -1.2949  0.8048  1.4275
19785TIP3    H280771   6.406   3.452  15.915  0.1461  0.8701 -1.2909
19786TIP3   OH280772   1.228   6.686  15.254  0.0134  0.1466  0.1306
19786TIP3    H180773   1.235   6.767  15.305 -1.5863 -1.2908  2.8585
19786TIP3    H280774   1.147   6.696  15.205  1.0883  1.1549 -1.5306
19787TIP3   OH280775   5.191   0.554   4.611 -0.0835 -0.8510  0.5209
19787TIP3    H180776   5.209   0.634   4.561  0.4137 -1.7263 -0.7584
19787TIP3    H280777   5.097   0.542   4.605  0.0705 -1.5175 -1.1935
19788TIP3   OH280778   2.487   4.611   5.272  0.1434  0.1009 -0.1466
19788TIP3    H180779   2.404   4.642   5.236 -0.7920 -1.6897  0.3762
19788TIP3    H280780   2.543   4.598   5.195 -0.6761 -0.3843 -0.6719
19789TIP3   OH280781   0.892   2.675   5.586 -0.0413  0.6837 -0.1244
19789TIP3    H180782   0.864   2.759   5.624 -0.9337 -0.7626  2.6772
19789TIP3    H280783   0.959   2.642   5.647 -0.7171 -1.2665 -0.3728
19790TIP3   OH280784   4.307   4.404  11.011  0.0118  0.0855 -0.0499
19790TIP3    H180785   4.286   4.496  10.998 -2.2445 -0.2771  0.6310
19790TIP3    H280786   4.308   4.393  11.106 -0.5011 -0.7293 -0.1258
19791TIP3   OH280787   1.440   2.126  16.978  0.5280  0.3954 -0.2188
19791TIP3    H180788   1.429   2.187  17.051  1.8248  0.6094 -0.1889
19791TIP3    H280789   1.531   2.099  16.983  0.6422  0.4311 -1.7824
19792TIP3   OH280790   1.893   1.838   5.590  0.0601  0.8197 -0.2468
19792TIP3    H180791   1.810   1.845   5.638  0.6902  1.2636  0.8091
19792TIP3    H280792   1.947   1.779   5.644  1.0223  1.8643 -0.0385
19793TIP3   OH280793   4.591   5.449  11.494 -0.0564 -0.3670  0.3675
19793TIP3    H180794   4.665   5.465  11.552  1.1962 -0.2841 -1.1998
19793TIP3    H280795   4.557   5.363  11.521  1.1895 -0.8319  0.5081
19794TIP3   OH280796   3.338   1.192  12.881 -0.2340  0.7738  0.5036
19794TIP3    H180797   3.371   1.223  12.965  0.5613  0.0492  0.4761
19794TIP3    H280798   3.411   1.203  12.821 -0.2721 -0.1692  0.2709
19795TIP3   OH280799   1.457   4.663  14.622  0.5320 -0.2442 -0.6940
19795TIP3    H180800   1.498   4.584  14.586  1.3512  0.2329 -0.8132
19795TIP3    H280801   1.504   4.735  14.581  1.4116  0.3228  1.2129
19796TIP3   OH280802   0.328   5.059  11.741 -0.5460 -0.3687 -0.3242
19796TIP3    H180803   0.322   4.988  11.805 -2.0653  0.0332  0.0106
19796TIP3    H280804   0.399   5.114  11.774 -1.2489 -0.2065  1.0151
19797TIP3   OH280805   5.553   1.840  15.141 -0.1362  0.0858 -0.4734
19797TIP3    H180806   5.523   1.798  15.060  2.0554 -0.5460 -1.0435
19797TIP3    H280807   5.561   1.768  15.204  0.0474  0.2492 -0.3090
19798TIP3   OH280808   1.717   0.691  15.164  0.4699  0.2028  0.0930
19798TIP3    H180809   1.713   0.783  15.193 -1.3893  0.1772  0.0668
19798TIP3    H280810   1.788   0.689  15.100  1.1386  1.4207  0.7627
19799TIP3   OH280811   3.552   2.389   3.932  0.4217 -0.2406 -0.2995
19799TIP3    H180812   3.470   2.371   3.977  1.0767 -0.3162  0.8908
19799TIP3    H280813   3.527   2.395   3.839 -0.6892 -1.6719 -0.1247
19800TIP3   OH280814   0.970   6.437   0.872  0.2343  0.1335 -0.1964
19800TIP3    H180815   0.976   6.512   0.814 -0.8892  0.0229 -0.4834
19800TIP3    H280816   0.948   6.474   0.958 -0.4330  0.1349 -0.3629
19801TIP3   OH280817   5.673   1.182   3.264 -0.0736 -0.2624  0.4416
19801TIP3    H180818   5.746   1.146   3.213  0.5707 -3.0697  3.0403
19801TIP3    H280819   5.710   1.196   3.351 -2.4810 -1.2907  1.7163
19802TIP3   OH280820   3.012   0.252   5.535  0.1609 -0.3203  0.0913
19802TIP3    H180821   3.085   0.284   5.481  0.1294  0.0184  0.2512
19802TIP3    H280822   3.028   0.289   5.621  0.8335 -1.7691  0.6267
19803TIP3   OH280823   1.732   5.865   5.073  0.5698  0.0704  0.1037
19803TIP3    H180824   1.722   5.959   5.057  1.4504  0.0897 -0.4517
19803TIP3    H280825   1.758   5.859   5.165 -0.7875  0.2579  0.5177
19804TIP3   OH280826   5.812   2.179   5.664 -0.1898 -1.0663  0.9595
19804TIP3    H180827   5.772   2.100   5.629 -1.8549 -0.6742  1.8986
19804TIP3    H280828   5.746   2.217   5.721  1.8581 -0.8635  3.3518
19805TIP3   OH280829   1.092   6.234  13.565 -0.4259  0.3127 -0.2334
19805TIP3    H180830   1.019   6.293  13.547 -1.5403 -0.2186  2.1891
19805TIP3    H280831   1.122   6.206  13.478 -0.9165  3.0921 -1.4018
19806TIP3   OH280832   3.761   4.855  11.967  0.3206 -0.1544 -0.2144
19806TIP3    H180833   3.745   4.900  12.050 -2.2296  0.7619 -1.0866
19806TIP3    H280834   3.751   4.762  11.987 -0.4284  0.0675  0.4966
19807TIP3   OH280835   6.242   2.684   5.110 -0.4150  0.6275  0.5042
19807TIP3    H180836   6.215   2.594   5.123 -1.5616  0.9958  0.7743
19807TIP3    H280837   6.235   2.697   5.015  1.9108 -0.2015  0.1665
19808TIP3   OH280838   4.185   4.316  12.607 -0.3700 -0.7770  0.2699
19808TIP3    H180839   4.141   4.283  12.685 -0.6013 -0.5806  0.2244
19808TIP3    H280840   4.132   4.284  12.534 -1.1310  0.4345  0.2491
19809TIP3   OH280841   4.410   1.859  14.074 -0.7170 -0.0712 -0.1942
19809TIP3    H180842   4.485   1.802  14.059 -0.4823  0.4199 -0.9393
19809TIP3    H280843   4.334   1.802  14.064 -0.4497 -0.7048  1.1471
19810TIP3   OH280844   0.454   2.242   5.829 -0.0175  0.2010 -0.4214
19810TIP3    H180845   0.545   2.230   5.856 -0.2693 -1.0529 -0.0775
19810TIP3    H280846   0.403   2.236   5.909 -0.3014  2.7538 -0.3367
19811TIP3   OH280847   1.806   3.044   4.696  0.6080 -0.1552 -0.8502
19811TIP3    H180848   1.797   2.949   4.683  0.0323  0.0202 -1.8161
19811TIP3    H280849   1.818   3.054   4.790 -0.7374 -1.0914 -0.5604
19812TIP3   OH280850   2.019   4.463  15.349  0.0799 -0.1989 -0.5359
19812TIP3    H180851   1.940   4.409  15.356 -2.0502  2.3701 -2.7939
19812TIP3    H280852   2.031   4.500  15.436 -0.4168 -1.5864  0.1517
19813TIP3   OH280853   2.034   0.552  16.514 -0.0226  0.1749  0.3044
19813TIP3    H180854   1.947   0.591  16.514  0.4355  1.2684 -0.8506
19813TIP3    H280855   2.089   0.614  16.562  0.2941 -0.0942  0.2951
19814TIP3   OH280856   4.696   0.680  12.038 -0.4056  0.2253 -0.5294
19814TIP3    H180857   4.632   0.635  11.983  0.3719 -2.9671  0.9368
19814TIP3    H280858   4.778   0.678  11.987  0.9029 -4.6959  1.1643
19815TIP3   OH280859   1.907   5.070  13.737 -0.0953  0.1245 -0.4765
19815TIP3    H180860   1.890   5.023  13.819  3.1699 -4.0364 -1.7529
19815TIP3    H280861   1.836   5.043  13.678 -1.8204  2.2264  0.5183
19816TIP3   OH280862   4.751   3.541  10.854  0.0149 -0.4028 -0.4154
19816TIP3    H180863   4.755   3.606  10.784 -0.3789  0.4426  0.3339
19816TIP3    H280864   4.782   3.460  10.813 -1.4587 -0.2595 -1.9486
19817TIP3   OH280865   5.007   3.637  14.771 -0.2843  0.1813 -0.0356
19817TIP3    H180866   4.983   3.589  14.850  1.0467 -1.2621 -0.4717
19817TIP3    H280867   5.091   3.678  14.793 -1.2006  2.0565  0.1890
19818TIP3   OH280868   3.949   3.156   0.807  0.6852  0.8819  0.0903
19818TIP3    H180869   3.963   3.220   0.737  0.9235  0.9119  0.1633
19818TIP3    H280870   4.026   3.166   0.863  0.5173  0.8272  0.3314
19819TIP3   OH280871   0.012   0.655  14.573  0.1253 -0.1645  0.7994
19819TIP3    H180872  -0.065   0.613  14.536  0.8225 -1.5117  0.8055
19819TIP3    H280873   0.059   0.691  14.498  0.1666 -0.5413  0.6396
19820TIP3   OH280874   5.422   0.884   6.143  0.1183 -0.3212  0.0811
19820TIP3    H180875   5.501   0.867   6.196  0.2397 -1.5538 -0.4653
19820TIP3    H280876   5.353   0.837   6.189 -0.0432 -0.2916 -0.1360
19821TIP3   OH280877   2.150   5.164   2.623 -0.0438 -0.3960 -0.7804
19821TIP3    H180878   2.082   5.116   2.670 -0.8459  0.5752 -0.9167
19821TIP3    H280879   2.229   5.154   2.677 -0.2243 -1.7097 -0.7333
19822TIP3   OH280880   1.551   3.993  14.678  0.8081  0.8850 -0.3146
19822TIP3    H180881   1.495   3.955  14.610  0.5259  0.0138  0.3985
19822TIP3    H280882   1.619   3.927  14.692 -0.5961 -0.1493  2.0967
19823TIP3   OH280883   5.392   6.517  11.010 -0.0227  0.5787 -0.2759
19823TIP3    H180884   5.314   6.461  11.020  0.9933 -0.8309  0.1816
19823TIP3    H280885   5.362   6.591  10.958 -1.4281 -0.4450 -1.0050
19824TIP3   OH280886   2.095   6.092   6.101  0.1438  0.3255 -0.3732
19824TIP3    H180887   2.167   6.131   6.151  2.0511  0.0552 -2.7498
19824TIP3    H280888   2.121   6.001   6.087 -1.1546 -0.0583 -0.4353
19825TIP3   OH280889   0.620   0.519   0.557  0.1112  0.1626 -0.1150
19825TIP3    H180890   0.683   0.571   0.608  1.6279 -2.0333  0.3830
19825TIP3    H280891   0.551   0.496   0.619  0.6305 -0.3458  0.2814
19826TIP3   OH280892   1.478   0.778   6.024 -0.3175 -0.0594 -1.2163
19826TIP3    H180893   1.545   0.711   6.012 -0.1362  0.4817 -4.0103
19826TIP3    H280894   1.414   0.739   6.083  1.8587 -1.0009  0.6701
19827TIP3   OH280895   5.441   6.001   0.994  0.4445  0.1716 -0.1454
19827TIP3    H180896   5.442   6.047   1.078  0.7465 -0.1555  0.0309
19827TIP3    H280897   5.387   6.056   0.937 -0.4183 -0.0012  0.4900
19828TIP3   OH280898   6.160   3.955  16.793  0.0561 -0.0880 -0.1871
19828TIP3    H180899   6.098   3.884  16.807 -0.3884  0.3139 -0.1122
19828TIP3    H280900   6.134   3.994  16.710 -0.3503  0.6457  0.2788
19829TIP3   OH280901   1.640   4.613  16.605 -0.6581  0.0685  0.2042
19829TIP3    H180902   1.689   4.638  16.527 -1.2984  0.1736 -0.1724
19829TIP3    H280903   1.552   4.648  16.590 -0.5278  0.9499  1.4155
19830TIP3   OH280904   3.579   0.216   0.414 -0.0983  0.5096 -0.2648
19830TIP3    H180905   3.536   0.198   0.497  0.2190  2.2164  0.3007
19830TIP3    H280906   3.583   0.131   0.370  1.2679 -0.7747  2.1617
19831TIP3   OH280907   1.987   5.648  15.668  0.0982 -0.1653  0.5749
19831TIP3    H180908   1.965   5.579  15.730  0.9571 -0.2884  0.7542
19831TIP3    H280909   2.074   5.624  15.635 -0.2794 -0.0275 -0.5686
19832TIP3   OH280910   1.414   0.781  13.391  0.0132 -0.2319 -0.4812
19832TIP3    H180911   1.437   0.740  13.474  1.1249  1.1832 -0.0544
19832TIP3    H280912   1.329   0.821  13.406 -0.9040 -1.9626 -0.7856
19833TIP3   OH280913   0.892   5.679   5.108  0.0570 -0.4617  0.0854
19833TIP3    H180914   0.943   5.611   5.152  1.2216 -0.5325 -1.3067
19833TIP3    H280915   0.877   5.644   5.020  2.6074  1.9363 -1.4304
19834TIP3   OH280916   4.813   1.360  11.272 -0.1917  0.1184 -0.0618
19834TIP3    H180917   4.830   1.435  11.329 -0.3438  0.1230 -0.0220
19834TIP3    H280918   4.860   1.380  11.191 -0.4654  0.3898 -0.1552
19835TIP3   OH280919   0.768   3.584   1.619  0.3452 -0.2625  0.0165
19835TIP3    H180920   0.723   3.667   1.636  2.5502  1.5468 -2.2197
19835TIP3    H280921   0.811   3.563   1.701 -0.0886  0.9221  0.5724
19836TIP3   OH280922   5.024   0.286  14.926 -0.1880  0.2360 -0.0937
19836TIP3    H180923   5.021   0.330  14.841 -1.3045 -0.5608 -0.4907
19836TIP3    H280924   5.111   0.246  14.929 -0.2203  0.0821 -0.9543
19837TIP3   OH280925   3.407   0.916   5.560 -0.3487 -0.2461 -0.6562
19837TIP3    H180926   3.321   0.935   5.599  0.2424  0.5556  0.3239
19837TIP3    H280927   3.456   0.873   5.630  0.2166 -0.2209 -1.0291
19838TIP3   OH280928   1.568   3.917  16.346  0.3540  0.6119  0.5094
19838TIP3    H180929   1.627   3.854  16.304  0.1066  0.7144 -0.0062
19838TIP3    H280930   1.494   3.863  16.376 -0.8264  0.8714 -1.7044
19839TIP3   OH280931   4.792   3.653   6.381  0.1617  0.0001  0.0114
19839TIP3    H180932   4.776   3.653   6.475  2.5574 -0.3762  0.4938
19839TIP3    H280933   4.812   3.562   6.360  0.5052  0.2300 -0.6782
19840TIP3   OH280934   4.658   5.157  11.411  0.0457  0.1260 -0.2424
19840TIP3    H180935   4.580   5.160  11.467 -0.5316 -1.7416 -0.8766
19840TIP3    H280936   4.712   5.087  11.448  1.7887  1.7910  0.5588
19841TIP3   OH280937   1.251   5.609   5.311  0.0083  0.2894 -0.9365
19841TIP3    H180938   1.325   5.612   5.372 -0.2804  0.2138 -0.5755
19841TIP3    H280939   1.264   5.683   5.252 -0.4034  1.1599  0.0344
19842TIP3   OH280940   1.186   3.649  14.484 -0.2352 -0.0577 -0.3509
19842TIP3    H180941   1.228   3.730  14.513 -0.7875  0.8175 -1.9113
19842TIP3    H280942   1.253   3.582  14.498  0.7141  0.8753 -0.2466
19843TIP3   OH280943   6.454   5.801  17.140 -0.1318  0.2396  0.4259
19843TIP3    H180944   6.398   5.807  17.063 -0.7514 -2.0508  0.6180
19843TIP3    H280945   6.512   5.726  17.121  1.2741  1.0828  1.2277
19844TIP3   OH280946   1.057   4.679  16.350  0.7460 -0.7404  0.6887
19844TIP3    H180947   1.122   4.747  16.369 -0.5592  0.7240  0.0852
19844TIP3    H280948   1.083   4.644  16.265  0.6955 -0.1110  0.4148
19845TIP3   OH280949   2.339   4.992   2.930 -0.2414  0.1120 -0.0743
19845TIP3    H180950   2.245   4.988   2.911 -0.8154 -2.5685  2.4878
19845TIP3    H280951   2.347   5.058   2.999 -0.3795 -0.1076  0.1560
19846TIP3   OH280952   4.263   3.232  13.675  0.0839 -0.1343  0.2282
19846TIP3    H180953   4.327   3.168  13.647  1.0690  0.3643  1.2557
19846TIP3    H280954   4.285   3.312  13.627  0.8287  0.2930  1.2395
19847TIP3   OH280955   1.600   1.815   2.613 -0.0688  0.2984 -0.2669
19847TIP3    H180956   1.612   1.881   2.681 -0.3697 -0.1067  0.1863
19847TIP3    H280957   1.689   1.789   2.589  0.0251 -0.4164  0.8220
19848TIP3   OH280958   3.522   3.772  13.091 -0.1658 -0.3091  0.2591
19848TIP3    H180959   3.446   3.717  13.109  0.6430 -1.3617  0.5432
19848TIP3    H280960   3.572   3.772  13.172  0.7500 -0.6229 -0.2865
19849TIP3   OH280961   6.104   1.968   0.704  0.3103  0.0142 -0.4549
19849TIP3    H180962   6.195   1.997   0.695 -0.1696  1.2051 -2.0534
19849TIP3    H280963   6.062   1.997   0.623 -1.1813 -1.7779 -0.3807
19850TIP3   OH280964   2.422   1.573   1.315 -0.3723 -0.7389  0.1680
19850TIP3    H180965   2.381   1.598   1.232  0.2541 -3.3570 -1.0338
19850TIP3    H280966   2.509   1.543   1.290  0.0429 -1.0400  1.8696
19851TIP3   OH280967   3.772   2.413  14.153  0.3312 -0.4366  0.5325
19851TIP3    H180968   3.754   2.324  14.181  0.8598 -0.5344  0.5760
19851TIP3    H280969   3.700   2.465  14.190  1.6878 -0.3209  3.2911
19852TIP3   OH280970   4.063   1.235  12.485  0.1704 -0.1667 -0.7182
19852TIP3    H180971   3.978   1.195  12.504  0.8190 -1.2489  0.0870
19852TIP3    H280972   4.113   1.224  12.566  1.4748 -0.6523 -1.5441
19853TIP3   OH280973   6.136   0.368  13.257 -0.4000  0.5415  0.2474
19853TIP3    H180974   6.167   0.301  13.318  1.2985  0.1633 -0.9294
19853TIP3    H280975   6.054   0.334  13.222  0.5788 -1.1461 -0.5580
19854TIP3   OH280976   6.718   1.889   3.806  0.1441 -0.6018  0.4812
19854TIP3    H180977   6.703   1.928   3.892  0.2209 -0.1332  0.2821
19854TIP3    H280978   6.730   1.796   3.824  0.1520 -0.5070  0.9765
19855TIP3   OH280979   4.952   0.360  15.689 -0.3162 -0.7390  0.6588
19855TIP3    H180980   4.904   0.437  15.720  0.1612 -0.2989  0.3164
19855TIP3    H280981   4.915   0.287  15.739 -2.3970 -0.6501 -0.6327
19856TIP3   OH280982   4.593   5.194  15.801  0.5095  0.3862 -0.1198
19856TIP3    H180983   4.555   5.179  15.888  0.6000 -0.9559 -0.2944
19856TIP3    H280984   4.642   5.275  15.810  1.2365 -0.1814  1.3447
19857TIP3   OH280985   6.701   2.783  11.659  0.5057  0.1177  0.3802
19857TIP3    H180986   6.788   2.820  11.673  0.0064  0.8540  1.7643
19857TIP3    H280987   6.660   2.841  11.594  0.3228  1.0472  1.3005
19858TIP3   OH280988   1.151   2.637   1.187  0.1608 -0.2511  0.2556
19858TIP3    H180989   1.103   2.713   1.153 -1.3256 -0.6202  1.4425
19858TIP3    H280990   1.236   2.673   1.213  0.1431  0.6432 -0.8514
19859TIP3   OH280991   3.422   2.228   3.200 -0.0652  0.1405  0.7887
19859TIP3    H180992   3.364   2.298   3.231 -0.5598  0.2479 -0.3357
19859TIP3    H280993   3.460   2.263   3.120 -2.0300 -1.6711 -1.0590
19860TIP3   OH280994   3.986   0.202   5.890 -0.1640 -0.1258 -0.4489
19860TIP3    H180995   3.905   0.252   5.882  0.0276  0.2681  0.0282
19860TIP3    H280996   3.967   0.137   5.958 -0.4223 -0.7381 -1.0869
19861TIP3   OH280997   6.088   3.336   2.331 -0.0667 -0.1842  0.3006
19861TIP3    H180998   6.037   3.264   2.369 -0.6379 -0.6419 -1.2734
19861TIP3    H280999   6.074   3.409   2.391 -0.4198 -1.0482  1.3083
19862TIP3   OH281000   2.306   1.759   6.088  0.1686 -1.0182  0.0322
19862TIP3    H181001   2.384   1.799   6.128 -0.0265 -1.4816  0.9181
19862TIP3    H281002   2.279   1.693   6.152 -1.0250 -0.7812 -0.2132
19863TIP3   OH281003   0.492   5.653  14.367  0.0705  0.2345 -0.3031
19863TIP3    H181004   0.406   5.671  14.330 -0.4892 -2.0863 -0.2922
19863TIP3    H281005   0.475   5.626  14.457  0.5489 -2.0290 -0.8246
19864TIP3   OH281006   2.338   0.365  11.597 -0.2022  0.0646  0.4612
19864TIP3    H181007   2.388   0.423  11.654  0.4505  1.3224 -1.2863
19864TIP3    H281008   2.402   0.329  11.536 -0.3875 -3.4842  2.1362
19865TIP3   OH281009   4.200   5.397   3.614 -0.2036  0.7973 -0.3512
19865TIP3    H181010   4.149   5.477   3.603  2.1381  2.4496 -0.0769
19865TIP3    H281011   4.244   5.385   3.530  0.2854  0.4448 -0.0541
19866TIP3   OH281012   0.651   0.413   2.729 -0.1823  0.1958 -0.4661
19866TIP3    H181013   0.579   0.367   2.687 -0.5172  1.3479 -1.2024
19866TIP3    H281014   0.670   0.486   2.670  0.2949  1.0200  0.6776
19867TIP3   OH281015   2.771   2.112  16.031 -0.4936  0.6134 -0.1173
19867TIP3    H181016   2.783   2.204  16.055 -2.2325  0.1552  3.0658
19867TIP3    H281017   2.805   2.063  16.105  0.9267 -1.4275 -1.9894
19868TIP3   OH281018   1.920   1.002   1.724  0.6756  0.2844  0.4693
19868TIP3    H181019   1.936   1.024   1.632  0.4355 -1.7578 -0.1057
19868TIP3    H281020   1.994   0.948   1.749  1.1196  1.4403  1.7379
19869TIP3   OH281021   0.291   4.869  11.957  0.6454  0.9757  0.4285
19869TIP3    H181022   0.225   4.922  12.003 -0.4428  0.9100 -0.9753
19869TIP3    H281023   0.247   4.786  11.939  1.3368  0.6825  0.0444
19870TIP3   OH281024   2.173   4.668  14.654 -0.0080  0.9423 -0.6991
19870TIP3    H181025   2.130   4.621  14.725  2.4207 -1.0223 -0.3918
19870TIP3    H281026   2.249   4.709  14.694 -0.1002  2.1289 -1.6760
19871TIP3   OH281027   3.061   2.313   0.991  0.1940  0.1145 -0.0039
19871TIP3    H181028   3.057   2.408   0.992  1.8695  0.2531 -1.5168
19871TIP3    H281029   3.012   2.288   0.912  1.0026 -0.1690 -0.4238
19872TIP3   OH281030   5.196   2.224   1.441  0.0979 -0.4110  0.0946
19872TIP3    H181031   5.176   2.293   1.378 -1.1983 -0.8429  0.0167
19872TIP3    H281032   5.121   2.222   1.501  0.5662 -1.0913  0.6879
19873TIP3   OH281033   0.959   5.013   0.905 -0.1740 -0.2166 -0.1076
19873TIP3    H181034   0.922   5.101   0.912  0.5101 -0.0078  1.1170
19873TIP3    H281035   0.897   4.966   0.849 -1.1601  0.7141  0.1626
19874TIP3   OH281036   0.988   4.416   0.239  0.8014  0.0279  0.1907
19874TIP3    H181037   0.953   4.464   0.164 -0.2530 -1.6543 -0.4378
19874TIP3    H281038   0.917   4.419   0.304 -0.1581 -2.4429 -0.6637
19875TIP3   OH281039   5.690   2.634   3.459 -0.5056  0.3573  0.3448
19875TIP3    H181040   5.747   2.557   3.460  0.3782  1.0024  0.9256
19875TIP3    H281041   5.736   2.700   3.511 -2.3619  0.5066  1.9471
19876TIP3   OH281042   3.494   3.906   4.265 -0.3986 -0.1494  0.0270
19876TIP3    H181043   3.494   3.994   4.229 -0.0140  0.4208  1.3602
19876TIP3    H281044   3.584   3.875   4.252 -0.4619 -0.2440 -0.1915
19877TIP3   OH281045   1.766   5.507  17.225  0.2846  0.3006  0.1529
19877TIP3    H181046   1.722   5.592  17.221  1.6820  1.0203 -0.9627
19877TIP3    H281047   1.760   5.473  17.135 -1.2404 -1.3448  0.8204
19878TIP3   OH281048   3.304   5.933   1.214  0.4617 -0.9314  0.2139
19878TIP3    H181049   3.362   5.857   1.206  0.0130 -1.4331  1.4780
19878TIP3    H281050   3.359   6.008   1.189  1.1310 -1.5858 -0.3146
19879TIP3   OH281051   2.560   0.209  13.949 -0.3662 -0.0899 -0.3516
19879TIP3    H181052   2.490   0.170  13.896 -0.0944  1.6818 -2.1056
19879TIP3    H281053   2.641   0.182  13.905 -0.0424 -0.1776  0.2921
19880TIP3   OH281054   0.193   2.435  14.078  0.4124  0.4333 -0.0372
19880TIP3    H181055   0.153   2.459  13.995  0.8805  0.0554 -0.3759
19880TIP3    H281056   0.123   2.447  14.143 -0.0399  0.4438 -0.5221
19881TIP3   OH281057   4.241   6.050   3.799  0.0363  0.6136 -0.0785
19881TIP3    H181058   4.182   5.997   3.745 -1.9453  0.6800  1.8467
19881TIP3    H281059   4.325   6.005   3.795 -1.4082 -2.4546  1.0376
19882TIP3   OH281060   1.520   6.755  14.722 -0.4301 -0.1209 -0.7604
19882TIP3    H181061   1.557   6.705  14.649  0.5978  1.0517 -1.0753
19882TIP3    H281062   1.561   6.841  14.716  1.4589 -0.6323  2.5498
19883TIP3   OH281063   3.625   0.464   3.680 -0.6065 -0.8088 -0.8766
19883TIP3    H181064   3.671   0.540   3.647 -2.5513  1.1813  0.7055
19883TIP3    H281065   3.656   0.453   3.769 -1.9207 -0.4537 -0.3506
19884TIP3   OH281066   2.145   4.947  12.216  0.2083  0.1442  0.5827
19884TIP3    H181067   2.180   4.860  12.196  0.1487 -0.1950  1.8908
19884TIP3    H281068   2.105   4.976  12.134  3.0993  0.3618 -0.9043
19885TIP3   OH281069   3.238   1.273  11.797  0.2986  0.7669  0.1572
19885TIP3    H181070   3.170   1.260  11.862  1.0451  0.1340  0.8305
19885TIP3    H281071   3.191   1.293  11.716 -0.6529  1.0586  0.7698
19886TIP3   OH281072   1.243   1.059  16.205  0.2249 -0.3774  0.3549
19886TIP3    H181073   1.185   1.076  16.279  1.1953  1.0591  0.8373
19886TIP3    H281074   1.296   1.139  16.197  1.5231 -1.2823 -0.6136
19887TIP3   OH281075   6.766   5.088   2.137 -0.6958  0.3096 -0.3701
19887TIP3    H181076   6.727   5.076   2.050  0.4464  0.6047 -0.9438
19887TIP3    H281077   6.729   5.018   2.190  0.8064 -1.7285 -1.8688
19888TIP3   OH281078   5.777   3.116  12.679 -0.5759  0.7898 -0.3788
19888TIP3    H181079   5.695   3.094  12.636 -0.3906 -0.7869  0.0202
19888TIP3    H281080   5.756   3.118  12.772  0.3654 -2.5638  0.0189
19889TIP3   OH281081   4.116   6.245   2.768  0.4922  0.1687  0.0509
19889TIP3    H181082   4.151   6.307   2.832  0.5306 -0.3251  0.5205
19889TIP3    H281083   4.057   6.297   2.713  0.1500  0.5160  0.7415
19890TIP3   OH281084   4.722   5.422   2.340 -0.4075 -0.0954  0.0667
19890TIP3    H181085   4.799   5.368   2.321 -1.7746 -2.0607 -0.1465
19890TIP3    H281086   4.737   5.455   2.429 -0.0665 -1.8425  0.6962
19891TIP3   OH281087   1.296   1.243   2.487  0.8056 -0.1572 -0.4868
19891TIP3    H181088   1.229   1.295   2.532  0.3500  0.0915 -1.4450
19891TIP3    H281089   1.334   1.303   2.423  2.1940 -0.1898  0.2578
19892TIP3   OH281090   3.326   3.960  16.274  0.7038 -0.4041 -0.0233
19892TIP3    H181091   3.384   3.987  16.345  0.4562 -0.7036  0.2951
19892TIP3    H281092   3.274   4.039  16.255  1.0723 -0.1945 -0.1732
19893TIP3   OH281093   3.736   2.914   3.019  0.3309  0.3612 -0.3544
19893TIP3    H181094   3.752   3.005   3.044  1.4351 -0.0807  0.6470
19893TIP3    H281095   3.698   2.920   2.932 -0.7929  1.8328  0.1879
19894TIP3   OH281096   2.837   5.356  16.154 -0.2854  0.2635  0.4400
19894TIP3    H181097   2.918   5.356  16.102  0.5759 -0.6304  1.7251
19894TIP3    H281098   2.862   5.396  16.237 -1.0103 -0.4895  1.0440
19895TIP3   OH281099   0.027   6.333  11.263  0.0377  0.1153  0.4031
19895TIP3    H181100   0.076   6.268  11.313  0.6365 -1.8829 -2.5286
19895TIP3    H281101   0.088   6.405  11.250  1.5230 -1.3552 -1.2560
19896TIP3   OH281102   0.413   1.529   5.343  0.3440  0.3310 -0.0301
19896TIP3    H181103   0.410   1.455   5.405 -0.0849  0.0565 -0.3687
19896TIP3    H281104   0.479   1.504   5.279 -1.9631 -1.2735 -1.9721
19897TIP3   OH281105   3.275   4.480  12.983 -0.0947  0.0818  0.6146
19897TIP3    H181106   3.368   4.482  13.005  0.1991 -0.2183 -0.4976
19897TIP3    H281107   3.273   4.447  12.893 -1.2810  0.0695  0.6305
19898TIP3   OH281108   5.925   1.474   0.366  0.9069  0.0895 -0.0154
19898TIP3    H181109   5.921   1.411   0.439 -1.1441 -1.0818 -1.0523
19898TIP3    H281110   5.904   1.558   0.406  0.6956 -0.3792  0.8899
19899TIP3   OH281111   2.894   2.371  15.460 -1.5650 -0.1000  0.2292
19899TIP3    H181112   2.833   2.417  15.517  0.0679  0.4281  1.6062
19899TIP3    H281113   2.892   2.280  15.491 -1.5868 -0.0704  0.3134
19900TIP3   OH281114   1.625   3.084   6.426  0.1148 -0.1151  0.2285
19900TIP3    H181115   1.600   3.101   6.335 -2.2203  1.6372  1.0908
19900TIP3    H281116   1.567   3.014   6.455 -0.9765  1.0720  1.0410
19901TIP3   OH281117   3.773   5.425  16.526  0.2576 -0.1043  0.0773
19901TIP3    H181118   3.842   5.412  16.461 -1.0212  1.5249 -1.7261
19901TIP3    H281119   3.692   5.410  16.478 -0.7101  0.0250  1.6170
19902TIP3   OH281120   4.319   0.203  13.165  0.1986  0.6338 -0.7762
19902TIP3    H181121   4.361   0.247  13.091  0.7641 -0.2373 -1.0012
19902TIP3    H281122   4.232   0.242  13.170  0.9511  2.3589 -0.4080
19903TIP3   OH281123   5.412   0.366  13.170 -0.4527  0.4340 -0.4810
19903TIP3    H181124   5.361   0.446  13.163  0.2428  0.8499 -0.9239
19903TIP3    H281125   5.461   0.362  13.088 -1.4451 -1.1193 -1.0351
19904TIP3   OH281126   1.272   6.481  17.039 -0.6371  0.2997 -0.2068
19904TIP3    H181127   1.349   6.506  16.988  0.5189 -0.5077  1.0678
19904TIP3    H281128   1.246   6.561  17.084 -2.2185  1.2643 -2.6285
19905TIP3   OH281129   0.988   1.904  14.041 -0.2438 -0.2577  0.5774
19905TIP3    H181130   0.980   1.923  13.947  1.4709  0.8669  0.6102
19905TIP3    H281131   0.897   1.897  14.072 -0.8377 -1.3804 -1.2756
19906TIP3   OH281132   3.669   3.369   5.494  0.4902  0.7090  0.0236
19906TIP3    H181133   3.576   3.361   5.514  0.6015  2.0190  1.2164
19906TIP3    H281134   3.680   3.461   5.468  1.2284  0.2348 -1.4754
19907TIP3   OH281135   5.693   3.964  12.378  0.2893  0.1188 -0.1531
19907TIP3    H181136   5.729   3.996  12.461 -0.3085  1.6208 -0.4451
19907TIP3    H281137   5.601   3.947  12.397  0.2191  0.1952 -0.4278
19908TIP3   OH281138   0.281   2.810   4.708 -0.4229 -0.2304 -0.4334
19908TIP3    H181139   0.281   2.726   4.663  0.4958  0.9350 -2.7683
19908TIP3    H281140   0.211   2.860   4.666  1.4028  1.4024 -1.7050
19909TIP3   OH281141   5.637   6.559   5.220  0.0497  0.4515  0.1974
19909TIP3    H181142   5.727   6.546   5.189  0.1432  1.5167  0.0089
19909TIP3    H281143   5.598   6.618   5.156 -0.4694  0.8168  0.8493
19910TIP3   OH281144   3.873   0.863  15.711  0.7914 -0.3023 -0.0469
19910TIP3    H181145   3.913   0.778  15.728  0.3729 -0.2154  1.4924
19910TIP3    H281146   3.947   0.922  15.698  1.0824 -0.9208 -1.3256
19911TIP3   OH281147   3.466   2.548   5.136  0.0568 -0.7704  0.1114
19911TIP3    H181148   3.476   2.464   5.181 -0.3907 -0.7706  0.2178
19911TIP3    H281149   3.371   2.557   5.123  0.1428 -0.5152 -0.3454
19912TIP3   OH281150   0.525   0.304   1.448  0.2028 -0.4332  0.2326
19912TIP3    H181151   0.539   0.222   1.402 -2.1311 -0.9784  0.3503
19912TIP3    H281152   0.436   0.297   1.482 -0.0335  2.1239  0.3132
19913TIP3   OH281153   2.339   2.934   1.959 -1.0522  0.5909  0.8264
19913TIP3    H181154   2.288   3.006   1.920 -2.2288  0.4258  2.0093
19913TIP3    H281155   2.363   2.966   2.046 -3.7435 -1.2974  2.4109
19914TIP3   OH281156   3.344   2.633  14.495 -0.3097  0.2849  0.1502
19914TIP3    H181157   3.298   2.668  14.571 -1.7247 -0.0080 -0.5267
19914TIP3    H281158   3.275   2.594  14.441  0.7932 -0.5063 -0.7516
19915TIP3   OH281159   2.210   4.480  12.341  0.8316  0.4208 -0.0744
19915TIP3    H181160   2.259   4.559  12.317  2.7735 -0.0358  1.9867
19915TIP3    H281161   2.255   4.409  12.296  1.4374  0.1283  0.9446
19916TIP3   OH281162   1.271   6.574  12.849 -0.3364  0.7157  0.1374
19916TIP3    H181163   1.289   6.589  12.942 -0.2274 -0.4761  0.3225
19916TIP3    H281164   1.332   6.505  12.824 -1.3872 -0.0332 -0.4288
19917TIP3   OH281165   2.172   6.669  16.465 -0.1133  0.5183  0.0408
19917TIP3    H181166   2.226   6.610  16.518  0.2842 -0.8644 -1.7688
19917TIP3    H281167   2.088   6.624  16.457 -0.0739  0.5563 -0.6913
19918TIP3   OH281168   3.588   5.649   0.372 -0.0888  0.2412 -0.1615
19918TIP3    H181169   3.676   5.630   0.339 -0.3563  1.3594 -1.6546
19918TIP3    H281170   3.555   5.716   0.312 -1.5277  0.6723  1.0685
19919TIP3   OH281171   6.539   2.292  15.726 -0.1957  0.3951 -0.2099
19919TIP3    H181172   6.551   2.239  15.805 -2.0117  1.4241  0.8486
19919TIP3    H281173   6.542   2.230  15.654  2.2247 -0.4862  0.5697
19920TIP3   OH281174   1.933   2.015  15.793  1.0426 -0.7777 -0.8717
19920TIP3    H181175   1.905   2.044  15.880 -1.4280  1.1045 -2.1340
19920TIP3    H281176   2.016   1.969  15.807  1.0035 -0.0580  2.3626
19921TIP3   OH281177   3.527   6.611   1.501 -0.4512 -0.5666 -0.2457
19921TIP3    H181178   3.610   6.609   1.549 -0.6056 -0.3695  0.0326
19921TIP3    H281179   3.493   6.699   1.515 -1.3012 -1.0242  0.6652
19922TIP3   OH281180   5.796   3.576  13.292  0.2527 -0.1710 -0.2587
19922TIP3    H181181   5.751   3.529  13.221 -0.9176  2.0067 -1.0637
19922TIP3    H281182   5.877   3.606  13.252  1.3109 -1.9421  0.4447
19923TIP3   OH281183   4.511   3.798   2.566  0.0241 -0.0310  0.5703
19923TIP3    H181184   4.563   3.835   2.494 -1.2480 -0.5931 -0.6723
19923TIP3    H281185   4.531   3.855   2.641 -0.0057  1.6995 -0.6610
19924TIP3   OH281186   1.323   1.040   0.382  0.0079  1.0429 -0.4950
19924TIP3    H181187   1.389   1.041   0.314 -0.7525  2.1627 -1.2616
19924TIP3    H281188   1.240   1.031   0.335 -0.3985 -0.3868  0.4425
19925TIP3   OH281189   5.726   0.209  11.829  0.1929 -0.1984 -0.6580
19925TIP3    H181190   5.650   0.167  11.870 -0.6806  0.1178 -1.8904
19925TIP3    H281191   5.799   0.150  11.848 -0.2146 -0.1978  1.0748
19926TIP3   OH281192   2.337   3.250  13.161  0.2303  0.3696 -0.1754
19926TIP3    H181193   2.366   3.275  13.074  1.1846  1.0043  0.3039
19926TIP3    H281194   2.244   3.273  13.163  0.2871  0.6808 -0.9096
19927TIP3   OH281195   4.222   0.679  12.100  0.5006 -0.1868  0.2013
19927TIP3    H181196   4.268   0.721  12.027  0.2376 -0.1763  0.0390
19927TIP3    H281197   4.279   0.694  12.176 -0.2990  1.8460  0.4857
19928TIP3   OH281198   0.439   4.128  13.286 -0.0278  0.1060  0.6814
19928TIP3    H181199   0.477   4.074  13.216 -1.6613  1.6941 -1.6036
19928TIP3    H281200   0.349   4.096  13.294  0.4315 -0.7818  2.9498
19929TIP3   OH281201   1.438   5.830  16.087  0.0086 -0.1037 -0.0805
19929TIP3    H181202   1.389   5.855  16.008 -0.7751  0.2156  0.4934
19929TIP3    H281203   1.484   5.750  16.062  0.1313  0.2397 -1.0028
19930TIP3   OH281204   1.319   4.144   3.137 -0.3885 -0.5189  0.7223
19930TIP3    H181205   1.333   4.123   3.230  0.2576 -1.7453  0.3726
19930TIP3    H281206   1.252   4.082   3.108 -1.7458  0.9096  0.7358
19931TIP3   OH281207   2.507   6.676   4.068  0.2325  0.1587  0.2889
19931TIP3    H181208   2.478   6.756   4.023 -0.1942  0.3340  0.8548
19931TIP3    H281209   2.457   6.676   4.150  1.3080  0.0770  0.9558
19932TIP3   OH281210   6.354   0.296   5.214  0.4169  0.3242 -0.1459
19932TIP3    H181211   6.400   0.255   5.288  0.0032 -0.7590 -0.4606
19932TIP3    H281212   6.420   0.349   5.170  0.6415  1.0742  1.0548
19933TIP3   OH281213   1.798   3.615  11.808  0.0674  0.6546  0.1386
19933TIP3    H181214   1.833   3.582  11.891 -0.0613 -0.7807 -0.3596
19933TIP3    H281215   1.867   3.599  11.744 -0.2482  0.7599 -0.2367
19934TIP3   OH281216   4.160   5.091  15.878 -0.4639 -0.2175  0.0162
19934TIP3    H181217   4.104   5.014  15.887 -0.5389 -0.3227 -1.2136
19934TIP3    H281218   4.112   5.162  15.920 -0.7690 -0.6597  0.4210
19935TIP3   OH281219   6.303   0.603  16.773  0.6370 -0.1819 -0.2262
19935TIP3    H181220   6.269   0.692  16.770  1.8605  0.3112  0.2437
19935TIP3    H281221   6.274   0.569  16.858  1.2737  0.2165  0.1495
19936TIP3   OH281222   1.403   0.757   6.475 -0.4263  0.0481 -0.4162
19936TIP3    H181223   1.452   0.678   6.451 -1.7184 -0.6335 -0.9384
19936TIP3    H281224   1.420   0.768   6.569 -1.4143 -1.7591  0.0230
19937TIP3   OH281225   1.058   3.883   1.068  0.5165 -0.0980  0.0157
19937TIP3    H181226   1.037   3.821   0.998 -1.4696  0.4628  0.0483
19937TIP3    H281227   0.973   3.911   1.102  1.2577  2.9815 -0.3080
19938TIP3   OH281228   5.405   0.298   4.721  0.1394  0.1635 -0.6508
19938TIP3    H181229   5.324   0.248   4.714  1.0914 -1.7849  1.0680
19938TIP3    H281230   5.382   0.373   4.775 -0.5400 -0.2999 -0.2827
19939TIP3   OH281231   5.477   5.115   2.426  0.4127 -0.2704 -0.2374
19939TIP3    H181232   5.431   5.134   2.344  0.2121  1.3947  0.2349
19939TIP3    H281233   5.541   5.186   2.435  1.5566 -1.3239  0.2488
19940TIP3   OH281234   1.079   1.855   4.224  0.2754 -0.2757  0.4066
19940TIP3    H181235   1.094   1.920   4.155 -2.5945  1.3313  1.1264
19940TIP3    H281236   1.104   1.772   4.184 -1.2127  0.5804 -2.6248
19941TIP3   OH281237   2.666   4.268   2.235 -0.7847  0.3913 -0.5350
19941TIP3    H181238   2.574   4.242   2.244 -0.4969 -1.2441 -1.8335
19941TIP3    H281239   2.680   4.329   2.308 -2.8335  0.5582 -0.1968
19942TIP3   OH281240   5.605   1.828   6.589  0.2921 -0.4737  0.7644
19942TIP3    H181241   5.617   1.851   6.681  0.5586 -2.4384  1.2618
19942TIP3    H281242   5.540   1.891   6.557 -0.1855 -0.0717  2.4194
19943TIP3   OH281243   5.498   0.504   1.889  0.8012  0.5317 -0.5256
19943TIP3    H181244   5.498   0.468   1.800  1.1128 -0.4619 -0.1371
19943TIP3    H281245   5.443   0.444   1.939  2.8906 -0.5734  0.5741
19944TIP3   OH281246   0.251   0.480  11.192  0.3355 -0.0288 -0.0534
19944TIP3    H181247   0.229   0.393  11.161  0.7952 -0.4468  0.7609
19944TIP3    H281248   0.239   0.537  11.115 -2.5289 -0.3443  0.0438
19945TIP3   OH281249   4.879   5.308  11.806  0.0876  0.0982  0.6409
19945TIP3    H181250   4.903   5.216  11.816 -4.2227 -1.5215 -1.3092
19945TIP3    H281251   4.801   5.318  11.861 -1.5992  1.4860 -1.8137
19946TIP3   OH281252   4.491   0.476  12.373 -0.3162 -0.2391  0.3793
19946TIP3    H181253   4.431   0.414  12.332 -0.4904  0.3283 -0.2260
19946TIP3    H281254   4.479   0.462  12.467 -1.7819  0.2305  0.2890
19947TIP3   OH281255   0.800   4.496   1.564 -0.0353 -0.2040 -0.1054
19947TIP3    H181256   0.800   4.534   1.476  1.0690 -2.5062 -1.1734
19947TIP3    H281257   0.880   4.530   1.605  0.4275 -0.5874 -0.6842
19948TIP3   OH281258   6.200   3.808  12.891  0.2872  0.2386  0.4282
19948TIP3    H181259   6.148   3.842  12.819  1.1394 -0.8138 -0.7253
19948TIP3    H281260   6.141   3.810  12.967 -1.3583 -0.6803 -0.7621
19949TIP3   OH281261   2.713   0.974   0.240 -0.0526  0.1984 -0.0487
19949TIP3    H181262   2.644   0.931   0.290 -1.5435 -0.0593 -2.1987
19949TIP3    H281263   2.674   1.055   0.208 -0.0156 -0.7041 -2.6464
19950TIP3   OH281264   3.841   5.061  17.165 -0.4564 -0.4338  0.2261
19950TIP3    H181265   3.807   5.148  17.184  2.1672  0.7601 -0.1347
19950TIP3    H281266   3.818   5.045  17.074  0.5576  0.6773 -0.2459
19951TIP3   OH281267   2.265   4.004   4.159  0.5280  0.4843 -0.0829
19951TIP3    H181268   2.334   4.007   4.226 -1.2452  1.0284  1.8458
19951TIP3    H281269   2.263   3.913   4.131 -0.7394 -0.6096  3.0647
19952TIP3   OH281270   4.915   2.671   3.952 -0.0823  0.0783  0.3243
19952TIP3    H181271   4.888   2.579   3.955  1.0755 -0.2939 -0.1766
19952TIP3    H281272   5.010   2.668   3.959 -0.0334  1.2457  0.2984
19953TIP3   OH281273   1.171   3.813  12.640  0.1105  0.1949  0.5101
19953TIP3    H181274   1.079   3.837  12.644 -0.8970 -3.2548  2.1665
19953TIP3    H281275   1.190   3.775  12.726  2.4840 -1.0187 -0.4336
19954TIP3   OH281276   5.695   4.972  12.104 -0.1772  0.2012 -0.1416
19954TIP3    H181277   5.632   4.999  12.037 -0.5418 -0.4043 -0.0521
19954TIP3    H281278   5.675   4.880  12.120 -1.3737  0.7607  2.1301
19955TIP3   OH281279   5.571   2.857  15.593  0.1645  1.0093  0.4517
19955TIP3    H181280   5.501   2.916  15.565  0.2387  1.1617  0.5883
19955TIP3    H281281   5.538   2.769  15.572 -0.3649  1.0374  1.1645
19956TIP3   OH281282   5.964   1.446   4.383  0.3206  0.4393 -0.4080
19956TIP3    H181283   5.959   1.445   4.479 -0.6965  1.3864 -0.4480
19956TIP3    H281284   5.876   1.423   4.354  0.5090  0.6033 -1.1198
19957TIP3   OH281285   4.598   6.182  15.274 -0.1178 -0.0148  0.3447
19957TIP3    H181286   4.579   6.229  15.193 -0.3682  0.3548  0.6153
19957TIP3    H281287   4.693   6.183  15.280 -0.1373  2.3232  1.4067
19958TIP3   OH281288   5.494   5.142   5.049 -0.1542  0.3999  0.1009
19958TIP3    H181289   5.441   5.084   4.995  1.5598  0.9996 -2.4014
19958TIP3    H281290   5.563   5.086   5.083  0.6690  0.6255 -1.1301
19959TIP3   OH281291   4.124   3.610   2.067  0.2410  0.4484 -0.5064
19959TIP3    H181292   4.188   3.559   2.116  0.1050  1.6825  1.0541
19959TIP3    H281293   4.133   3.699   2.103 -0.3114  1.2780 -2.3203
19960TIP3   OH281294   1.858   0.035   5.531 -0.3214  0.4185  0.2367
19960TIP3    H181295   1.938   0.072   5.569  1.9590 -2.1052 -1.6997
19960TIP3    H281296   1.888  -0.041   5.481 -4.1028 -1.3716  0.3012
19961TIP3   OH281297   4.246   0.597   4.684 -0.2461 -0.7842 -0.0928
19961TIP3    H181298   4.183   0.635   4.746  0.4557 -0.5190  0.4687
19961TIP3    H281299   4.260   0.508   4.716 -0.8640 -1.0892 -0.6327
19962TIP3   OH281300   1.832   0.562  14.745 -0.1806  0.0140  0.2864
19962TIP3    H181301   1.857   0.645  14.785 -1.4348  0.5413 -0.0058
19962TIP3    H281302   1.844   0.576  14.651 -0.9927  0.0739  0.1892
19963TIP3   OH281303   6.654   4.222  16.644  0.2543  0.3306 -0.5723
19963TIP3    H181304   6.731   4.261  16.602  0.2789  2.0575  0.9267
19963TIP3    H281305   6.588   4.291  16.639  0.2118  0.5460  1.9968
19964TIP3   OH281306   5.950   2.278  12.822 -0.1755  0.1058 -0.0751
19964TIP3    H181307   5.988   2.291  12.909  1.1521  0.9996 -0.7600
19964TIP3    H281308   5.966   2.185  12.803  1.3224  0.3552 -0.1590
19965TIP3   OH281309   0.113   4.206  14.334  1.0830 -0.0204  0.5170
19965TIP3    H181310   0.155   4.131  14.292  0.7001  0.4649 -0.7616
19965TIP3    H281311   0.185   4.264  14.357  1.2394  0.1236 -0.3091
19966TIP3   OH281312   6.299   1.236   5.802  0.2738 -0.1871  0.0507
19966TIP3    H181313   6.211   1.213   5.831  1.2061  0.3795  4.0034
19966TIP3    H281314   6.356   1.176   5.850  2.1241  1.7367  0.3985
19967TIP3   OH281315   1.111   6.605   2.107  0.3673 -0.4054  0.0772
19967TIP3    H181316   1.033   6.575   2.061 -0.5333  0.9031  0.6975
19967TIP3    H281317   1.179   6.608   2.040 -0.9672  1.6865 -1.2660
19968TIP3   OH281318   0.250   4.573  12.665  0.2281 -0.4368  0.1548
19968TIP3    H181319   0.302   4.654  12.664 -0.0046 -0.2667 -1.8144
19968TIP3    H281320   0.303   4.511  12.615 -1.0011 -0.5357 -1.0911
19969TIP3   OH281321   2.467   2.657  15.541 -0.4579  0.1927  0.3429
19969TIP3    H181322   2.449   2.579  15.488 -0.3377  0.2825  0.1672
19969TIP3    H281323   2.433   2.730  15.490 -1.6968  0.1484  1.0778
19970TIP3   OH281324   0.826   0.010   4.198 -0.1602 -0.1871  0.2334
19970TIP3    H181325   0.833  -0.005   4.292 -1.5155  0.7726  0.5237
19970TIP3    H281326   0.913  -0.007   4.164  1.0512  1.9215  2.0427
19971TIP3   OH281327   0.823   2.944  16.238  0.0027  0.0423 -0.1998
19971TIP3    H181328   0.733   2.917  16.224 -0.0833 -0.1938  0.7628
19971TIP3    H281329   0.876   2.873  16.202 -0.2064 -0.1873 -0.0543
19972TIP3   OH281330   0.575   2.267  11.109  0.3864  0.3538  0.3259
19972TIP3    H181331   0.637   2.338  11.095 -0.1804  0.4382 -2.2224
19972TIP3    H281332   0.491   2.301  11.078 -0.1522 -1.0196  0.1908
19973TIP3   OH281333   1.123   3.099  16.909 -0.5970 -0.4490  0.0668
19973TIP3    H181334   1.102   3.170  16.848  0.4454  0.7742  1.0812
19973TIP3    H281335   1.062   3.112  16.982 -0.4623 -0.6510  0.2153
19974TIP3   OH281336   4.321   4.465   4.061  0.6251  0.3933  0.0203
19974TIP3    H181337   4.352   4.376   4.077  1.4170  0.6786  0.1242
19974TIP3    H281338   4.335   4.510   4.144 -0.7063  0.3639  0.2797
19975TIP3   OH281339   2.310   2.488   3.251 -0.0380 -0.8249  0.3530
19975TIP3    H181340   2.358   2.550   3.195 -3.3390 -0.7515 -2.7614
19975TIP3    H281341   2.352   2.404   3.234 -0.4154 -0.6595 -1.7411
19976TIP3   OH281342   5.914   0.076  14.847 -0.2298  0.1547  0.3977
19976TIP3    H181343   5.844   0.117  14.898 -0.8371 -1.3039  0.7786
19976TIP3    H281344   5.960   0.020  14.909 -1.5687 -2.4005 -0.8033
19977TIP3   OH281345   3.601   6.615   4.704 -0.1517  0.4257 -0.0713
19977TIP3    H181346   3.567   6.652   4.785  0.0143  0.2360  0.0850
19977TIP3    H281347   3.651   6.538   4.731  0.6637  0.8706 -0.2667
19978TIP3   OH281348   2.467   2.216   3.523  0.2314 -0.8376 -0.7123
19978TIP3    H181349   2.527   2.208   3.597  0.3709 -2.4253 -0.9546
19978TIP3    H281350   2.390   2.261   3.559  0.9432 -0.1418 -0.0247
19979TIP3   OH281351   5.883   4.006   0.730 -0.7643 -0.6234 -0.3710
19979TIP3    H181352   5.873   4.101   0.728 -0.2705 -0.4802  1.7392
19979TIP3    H281353   5.795   3.972   0.714 -0.9126  0.1519 -1.3498
19980TIP3   OH281354   2.366   3.958  15.234 -0.2146  1.2885  0.2513
19980TIP3    H181355   2.437   3.995  15.181 -0.1431  0.5955 -0.1624
19980TIP3    H281356   2.343   4.027  15.296 -0.6679  2.3400 -1.0387
19981TIP3   OH281357   1.964   4.658   0.754  0.2866 -0.2261  0.6811
19981TIP3    H181358   1.906   4.592   0.715  0.9286 -1.2700  1.4584
19981TIP3    H281359   1.945   4.654   0.848  1.5160 -0.4935  0.9284
19982TIP3   OH281360   6.454   6.315  16.408 -0.1515  0.1211 -0.0983
19982TIP3    H181361   6.528   6.311  16.346  0.4757  3.0436  0.3200
19982TIP3    H281362   6.491   6.286  16.491  0.8899  2.4111  0.3174
19983TIP3   OH281363   3.282   6.342   6.103 -1.1625  0.1216  0.1532
19983TIP3    H181364   3.290   6.404   6.175 -0.1480 -0.0498  0.2068
19983TIP3    H281365   3.272   6.257   6.146  0.5323 -0.1177  0.1284
19984TIP3   OH281366   0.356   5.415   1.245 -0.2401 -0.0649  0.2869
19984TIP3    H181367   0.412   5.353   1.199  0.4725  0.8967 -0.1896
19984TIP3    H281368   0.304   5.456   1.175  1.3052  1.8728  0.1802
19985TIP3   OH281369   1.190   3.333   2.910 -0.0599 -0.5065  0.3348
19985TIP3    H181370   1.222   3.268   2.848 -0.1733 -1.7691  1.5646
19985TIP3    H281371   1.113   3.370   2.867 -0.2361 -1.4700 -0.2139
19986LIG      O81372   5.471   1.691  16.479  0.0874 -0.0874 -0.0291
19986LIG     C181373   5.380   1.642  16.576 -0.0300  0.3650  0.7308
19986LIG     C281374   5.259   1.569  16.509 -0.0441  0.6575 -0.1473
19986LIG     C381375   5.471   1.541  16.651  0.4638  0.1480 -0.3717
19986LIG     H181376   5.352   1.722  16.647 -0.4258 -0.6553  1.7479
19986LIG     H281377   5.195   1.641  16.455 -1.6473 -0.7150 -0.1674
19986LIG     H381378   5.192   1.527  16.588 -0.1861  1.5028  0.1940
19986LIG     H481379   5.284   1.486  16.440  2.3495  2.1846 -1.2472
19986LIG     H581380   5.411   1.470  16.711  1.9495  0.9144  2.1943
19986LIG     H681381   5.540   1.594  16.721  2.1198 -2.6809  0.3078
19986LIG     H781382   5.545   1.489  16.586 -1.8357 -1.1980 -2.0437
19986LIG     H881383   5.531   1.748  16.529 -0.5538  0.1678  0.4625
   6.78308   6.78308  17.31944
